       N       E                     dE             d eps       ncg     rms          rms(c)
DAV:   1     0.605389743894E+04    0.60539E+04   -0.51554E+05 16384   0.197E+03
DAV:   2    -0.765779680430E+02   -0.61305E+04   -0.60196E+04 18176   0.446E+02
DAV:   3    -0.321891824114E+03   -0.24531E+03   -0.24445E+03 22016   0.967E+01
DAV:   4    -0.325317320264E+03   -0.34255E+01   -0.34253E+01 19968   0.116E+01
DAV:   5    -0.325418847944E+03   -0.10153E+00   -0.10153E+00 21248   0.195E+00    0.247E+00
DAV:   6    -0.325443618032E+03   -0.24770E-01   -0.91954E-02 22272   0.647E-01    0.144E+00
DAV:   7    -0.325450952176E+03   -0.73341E-02   -0.13257E-02 22528   0.315E-01    0.904E-01
DAV:   8    -0.325458230234E+03   -0.72781E-02   -0.29616E-02 21760   0.347E-01    0.429E-01
DAV:   9    -0.325458258518E+03   -0.28283E-04   -0.10049E-02 21248   0.283E-01    0.168E-01
DAV:  10    -0.325459092779E+03   -0.83426E-03   -0.20180E-03 19968   0.662E-02    0.104E-01
DAV:  11    -0.325459709572E+03   -0.61679E-03   -0.16348E-03 22784   0.512E-02    0.712E-02
DAV:  12    -0.325460135503E+03   -0.42593E-03   -0.35033E-03 20224   0.645E-02    0.210E-02
DAV:  13    -0.325460169579E+03   -0.34076E-04   -0.25549E-04 25088   0.193E-02    0.117E-02
DAV:  14    -0.325460174440E+03   -0.48610E-05   -0.13482E-05 20992   0.433E-03    0.807E-03
DAV:  15    -0.325460178298E+03   -0.38571E-05   -0.20663E-05 21760   0.491E-03    0.449E-03
DAV:  16    -0.325460179167E+03   -0.86984E-06   -0.59295E-06 20224   0.294E-03    0.277E-03
DAV:  17    -0.325460179557E+03   -0.39011E-06   -0.13867E-06 27648   0.136E-03    0.186E-03
DAV:  18    -0.325460179737E+03   -0.17986E-06   -0.10906E-06 21248   0.116E-03    0.654E-04
DAV:  19    -0.325460179758E+03   -0.20547E-07   -0.11572E-07 22784   0.479E-04    0.398E-04
DAV:  20    -0.325460179767E+03   -0.87457E-08   -0.27092E-08 16128   0.194E-04
   1 F= -.32546018E+03 E0= -.32546018E+03  d E =0.000000E+00  mag=     0.0000
