       N       E                     dE             d eps       ncg     rms          rms(c)
DAV:   1     0.604965658157E+04    0.60497E+04   -0.51585E+05 16384   0.196E+03
DAV:   2    -0.863216796413E+02   -0.61360E+04   -0.60262E+04 18688   0.445E+02
DAV:   3    -0.327343917812E+03   -0.24102E+03   -0.24027E+03 22272   0.961E+01
DAV:   4    -0.330685631823E+03   -0.33417E+01   -0.33416E+01 19968   0.114E+01
DAV:   5    -0.330789722485E+03   -0.10409E+00   -0.10409E+00 21760   0.196E+00    0.123E+01
DAV:   6    -0.328761229428E+03    0.20285E+01   -0.14741E+00 22528   0.387E+00    0.651E+00
DAV:   7    -0.328133731285E+03    0.62750E+00   -0.14386E+00 26112   0.278E+00    0.369E+00
DAV:   8    -0.328109198904E+03    0.24532E-01   -0.32942E-01 22528   0.145E+00    0.192E+00
DAV:   9    -0.328109021418E+03    0.17749E-03   -0.96809E-02 23552   0.909E-01    0.105E+00
DAV:  10    -0.328111254424E+03   -0.22330E-02   -0.72362E-02 20480   0.738E-01    0.830E-01
DAV:  11    -0.328110974900E+03    0.27952E-03   -0.36572E-02 20992   0.515E-01    0.344E-01
DAV:  12    -0.328112033878E+03   -0.10590E-02   -0.53085E-03 20224   0.145E-01    0.112E-01
DAV:  13    -0.328112196033E+03   -0.16215E-03   -0.77874E-04 23040   0.640E-02    0.759E-02
DAV:  14    -0.328112317471E+03   -0.12144E-03   -0.48223E-04 24576   0.394E-02    0.368E-02
DAV:  15    -0.328112369532E+03   -0.52061E-04   -0.14329E-04 25088   0.137E-02    0.200E-02
DAV:  16    -0.328112388744E+03   -0.19213E-04   -0.48205E-05 21760   0.715E-03    0.143E-02
DAV:  17    -0.328112402896E+03   -0.14151E-04   -0.79454E-05 20992   0.866E-03    0.707E-03
DAV:  18    -0.328112405228E+03   -0.23325E-05   -0.16297E-05 18944   0.462E-03    0.379E-03
DAV:  19    -0.328112405493E+03   -0.26498E-06   -0.10691E-06 19968   0.157E-03    0.203E-03
DAV:  20    -0.328112405574E+03   -0.80705E-07   -0.55286E-07 22272   0.103E-03    0.788E-04
DAV:  21    -0.328112405594E+03   -0.20038E-07   -0.72098E-08 23808   0.391E-04    0.451E-04
DAV:  22    -0.328112405600E+03   -0.60390E-08   -0.46774E-09 15360   0.115E-04
   1 F= -.32811241E+03 E0= -.32811241E+03  d E =0.000000E+00  mag=     0.0000
