 vasp.5.4.4.18Apr17-6-g9f103f2a35 (build Oct 30 2023 17:30:16) complex          
  
 executed on             LinuxIFC date 2024.06.30  18:48:50
 running on  256 total cores
 distrk:  each k-point on  256 cores,    1 groups
 distr:  one band on NCORES_PER_BAND=   1 cores,  256 groups


--------------------------------------------------------------------------------------------------------


 INCAR:
 POTCAR:    PAW_PBE S 06Sep2000                   
 POTCAR:     PAW_PBE Cu_pv 06Sep2000              
 POTCAR:     PAW_PBE Fe_pv 02Aug2007              

 ----------------------------------------------------------------------------- 
|                                                                             |
|           W    W    AA    RRRRR   N    N  II  N    N   GGGG   !!!           |
|           W    W   A  A   R    R  NN   N  II  NN   N  G    G  !!!           |
|           W    W  A    A  R    R  N N  N  II  N N  N  G       !!!           |
|           W WW W  AAAAAA  RRRRR   N  N N  II  N  N N  G  GGG   !            |
|           WW  WW  A    A  R   R   N   NN  II  N   NN  G    G                |
|           W    W  A    A  R    R  N    N  II  N    N   GGGG   !!!           |
|                                                                             |
|      For optimal performance we recommend to set                            |
|        NCORE= 4 - approx SQRT( number of cores)                             |
|      NCORE specifies how many cores store one orbital (NPAR=cpu/NCORE).     |
|      This setting can  greatly improve the performance of VASP for DFT.     |
|      The default,   NCORE=1            might be grossly inefficient         |
|      on modern multi-core architectures or massively parallel machines.     |
|      Do your own testing !!!!                                               |
|      Unfortunately you need to use the default for GW and RPA calculations. |
|      (for HF NCORE is supported but not extensively tested yet)             |
|                                                                             |
 ----------------------------------------------------------------------------- 

 POTCAR:    PAW_PBE S 06Sep2000                   
   SHA256 =  0fc7481fb0695f01bdc6462160264c5c84044ae9ec85a907d398b887a2bc3132 S/
   COPYR  = (c) Copyright 06Sep2000 Georg Kresse                                
   COPYR  = This file is part of the software VASP. Any use, copying, and all ot
   COPYR  = If you do not have a valid VASP license, you may not use, copy or di
   VRHFIN =S : s2p4                                                             
   LEXCH  = PE                                                                  
   EATOM  =   276.8230 eV,   20.3459 Ry                                         
                                                                                
   TITEL  = PAW_PBE S 06Sep2000                                                 
   LULTRA =        F    use ultrasoft PP ?                                      
   IUNSCR =        1    unscreen: 0-lin 1-nonlin 2-no                           
   RPACOR =    1.500    partial core radius                                     
   POMASS =   32.066; ZVAL   =    6.000    mass and valenz                      
   RCORE  =    1.900    outmost cutoff radius                                   
   RWIGS  =    2.200; RWIGS  =    1.164    wigner-seitz radius (au A)           
   ENMAX  =  258.689; ENMIN  =  194.016 eV                                      
   ICORE  =        2    local potential                                         
   LCOR   =        T    correct aug charges                                     
   LPAW   =        T    paw PP                                                  
   EAUG   =  335.092                                                            
   DEXC   =    0.000                                                            
   RMAX   =    1.942    core radius for proj-oper                               
   RAUG   =    1.300    factor for augmentation sphere                          
   RDEP   =    1.954    radius for radial grids                                 
   RDEPT  =    1.744    core radius for aug-charge                              
                                                                                
   Atomic configuration                                                         
    6 entries                                                                   
     n  l   j            E        occ.                                          
     1  0  0.50     -2405.8406   2.0000                                         
     2  0  0.50      -211.7007   2.0000                                         
     2  1  1.50      -156.4958   6.0000                                         
     3  0  0.50       -17.2562   2.0000                                         
     3  1  0.50        -7.0085   4.0000                                         
     3  2  1.50        -6.8029   0.0000                                         
   Description                                                                  
     l       E           TYP  RCUT    TYP  RCUT                                 
     0    -17.2561641     23  1.900                                             
     0    -15.8743224     23  1.900                                             
     1     -7.0085400     23  1.900                                             
     1     -2.7779785     23  1.900                                             
     2     -6.8029130     23  1.900                                             
  local pseudopotential read in
  partial core-charges read in
  partial kinetic energy density read in
  atomic valenz-charges read in
  non local Contribution for L=           0  read in
    real space projection operators read in
  non local Contribution for L=           0  read in
    real space projection operators read in
  non local Contribution for L=           1  read in
    real space projection operators read in
  non local Contribution for L=           1  read in
    real space projection operators read in
    PAW grid and wavefunctions read in
 
   number of l-projection  operators is LMAX  =           4
   number of lm-projection operators is LMMAX =           8
 
 POTCAR:     PAW_PBE Cu_pv 06Sep2000              
   SHA256 =  cb7b504e2ea725fe1f25c85a9ac77d4012ce94cd394135b722c4e25ec297f1cb Cu
   COPYR  = (c) Copyright 06Sep2000 Georg Kresse                                
   COPYR  = This file is part of the software VASP. Any use, copying, and all ot
   COPYR  = If you do not have a valid VASP license, you may not use, copy or di
   VRHFIN =Cu: d10 p1                                                           
   LEXCH  = PE                                                                  
   EATOM  =  4120.1201 eV,  302.8203 Ry                                         
                                                                                
   TITEL  = PAW_PBE Cu_pv 06Sep2000                                             
   LULTRA =        F    use ultrasoft PP ?                                      
   IUNSCR =        1    unscreen: 0-lin 1-nonlin 2-no                           
   RPACOR =    1.500    partial core radius                                     
   POMASS =   63.546; ZVAL   =   17.000    mass and valenz                      
   RCORE  =    2.000    outmost cutoff radius                                   
   RWIGS  =    2.000; RWIGS  =    1.058    wigner-seitz radius (au A)           
   ENMAX  =  368.648; ENMIN  =  276.486 eV                                      
   RCLOC  =    1.304    cutoff for local pot                                    
   LCOR   =        T    correct aug charges                                     
   LPAW   =        T    paw PP                                                  
   EAUG   =  758.233                                                            
   DEXC   =    0.000                                                            
   RMAX   =    2.046    core radius for proj-oper                               
   RAUG   =    1.300    factor for augmentation sphere                          
   RDEP   =    2.025    radius for radial grids                                 
   RDEPT  =    1.558    core radius for aug-charge                              
                                                                                
   Atomic configuration                                                         
    8 entries                                                                   
     n  l   j            E        occ.                                          
     1  0  0.50     -8850.2467   2.0000                                         
     2  0  0.50     -1062.3498   2.0000                                         
     2  1  1.50      -916.8226   6.0000                                         
     3  0  0.50      -114.6929   2.0000                                         
     3  1  1.50       -72.1325   6.0000                                         
     3  2  2.50        -5.0394  10.0000                                         
     4  0  0.50        -4.6097   1.0000                                         
     4  3  2.50        -1.3606   0.0000                                         
   Description                                                                  
     l       E           TYP  RCUT    TYP  RCUT                                 
     1    -72.1324777     23  1.700                                             
     1     -1.3605826     23  1.700                                             
     2     -5.0393776     23  2.000                                             
     2     -6.3999602     23  2.000                                             
     0     -4.6097062     23  1.800                                             
     0     14.1620818     23  1.800                                             
  local pseudopotential read in
  partial core-charges read in
  partial kinetic energy density read in
  atomic valenz-charges read in
  non local Contribution for L=           1  read in
    real space projection operators read in
  non local Contribution for L=           1  read in
    real space projection operators read in
  non local Contribution for L=           2  read in
    real space projection operators read in
  non local Contribution for L=           2  read in
    real space projection operators read in
  non local Contribution for L=           0  read in
    real space projection operators read in
  non local Contribution for L=           0  read in
    real space projection operators read in
    PAW grid and wavefunctions read in
 
   number of l-projection  operators is LMAX  =           6
   number of lm-projection operators is LMMAX =          18
 
 POTCAR:     PAW_PBE Fe_pv 02Aug2007              
   SHA256 =  5d22e414b1f82158bf2c7ecb8b97b28fd0923e48cadc1c3bf74d524558f5dd32 Fe
   COPYR  = (c) Copyright 02Aug2007 Georg Kresse                                
   COPYR  = This file is part of the software VASP. Any use, copying, and all ot
   COPYR  = If you do not have a valid VASP license, you may not use, copy or di
   VRHFIN =Fe:  3pd7s1                                                          
   LEXCH  = PE                                                                  
   EATOM  =  2457.4239 eV,  180.6156 Ry                                         
                                                                                
   TITEL  = PAW_PBE Fe_pv 02Aug2007                                             
   LULTRA =        F    use ultrasoft PP ?                                      
   IUNSCR =        1    unscreen: 0-lin 1-nonlin 2-no                           
   RPACOR =    1.750    partial core radius                                     
   POMASS =   55.847; ZVAL   =   14.000    mass and valenz                      
   RCORE  =    2.200    outmost cutoff radius                                   
   RWIGS  =    2.200; RWIGS  =    1.164    wigner-seitz radius (au A)           
   ENMAX  =  293.238; ENMIN  =  219.928 eV                                      
   ICORE  =        3    local potential                                         
   LCOR   =        T    correct aug charges                                     
   LPAW   =        T    paw PP                                                  
   EAUG   =  578.342                                                            
   DEXC   =    0.000                                                            
   RMAX   =    2.249    core radius for proj-oper                               
   RAUG   =    1.300    factor for augmentation sphere                          
   RDEP   =    2.296    radius for radial grids                                 
   RDEPT  =    1.766    core radius for aug-charge                              
                                                                                
   Atomic configuration                                                         
    8 entries                                                                   
     n  l   j            E        occ.                                          
     1  0  0.50     -6993.8440   2.0000                                         
     2  0  0.50      -814.6047   2.0000                                         
     2  1  1.50      -693.3689   6.0000                                         
     3  0  0.50       -89.4732   2.0000                                         
     3  1  1.50       -55.6373   6.0000                                         
     3  2  2.50        -3.8151   7.0000                                         
     4  0  0.50        -4.2551   1.0000                                         
     4  3  2.50        -1.3606   0.0000                                         
   Description                                                                  
     l       E           TYP  RCUT    TYP  RCUT                                 
     1    -55.6372668     23  2.000                                             
     1     -5.4423304     23  2.000                                             
     2     -3.8151096     23  2.200                                             
     2     -5.1756922     23  2.200                                             
     0     -4.2550951     23  2.200                                             
     0     27.2116520     23  2.200                                             
     3     -1.3605826     23  2.200                                             
  local pseudopotential read in
  partial core-charges read in
  partial kinetic energy density read in
  atomic valenz-charges read in
  non local Contribution for L=           1  read in
    real space projection operators read in
  non local Contribution for L=           1  read in
    real space projection operators read in
  non local Contribution for L=           2  read in
    real space projection operators read in
  non local Contribution for L=           2  read in
    real space projection operators read in
  non local Contribution for L=           0  read in
    real space projection operators read in
  non local Contribution for L=           0  read in
    real space projection operators read in
    PAW grid and wavefunctions read in
 
   number of l-projection  operators is LMAX  =           6
   number of lm-projection operators is LMMAX =          18
 

 ----------------------------------------------------------------------------- 
|                                                                             |
|  ADVICE TO THIS USER RUNNING 'VASP/VAMP'   (HEAR YOUR MASTER'S VOICE ...):  |
|                                                                             |
|      You have a (more or less) 'large supercell' and for larger cells       |
|      it might be more efficient to use real space projection opertators     |
|      So try LREAL= Auto  in the INCAR   file.                               |
|      Mind:          For very  accurate calculation you might also keep the  |
|      reciprocal projection scheme          (i.e. LREAL=.FALSE.)             |
|                                                                             |
 ----------------------------------------------------------------------------- 


 ----------------------------------------------------------------------------- 
|                                                                             |
|  ADVICE TO THIS USER RUNNING 'VASP/VAMP'   (HEAR YOUR MASTER'S VOICE ...):  |
|                                                                             |
|      You enforced a specific xc-type in the INCAR file,                     |
|      a different type was found on the POTCAR file                          |
|          I HOPE YOU KNOW, WHAT YOU ARE  DOING                               |
|                                                                             |
 ----------------------------------------------------------------------------- 

  PAW_PBE S 06Sep2000                   :
 energy of atom  1       EATOM= -276.8230
 kinetic energy error for atom=    0.0007 (will be added to EATOM!!)
   PAW_PBE Cu_pv 06Sep2000              :
 energy of atom  2       EATOM=-4120.1201
 kinetic energy error for atom=    0.0094 (will be added to EATOM!!)
   PAW_PBE Fe_pv 02Aug2007              :
 energy of atom  3       EATOM=-2457.4239
 kinetic energy error for atom=    0.0025 (will be added to EATOM!!)
 
 
 POSCAR: Fe16 Cu16 S32                           
  positions in direct lattice
  No initial velocities read in
 exchange correlation table for  LEXCH =       14
   RHO(1)=    0.500       N(1)  =     2000
   RHO(2)=  100.500       N(2)  =     4000
 


--------------------------------------------------------------------------------------------------------


 ion  position               nearest neighbor table
   1  0.126  0.124  0.125-  41 2.26  37 2.26  61 2.27  49 2.28
   2  0.626  0.124  0.125-  42 2.26  38 2.26  62 2.27  50 2.28
   3  0.126  0.624  0.125-  43 2.26  39 2.26  63 2.27  51 2.28
   4  0.626  0.624  0.125-  44 2.26  40 2.26  64 2.27  52 2.28
   5  0.374  0.374  0.125-  39 2.26  41 2.26  52 2.27  62 2.28
   6  0.874  0.374  0.125-  40 2.26  42 2.26  51 2.27  61 2.28
   7  0.374  0.874  0.125-  37 2.26  43 2.26  50 2.27  64 2.28
   8  0.874  0.874  0.125-  38 2.26  44 2.26  49 2.27  63 2.28
   9  0.125  0.373  0.875-  41 2.26  45 2.26  51 2.28  55 2.28
  10  0.625  0.373  0.875-  42 2.26  46 2.26  52 2.28  56 2.28
  11  0.125  0.873  0.875-  43 2.26  47 2.26  49 2.28  53 2.28
  12  0.625  0.873  0.875-  44 2.26  48 2.26  50 2.28  54 2.28
  13  0.375  0.126  0.875-  41 2.26  46 2.26  50 2.28  53 2.28
  14  0.875  0.126  0.875-  42 2.26  45 2.26  49 2.28  54 2.28
  15  0.375  0.626  0.875-  43 2.26  48 2.26  52 2.28  55 2.28
  16  0.875  0.626  0.875-  44 2.26  47 2.26  51 2.28  56 2.28
  17  0.124  0.124  0.625-  45 2.26  33 2.26  57 2.27  53 2.28
  18  0.624  0.124  0.625-  46 2.26  34 2.26  58 2.27  54 2.28
  19  0.124  0.624  0.625-  47 2.26  35 2.26  59 2.27  55 2.28
  20  0.624  0.624  0.625-  48 2.26  36 2.26  60 2.27  56 2.28
  21  0.376  0.374  0.625-  36 2.26  46 2.26  55 2.27  57 2.28
  22  0.876  0.374  0.625-  35 2.26  45 2.26  56 2.27  58 2.28
  23  0.376  0.874  0.625-  34 2.26  48 2.26  53 2.27  59 2.28
  24  0.876  0.874  0.625-  33 2.26  47 2.26  54 2.27  60 2.28
  25  0.375  0.123  0.375-  34 2.26  37 2.26  57 2.28  62 2.28
  26  0.875  0.123  0.375-  33 2.26  38 2.26  58 2.28  61 2.28
  27  0.375  0.623  0.375-  36 2.26  39 2.26  59 2.28  64 2.28
  28  0.875  0.623  0.375-  35 2.26  40 2.26  60 2.28  63 2.28
  29  0.125  0.376  0.375-  35 2.26  39 2.26  57 2.28  61 2.28
  30  0.625  0.376  0.375-  36 2.26  40 2.26  58 2.28  62 2.28
  31  0.125  0.876  0.375-  33 2.26  37 2.26  59 2.28  63 2.28
  32  0.625  0.876  0.375-  34 2.26  38 2.26  60 2.28  64 2.28
  33  1.000  0.001  0.500-  24 2.26  31 2.26  26 2.26  17 2.26
  34  0.500  0.001  0.500-  23 2.26  32 2.26  25 2.26  18 2.26
  35  1.000  0.501  0.500-  22 2.26  29 2.26  28 2.26  19 2.26
  36  0.500  0.501  0.500-  21 2.26  30 2.26  27 2.26  20 2.26
  37  0.250  0.001  0.250-   7 2.26  31 2.26  25 2.26   1 2.26
  38  0.750  0.001  0.250-   8 2.26  32 2.26  26 2.26   2 2.26
  39  0.250  0.501  0.250-   5 2.26  29 2.26  27 2.26   3 2.26
  40  0.750  0.501  0.250-   6 2.26  30 2.26  28 2.26   4 2.26
  41  0.250  0.251  0.000-   1 2.26  13 2.26   9 2.26   5 2.26
  42  0.750  0.251  0.000-   2 2.26  14 2.26  10 2.26   6 2.26
  43  0.250  0.751  0.000-   3 2.26  15 2.26  11 2.26   7 2.26
  44  0.750  0.751  0.000-   4 2.26  16 2.26  12 2.26   8 2.26
  45  0.000  0.251  0.750-  17 2.26  14 2.26   9 2.26  22 2.26
  46  0.500  0.251  0.750-  18 2.26  13 2.26  10 2.26  21 2.26
  47  0.000  0.751  0.750-  19 2.26  16 2.26  11 2.26  24 2.26
  48  0.500  0.751  0.750-  20 2.26  15 2.26  12 2.26  23 2.26
  49  1.000  0.001  0.000-   8 2.27  11 2.28  14 2.28   1 2.28
  50  0.500  0.001  0.000-   7 2.27  12 2.28  13 2.28   2 2.28
  51  1.000  0.501  0.000-   6 2.27   9 2.28  16 2.28   3 2.28
  52  0.500  0.501  0.000-   5 2.27  10 2.28  15 2.28   4 2.28
  53  0.250  0.001  0.750-  23 2.27  11 2.28  13 2.28  17 2.28
  54  0.750  0.001  0.750-  24 2.27  12 2.28  14 2.28  18 2.28
  55  0.250  0.501  0.750-  21 2.27   9 2.28  15 2.28  19 2.28
  56  0.750  0.501  0.750-  22 2.27  10 2.28  16 2.28  20 2.28
  57  0.250  0.251  0.500-  17 2.27  25 2.28  29 2.28  21 2.28
  58  0.750  0.251  0.500-  18 2.27  26 2.28  30 2.28  22 2.28
  59  0.250  0.751  0.500-  19 2.27  27 2.28  31 2.28  23 2.28
  60  0.750  0.751  0.500-  20 2.27  28 2.28  32 2.28  24 2.28
  61  0.000  0.251  0.250-   1 2.27  26 2.28  29 2.28   6 2.28
  62  0.500  0.251  0.250-   2 2.27  25 2.28  30 2.28   5 2.28
  63  0.000  0.751  0.250-   3 2.27  28 2.28  31 2.28   8 2.28
  64  0.500  0.751  0.250-   4 2.27  27 2.28  32 2.28   7 2.28
 
  LATTYP: Found a simple monoclinic cell.
 ALAT       =    14.8744547894
 B/A-ratio  =     0.7070020481
 C/A-ratio  =     1.5747733662
 COS(beta)  =    -0.9493625161
  
  Lattice vectors:
  
 A1 = ( -10.5699610000,   0.0000000000, -10.4654350000)
 A2 = (   0.0000000000, -10.5162700000,   0.0000000000)
 A3 = (  10.6244690000,   0.0000000000,  20.8758120000)


Analysis of symmetry for initial positions (statically):
=====================================================================
 Subroutine PRICEL returns following result:
 
  LATTYP: Found a base centered monoclinic cell.
 ALAT       =    11.6136564160
 B/A-ratio  =     0.4527544825
 C/A-ratio  =     0.8964032796
 COS(beta)  =    -0.8122868241
  
  Lattice vectors:
  
 A1 = (  -2.6016092500,  -2.6290675000,   5.1914240000)
 A2 = (  -2.6016092500,   2.6290675000,   5.1914240000)
 A3 = (  -0.0545080000,   0.0000000000, -10.4103770000)
 
   8 primitive cells build up your supercell.
 

 Routine SETGRP: Setting up the symmetry group for a 
 simple monoclinic supercell.


 Subroutine GETGRP returns: Found  2 space group operations
 (whereof  1 operations were pure point group operations)
 out of a pool of  4 trial point group operations.


The static configuration has the point symmetry C_1 .
 The point group associated with its full space group is C_2 .


Analysis of symmetry for dynamics (positions and initial velocities):
=====================================================================
 Subroutine PRICEL returns following result:
 
  LATTYP: Found a base centered monoclinic cell.
 ALAT       =    11.6136564160
 B/A-ratio  =     0.4527544825
 C/A-ratio  =     0.8964032796
 COS(beta)  =    -0.8122868241
  
  Lattice vectors:
  
 A1 = (  -2.6016092500,  -2.6290675000,   5.1914240000)
 A2 = (  -2.6016092500,   2.6290675000,   5.1914240000)
 A3 = (  -0.0545080000,   0.0000000000, -10.4103770000)
 
   8 primitive cells build up your supercell.
 

 Routine SETGRP: Setting up the symmetry group for a 
 simple monoclinic supercell.


 Subroutine GETGRP returns: Found  2 space group operations
 (whereof  1 operations were pure point group operations)
 out of a pool of  4 trial point group operations.


The dynamic configuration has the point symmetry C_1 .
 The point group associated with its full space group is C_2 .


Analysis of structural, dynamic, and magnetic symmetry:
=====================================================================
 Subroutine PRICEL returns following result:
 
  LATTYP: Found a base centered monoclinic cell.
 ALAT       =    11.6136564160
 B/A-ratio  =     0.4527544825
 C/A-ratio  =     0.8964032796
 COS(beta)  =    -0.8122868241
  
  Lattice vectors:
  
 A1 = (  -2.6016092500,  -2.6290675000,   5.1914240000)
 A2 = (  -2.6016092500,   2.6290675000,   5.1914240000)
 A3 = (  -0.0545080000,   0.0000000000, -10.4103770000)
 
   8 primitive cells build up your supercell.
 

 Routine SETGRP: Setting up the symmetry group for a 
 simple monoclinic supercell.


 Subroutine GETGRP returns: Found  2 space group operations
 (whereof  1 operations were pure point group operations)
 out of a pool of  4 trial point group operations.


The magnetic configuration has the point symmetry C_1 .
 The point group associated with its full space group is C_2 .


 Subroutine INISYM returns: Found  2 space group operations
 (whereof  1 operations are pure point group operations),
 and found     8 'primitive' translations

 
 
 KPOINTS: Automatic mesh                          

Automatic generation of k-mesh.
Space group operators:
 irot       det(A)        alpha          n_x          n_y          n_z        tau_x        tau_y        tau_z
    1     1.000000     0.000000     1.000000     0.000000     0.000000     0.000000     0.000000     0.000000
    2     1.000000   180.000000     0.000000     1.000000     0.000000    -0.250000     0.000000    -0.250000
 
 Subroutine IBZKPT returns following result:
 ===========================================
 
 Found      8 irreducible k-points:
 
 Following reciprocal coordinates:
            Coordinates               Weight
  0.000000  0.000000  0.000000      1.000000
  0.500000  0.000000  0.000000      1.000000
  0.000000  0.500000  0.000000      1.000000
  0.500000  0.500000  0.000000      1.000000
  0.000000  0.000000  0.500000      1.000000
  0.500000  0.000000  0.500000      1.000000
  0.000000  0.500000  0.500000      1.000000
  0.500000  0.500000  0.500000      1.000000
 
 Following cartesian coordinates:
            Coordinates               Weight
  0.000000  0.000000  0.000000      1.000000
  0.047550  0.000000 -0.000249      1.000000
  0.000000  0.047545  0.000000      1.000000
  0.047550  0.047545 -0.000249      1.000000
 -0.000251  0.000000  0.048030      1.000000
  0.047299  0.000000  0.047781      1.000000
 -0.000251  0.047545  0.048030      1.000000
  0.047299  0.047545  0.047781      1.000000
 
 TETIRR: Found     24 inequivalent tetrahedra from       48
 
 Subroutine IBZKPT_HF returns following result:
 ==============================================
 
 Found      8 k-points in 1st BZ
 the following      8 k-points will be used (e.g. in the exchange kernel)
 Following reciprocal coordinates:   # in IRBZ
  0.000000  0.000000  0.000000    0.12500000   1 t-inv F
  0.500000  0.000000  0.000000    0.12500000   2 t-inv F
  0.000000  0.500000  0.000000    0.12500000   3 t-inv F
  0.500000  0.500000  0.000000    0.12500000   4 t-inv F
  0.000000  0.000000  0.500000    0.12500000   5 t-inv F
  0.500000  0.000000  0.500000    0.12500000   6 t-inv F
  0.000000  0.500000  0.500000    0.12500000   7 t-inv F
  0.500000  0.500000  0.500000    0.12500000   8 t-inv F


--------------------------------------------------------------------------------------------------------




 Dimension of arrays:
   k-points           NKPTS =      8   k-points in BZ     NKDIM =      8   number of bands    NBANDS=    512
   number of dos      NEDOS =    301   number of ions     NIONS =     64
   non local maximal  LDIM  =      6   non local SUM 2l+1 LMDIM =     18
   total plane-waves  NPLWV = 829440
   max r-space proj   IRMAX =      1   max aug-charges    IRDMAX=  22897
   dimension x,y,z NGX =    96 NGY =   96 NGZ =   90
   dimension x,y,z NGXF=   192 NGYF=  192 NGZF=  180
   support grid    NGXF=   192 NGYF=  192 NGZF=  180
   ions per type =              32  16  16
   NGX,Y,Z   is equivalent  to a cutoff of  15.18, 15.18, 14.37 a.u.
   NGXF,Y,Z  is equivalent  to a cutoff of  30.35, 30.35, 28.74 a.u.

 SYSTEM =  CuFeS2                                  
 POSCAR =  Fe16 Cu16 S32                           

 Startparameter for this run:
   NWRITE =      2    write-flag & timer
   PREC   = accura    normal or accurate (medium, high low for compatibility)
   ISTART =      0    job   : 0-new  1-cont  2-samecut
   ICHARG =      1    charge: 1-file 2-atom 10-const
   ISPIN  =      2    spin polarized calculation?
   LNONCOLLINEAR =      F non collinear calculations
   LSORBIT =      F    spin-orbit coupling
   INIWAV =      1    electr: 0-lowe 1-rand  2-diag
   LASPH  =      F    aspherical Exc in radial PAW
   METAGGA=      F    non-selfconsistent MetaGGA calc.

 Electronic Relaxation 1
   ENCUT  =  700.0 eV  51.45 Ry    7.17 a.u.  22.69 22.69 22.46*2*pi/ulx,y,z
   ENINI  =  700.0     initial cutoff
   ENAUG  =  758.2 eV  augmentation charge cutoff
   NELM   =    500;   NELMIN=  2; NELMDL= -5     # of ELM steps 
   EDIFF  = 0.1E-07   stopping-criterion for ELM
   LREAL  =      F    real-space projection
   NLSPLINE    = F    spline interpolate recip. space projectors
   LCOMPAT=      F    compatible to vasp.4.4
   GGA_COMPAT  = T    GGA compatible to vasp.4.4-vasp.4.6
   LMAXPAW     = -100 max onsite density
   LMAXMIX     =    4 max onsite mixed and CHGCAR
   VOSKOWN=      0    Vosko Wilk Nusair interpolation
   ROPT   =    0.00000   0.00000   0.00000
 Ionic relaxation
   EDIFFG = -.1E-04   stopping-criterion for IOM
   NSW    =      0    number of steps for IOM
   NBLOCK =      1;   KBLOCK =      1    inner block; outer block 
   IBRION =     -1    ionic relax: 0-MD 1-quasi-New 2-CG
   NFREE  =      0    steps in history (QN), initial steepest desc. (CG)
   ISIF   =      2    stress and relaxation
   IWAVPR =     10    prediction:  0-non 1-charg 2-wave 3-comb
   ISYM   =      2    0-nonsym 1-usesym 2-fastsym
   LCORR  =      T    Harris-Foulkes like correction to forces

   POTIM  = 0.5000    time-step for ionic-motion
   TEIN   =    0.0    initial temperature
   TEBEG  =    0.0;   TEEND  =   0.0 temperature during run
   SMASS  =  -3.00    Nose mass-parameter (am)
   estimated Nose-frequenzy (Omega)   =  0.10E-29 period in steps =****** mass=  -0.253E-26a.u.
   SCALEE = 1.0000    scale energy and forces
   NPACO  =    256;   APACO  = 16.0  distance and # of slots for P.C.
   PSTRESS=    0.0 pullay stress

  Mass of Ions in am
   POMASS =  32.07 63.55 55.85
  Ionic Valenz
   ZVAL   =   6.00 17.00 14.00
  Atomic Wigner-Seitz radii
   RWIGS  =  -1.00 -1.00 -1.00
  virtual crystal weights 
   VCA    =   1.00  1.00  1.00
   NELECT =     688.0000    total number of electrons
   NUPDOWN=      -1.0000    fix difference up-down

 DOS related values:
   EMIN   =  10.00;   EMAX   =-10.00  energy-range for DOS
   EFERMI =   0.00
   ISMEAR =    -5;   SIGMA  =   0.03  broadening in eV -4-tet -1-fermi 0-gaus

 Electronic relaxation 2 (details)
   IALGO  =     38    algorithm
   LDIAG  =      T    sub-space diagonalisation (order eigenvalues)
   LSUBROT=      F    optimize rotation matrix (better conditioning)
   TURBO    =      0    0=normal 1=particle mesh
   IRESTART =      0    0=no restart 2=restart with 2 vectors
   NREBOOT  =      0    no. of reboots
   NMIN     =      0    reboot dimension
   EREF     =   0.00    reference energy to select bands
   IMIX   =      4    mixing-type and parameters
     AMIX     =   0.40;   BMIX     =  1.00
     AMIX_MAG =   1.60;   BMIX_MAG =  1.00
     AMIN     =   0.10
     WC   =   100.;   INIMIX=   1;  MIXPRE=   1;  MAXMIX= -45

 Intra band minimization:
   WEIMIN = 0.0000     energy-eigenvalue tresh-hold
   EBREAK =  0.49E-11  absolut break condition
   DEPER  =   0.30     relativ break condition  

   TIME   =   0.40     timestep for ELM

  volume/ion in A,a.u.               =      17.99       121.38
  Fermi-wavevector in a.u.,A,eV,Ry     =   1.378974  2.605884 25.872438  1.901571
  Thomas-Fermi vector in A             =   2.503987
 
 Write flags
   LWAVE        =      T    write WAVECAR
   LDOWNSAMPLE  =      F    k-point downsampling of WAVECAR
   LCHARG       =      T    write CHGCAR
   LVTOT        =      F    write LOCPOT, total local potential
   LVHAR        =      F    write LOCPOT, Hartree potential only
   LELF         =      F    write electronic localiz. function (ELF)
   LORBIT       =     11    0 simple, 1 ext, 2 COOP (PROOUT), +10 PAW based schemes


 Dipole corrections
   LMONO  =      F    monopole corrections only (constant potential shift)
   LDIPOL =      F    correct potential (dipole corrections)
   IDIPOL =      0    1-x, 2-y, 3-z, 4-all directions 
   EPSILON=  1.0000000 bulk dielectric constant

 LDA+U is selected, type is set to LDAUTYPE =  2
   angular momentum for each species LDAUL =     2    2    2
   U (eV)           for each species LDAUU =   0.0  0.1  4.7
   J (eV)           for each species LDAUJ =   0.0  0.0  0.0
 Exchange correlation treatment:
   GGA     =    PS    GGA type
   LEXCH   =    14    internal setting for exchange type
   VOSKOWN=      0    Vosko Wilk Nusair interpolation
   LHFCALC =     F    Hartree Fock is set to
   LHFONE  =     F    Hartree Fock one center treatment
   AEXX    =    0.0000 exact exchange contribution

 Linear response parameters
   LEPSILON=     F    determine dielectric tensor
   LRPA    =     F    only Hartree local field effects (RPA)
   LNABLA  =     F    use nabla operator in PAW spheres
   LVEL    =     F    velocity operator in full k-point grid
   LINTERFAST=   F  fast interpolation
   KINTER  =     0    interpolate to denser k-point grid
   CSHIFT  =0.1000    complex shift for real part using Kramers Kronig
   OMEGAMAX=  -1.0    maximum frequency
   DEG_THRESHOLD= 0.2000000E-02 threshold for treating states as degnerate
   RTIME   =   -0.100 relaxation time in fs
  (WPLASMAI=    0.000 imaginary part of plasma frequency in eV, 0.658/RTIME)
   DFIELD  = 0.0000000 0.0000000 0.0000000 field for delta impulse in time
 
 Orbital magnetization related:
   ORBITALMAG=     F  switch on orbital magnetization
   LCHIMAG   =     F  perturbation theory with respect to B field
   DQ        =  0.001000  dq finite difference perturbation B field
   LLRAUG    =     F  two centre corrections for induced B field

 PEAD related settings:
   LPEAD      =     T    switch on PEAD
   IPEAD      =     4    finite difference order for dpsi/dk
   LCALCPOL   =     T    calculate macroscopic polarization
   LCALCEPS   =     F    calculate dielectric tensor
   EFIELD_PEAD=    0.0000    0.0000    0.0000
   SKIP_EDOTP =     F
   LRPA       =     F
   SKIP_SCF   =     F


--------------------------------------------------------------------------------------------------------


 Static calculation
 charge density and potential will be updated during run
 spin polarized calculation
 Variant of blocked Davidson
 Davidson routine will perform the subspace rotation
 perform sub-space diagonalisation
    after iterative eigenvector-optimisation
 modified Broyden-mixing scheme, WC =      100.0
 initial mixing is a Kerker type mixing with AMIX =  0.4000 and BMIX =      1.0000
 Hartree-type preconditioning will be used
 using additional bands          168
 reciprocal scheme for non local part
 use partial core corrections
 calculate Harris-corrections to forces 
   (improved forces if not selfconsistent)
 use gradient corrections 
 use of overlap-Matrix (Vanderbilt PP)
 Fermi weights with tetrahedron method with Bloechl corrections


--------------------------------------------------------------------------------------------------------


  energy-cutoff  :      700.00
  volume of cell :     1151.18
      direct lattice vectors                 reciprocal lattice vectors
    10.515453000  0.000000000  0.055058000     0.095100745  0.000000000 -0.000497941
     0.000000000 10.516270000  0.000000000     0.000000000  0.095090750  0.000000000
     0.054508000  0.000000000 10.410377000    -0.000502965  0.000000000  0.096060634

  length of vectors
    10.515597138 10.516270000 10.410519699     0.095102049  0.095090750  0.096061951


 
 k-points in units of 2pi/SCALE and weight: Automatic mesh                          
   0.00000000  0.00000000  0.00000000       0.125
   0.04755037  0.00000000 -0.00024897       0.125
   0.00000000  0.04754537  0.00000000       0.125
   0.04755037  0.04754537 -0.00024897       0.125
  -0.00025148  0.00000000  0.04803032       0.125
   0.04729889  0.00000000  0.04778135       0.125
  -0.00025148  0.04754537  0.04803032       0.125
   0.04729889  0.04754537  0.04778135       0.125
 
 k-points in reciprocal lattice and weights: Automatic mesh                          
   0.00000000  0.00000000  0.00000000       0.125
   0.50000000  0.00000000  0.00000000       0.125
   0.00000000  0.50000000  0.00000000       0.125
   0.50000000  0.50000000  0.00000000       0.125
   0.00000000  0.00000000  0.50000000       0.125
   0.50000000  0.00000000  0.50000000       0.125
   0.00000000  0.50000000  0.50000000       0.125
   0.50000000  0.50000000  0.50000000       0.125
 
 position of ions in fractional coordinates (direct lattice) 
   0.12616300  0.12435100  0.12510500
   0.62616300  0.12435100  0.12510500
   0.12616300  0.62435100  0.12510500
   0.62616300  0.62435100  0.12510500
   0.37383700  0.37435100  0.12489500
   0.87383700  0.37435100  0.12489500
   0.37383700  0.87435100  0.12489500
   0.87383700  0.87435100  0.12489500
   0.12500000  0.37338600  0.87500000
   0.62500000  0.37338600  0.87500000
   0.12500000  0.87338600  0.87500000
   0.62500000  0.87338600  0.87500000
   0.37500000  0.12568100  0.87500000
   0.87500000  0.12568100  0.87500000
   0.37500000  0.62568100  0.87500000
   0.87500000  0.62568100  0.87500000
   0.12383700  0.12435100  0.62489500
   0.62383700  0.12435100  0.62489500
   0.12383700  0.62435100  0.62489500
   0.62383700  0.62435100  0.62489500
   0.37616300  0.37435100  0.62510500
   0.87616300  0.37435100  0.62510500
   0.37616300  0.87435100  0.62510500
   0.87616300  0.87435100  0.62510500
   0.37500000  0.12338600  0.37500000
   0.87500000  0.12338600  0.37500000
   0.37500000  0.62338600  0.37500000
   0.87500000  0.62338600  0.37500000
   0.12500000  0.37568100  0.37500000
   0.62500000  0.37568100  0.37500000
   0.12500000  0.87568100  0.37500000
   0.62500000  0.87568100  0.37500000
   0.99981100  0.00057000  0.50000100
   0.49981100  0.00057000  0.50000100
   0.99981100  0.50057000  0.50000100
   0.49981100  0.50057000  0.50000100
   0.25018900  0.00057000  0.24999900
   0.75018900  0.00057000  0.24999900
   0.25018900  0.50057000  0.24999900
   0.75018900  0.50057000  0.24999900
   0.24981100  0.25057000  0.00000100
   0.74981100  0.25057000  0.00000100
   0.24981100  0.75057000  0.00000100
   0.74981100  0.75057000  0.00000100
   0.00018900  0.25057000  0.74999900
   0.50018900  0.25057000  0.74999900
   0.00018900  0.75057000  0.74999900
   0.50018900  0.75057000  0.74999900
   0.99990600  0.00054600  0.00001700
   0.49990600  0.00054600  0.00001700
   0.99990600  0.50054600  0.00001700
   0.49990600  0.50054600  0.00001700
   0.25009400  0.00054600  0.74998300
   0.75009400  0.00054600  0.74998300
   0.25009400  0.50054600  0.74998300
   0.75009400  0.50054600  0.74998300
   0.24990600  0.25054600  0.50001700
   0.74990600  0.25054600  0.50001700
   0.24990600  0.75054600  0.50001700
   0.74990600  0.75054600  0.50001700
   0.00009400  0.25054600  0.24998300
   0.50009400  0.25054600  0.24998300
   0.00009400  0.75054600  0.24998300
   0.50009400  0.75054600  0.24998300
 
 position of ions in cartesian coordinates  (Angst):
   1.33348032  1.30770869  1.30933650
   6.59120682  1.30770869  1.33686550
   1.33348032  6.56584369  1.30933650
   6.59120682  6.56584369  1.33686550
   3.93787318  3.93677619  1.32078675
   9.19559968  3.93677619  1.34831575
   3.93787318  9.19491119  1.32078675
   9.19559968  9.19491119  1.34831575
   1.36212613  3.92662799  9.11596213
   6.61985263  3.92662799  9.14349113
   1.36212613  9.18476299  9.11596213
   6.61985263  9.18476299  9.14349113
   3.99098938  1.32169533  9.12972662
   9.24871588  1.32169533  9.15725563
   3.99098938  6.57983033  9.12972662
   9.24871588  6.57983033  9.15725563
   1.33626393  1.30770869  6.51221075
   6.59399043  1.30770869  6.53973975
   1.33626393  6.56584369  6.51221075
   6.59399043  6.56584369  6.53973975
   3.98959757  3.93677619  6.52828950
   9.24732407  3.93677619  6.55581850
   3.98959757  9.19491119  6.52828950
   9.24732407  9.19491119  6.55581850
   3.96373538  1.29756049  3.92453813
   9.22146187  1.29756049  3.95206713
   3.96373538  6.55569549  3.92453813
   9.22146187  6.55569549  3.95206713
   1.33487213  3.95076283  3.91077363
   6.59259863  3.95076283  3.93830263
   1.33487213  9.20889783  3.91077363
   6.59259863  9.20889783  3.93830263
  10.54071963  0.00599427  5.26024650
   5.28299313  0.00599427  5.23271750
  10.54071963  5.26412927  5.26024650
   5.28299313  5.26412927  5.23271750
   2.64447762  0.00599427  2.61635875
   7.90220412  0.00599427  2.64388775
   2.64447762  5.26412927  2.61635875
   7.90220412  5.26412927  2.64388775
   2.62687588  2.63506177  0.01376450
   7.88460238  2.63506177  0.04129350
   2.62687588  7.89319677  0.01376450
   7.88460238  7.89319677  0.04129350
   0.04286837  2.63506177  7.80778275
   5.30059487  2.63506177  7.83531175
   0.04286837  7.89319677  7.80778275
   5.30059487  7.89319677  7.83531175
  10.51446547  0.00574188  0.05522980
   5.25673897  0.00574188  0.02770080
  10.51446547  5.26387688  0.05522980
   5.25673897  5.26387688  0.02770080
   2.67073178  0.00574188  7.82137545
   7.92845828  0.00574188  7.84890445
   2.67073178  5.26387688  7.82137545
   7.92845828  5.26387688  7.84890445
   2.65512972  2.63480938  5.21912480
   7.91285622  2.63480938  5.24665380
   2.65512972  7.89294438  5.21912480
   7.91285622  7.89294438  5.24665380
   0.01461453  2.63480938  2.60242245
   5.27234103  2.63480938  2.62995145
   0.01461453  7.89294438  2.60242245
   5.27234103  7.89294438  2.62995145
 


--------------------------------------------------------------------------------------------------------


 k-point  1 :   0.0000 0.0000 0.0000  plane waves:   48403
 k-point  2 :   0.5000 0.0000 0.0000  plane waves:   48466
 k-point  3 :   0.0000 0.5000 0.0000  plane waves:   48450
 k-point  4 :   0.5000 0.5000 0.0000  plane waves:   48408
 k-point  5 :   0.0000 0.0000 0.5000  plane waves:   48426
 k-point  6 :   0.5000 0.0000 0.5000  plane waves:   48386
 k-point  7 :   0.0000 0.5000 0.5000  plane waves:   48364
 k-point  8 :   0.5000 0.5000 0.5000  plane waves:   48376

 maximum and minimum number of plane-waves per node :     48466    48364

 maximum number of plane-waves:     48466
 maximum index in each direction: 
   IXMAX=   22   IYMAX=   22   IZMAX=   22
   IXMIN=  -23   IYMIN=  -23   IZMIN=  -22


 serial   3D FFT for wavefunctions
 parallel 3D FFT for charge:
    minimum data exchange during FFTs selected (reduces bandwidth)


 total amount of memory used by VASP MPI-rank0   349631. kBytes
=======================================================================

   base      :      30000. kBytes
   nonl-proj :     217907. kBytes
   fftplans  :       4588. kBytes
   grid      :      69719. kBytes
   one-center:       1990. kBytes
   wavefun   :      25427. kBytes
 
     INWAV:  cpu time    0.0000: real time    0.0000
 Broyden mixing: mesh for mixing (old mesh)
   NGX = 45   NGY = 45   NGZ = 45
  (NGX  =192   NGY  =192   NGZ  =180)
  gives a total of  91125 points

 initial charge density was supplied:
 number of electron     688.0000287 magnetization       0.0000000
 keeping initial charge density in first step


--------------------------------------------------------------------------------------------------------


 Maximum index for augmentation-charges          895 (set IRDMAX)


--------------------------------------------------------------------------------------------------------


 First call to EWALD:  gamma=   0.169
 Maximum number of real-space cells 3x 3x 3
 Maximum number of reciprocal cells 3x 3x 3

    FEWALD:  cpu time    0.0026: real time    0.0026


--------------------------------------- Iteration      1(   1)  ---------------------------------------


    POTLOK:  cpu time    0.3140: real time    0.3616
    SETDIJ:  cpu time    0.0146: real time    0.0148
     EDDAV:  cpu time   83.9169: real time   84.6406
 BZINTS: Fermi energy: 14.949440;688.000000 electrons
         Band energy:***********;  BLOECHL correction: -0.028984
       DOS:  cpu time    0.0400: real time    0.0402
    --------------------------------------------
      LOOP:  cpu time   84.2855: real time   85.0571

 eigenvalue-minimisations  : 16384
 total energy-change (2. order) : 0.6049657E+04  (-0.5158499E+05)
 number of electron     688.0000287 magnetization       0.0000000
 augmentation part      688.0000287 magnetization       0.0000000

 Free energy of the ion-electron system (eV)
  ---------------------------------------------------
  alpha Z        PSCENC =      2355.10008605
  Ewald energy   TEWEN  =    -62458.35047846
  -Hartree energ DENC   =    -42945.33990002
  -exchange      EXHF   =         0.00000000
  -V(xc)+E(xc)   XCENC  =      3286.08346687
  PAW double counting   =    112259.81449706  -115953.62387450
  entropy T*S    EENTRO =         0.00000000
  eigenvalues    EBANDS =     -4514.09232305
  atomic energy  EATOM  =    114020.06510763
  Solvation  Ediel_sol  =         0.00000000
  ---------------------------------------------------
  free energy    TOTEN  =      6049.65658157 eV

  energy without entropy =     6049.65658157  energy(sigma->0) =     6049.65658157


--------------------------------------------------------------------------------------------------------




--------------------------------------- Iteration      1(   2)  ---------------------------------------


     EDDAV:  cpu time  104.2554: real time  105.0321
 BZINTS: Fermi energy:  5.505610;688.000000 electrons
         Band energy:***********;  BLOECHL correction:  0.000000
       DOS:  cpu time    0.0065: real time    0.0066
    --------------------------------------------
      LOOP:  cpu time  104.2619: real time  105.0386

 eigenvalue-minimisations  : 18688
 total energy-change (2. order) :-0.6135978E+04  (-0.6026176E+04)
 number of electron     688.0000287 magnetization       0.0000000
 augmentation part      688.0000287 magnetization       0.0000000

 Free energy of the ion-electron system (eV)
  ---------------------------------------------------
  alpha Z        PSCENC =      2355.10008605
  Ewald energy   TEWEN  =    -62458.35047846
  -Hartree energ DENC   =    -42945.33990002
  -exchange      EXHF   =         0.00000000
  -V(xc)+E(xc)   XCENC  =      3286.08346687
  PAW double counting   =    112259.81449706  -115953.62387450
  entropy T*S    EENTRO =         0.00000000
  eigenvalues    EBANDS =    -10650.07058426
  atomic energy  EATOM  =    114020.06510763
  Solvation  Ediel_sol  =         0.00000000
  ---------------------------------------------------
  free energy    TOTEN  =       -86.32167964 eV

  energy without entropy =      -86.32167964  energy(sigma->0) =      -86.32167964


--------------------------------------------------------------------------------------------------------




--------------------------------------- Iteration      1(   3)  ---------------------------------------


     EDDAV:  cpu time  147.2934: real time  148.3215
 BZINTS: Fermi energy:  4.967906;688.000000 electrons
         Band energy:***********;  BLOECHL correction:  0.000000
       DOS:  cpu time    0.0066: real time    0.0066
    --------------------------------------------
      LOOP:  cpu time  147.3000: real time  148.3281

 eigenvalue-minimisations  : 22272
 total energy-change (2. order) :-0.2410222E+03  (-0.2402699E+03)
 number of electron     688.0000287 magnetization       0.0000000
 augmentation part      688.0000287 magnetization       0.0000000

 Free energy of the ion-electron system (eV)
  ---------------------------------------------------
  alpha Z        PSCENC =      2355.10008605
  Ewald energy   TEWEN  =    -62458.35047846
  -Hartree energ DENC   =    -42945.33990002
  -exchange      EXHF   =         0.00000000
  -V(xc)+E(xc)   XCENC  =      3286.08346687
  PAW double counting   =    112259.81449706  -115953.62387450
  entropy T*S    EENTRO =         0.00000000
  eigenvalues    EBANDS =    -10891.09282243
  atomic energy  EATOM  =    114020.06510763
  Solvation  Ediel_sol  =         0.00000000
  ---------------------------------------------------
  free energy    TOTEN  =      -327.34391781 eV

  energy without entropy =     -327.34391781  energy(sigma->0) =     -327.34391781


--------------------------------------------------------------------------------------------------------




--------------------------------------- Iteration      1(   4)  ---------------------------------------


     EDDAV:  cpu time  123.8261: real time  124.7186
 BZINTS: Fermi energy:  4.891795;688.000000 electrons
         Band energy:***********;  BLOECHL correction:  0.000000
       DOS:  cpu time    0.0055: real time    0.0055
    --------------------------------------------
      LOOP:  cpu time  123.8316: real time  124.7241

 eigenvalue-minimisations  : 19968
 total energy-change (2. order) :-0.3341714E+01  (-0.3341594E+01)
 number of electron     688.0000287 magnetization       0.0000000
 augmentation part      688.0000287 magnetization       0.0000000

 Free energy of the ion-electron system (eV)
  ---------------------------------------------------
  alpha Z        PSCENC =      2355.10008605
  Ewald energy   TEWEN  =    -62458.35047846
  -Hartree energ DENC   =    -42945.33990002
  -exchange      EXHF   =         0.00000000
  -V(xc)+E(xc)   XCENC  =      3286.08346687
  PAW double counting   =    112259.81449706  -115953.62387450
  entropy T*S    EENTRO =         0.00000000
  eigenvalues    EBANDS =    -10894.43453644
  atomic energy  EATOM  =    114020.06510763
  Solvation  Ediel_sol  =         0.00000000
  ---------------------------------------------------
  free energy    TOTEN  =      -330.68563182 eV

  energy without entropy =     -330.68563182  energy(sigma->0) =     -330.68563182


--------------------------------------------------------------------------------------------------------




--------------------------------------- Iteration      1(   5)  ---------------------------------------


     EDDAV:  cpu time  146.6199: real time  147.6302
 BZINTS: Fermi energy:  4.825910;688.000000 electrons
         Band energy:***********;  BLOECHL correction:  0.000000
       DOS:  cpu time    0.0054: real time    0.0055
    CHARGE:  cpu time    1.3862: real time    1.3958
    MIXING:  cpu time    0.0041: real time    0.0041
    --------------------------------------------
      LOOP:  cpu time  148.0157: real time  149.0356

 eigenvalue-minimisations  : 21760
 total energy-change (2. order) :-0.1040907E+00  (-0.1040901E+00)
 number of electron     688.0000451 magnetization       0.0000000
 augmentation part      282.4481325 magnetization       0.0000000

 Broyden mixing:
  rms(total) = 0.12336E+01    rms(broyden)= 0.12334E+01
  rms(prec ) = 0.13864E+01
  weight for this iteration     100.00

 Free energy of the ion-electron system (eV)
  ---------------------------------------------------
  alpha Z        PSCENC =      2355.10008605
  Ewald energy   TEWEN  =    -62458.35047846
  -Hartree energ DENC   =    -42945.33990002
  -exchange      EXHF   =         0.00000000
  -V(xc)+E(xc)   XCENC  =      3286.08346687
  PAW double counting   =    112259.81449706  -115953.62387450
  entropy T*S    EENTRO =         0.00000000
  eigenvalues    EBANDS =    -10894.53862710
  atomic energy  EATOM  =    114020.06510763
  Solvation  Ediel_sol  =         0.00000000
  ---------------------------------------------------
  free energy    TOTEN  =      -330.78972249 eV

  energy without entropy =     -330.78972249  energy(sigma->0) =     -330.78972249


--------------------------------------------------------------------------------------------------------




--------------------------------------- Iteration      1(   6)  ---------------------------------------


    POTLOK:  cpu time    0.1244: real time    0.1263
    SETDIJ:  cpu time    0.0127: real time    0.0128
     EDDAV:  cpu time  147.6876: real time  148.7218
 BZINTS: Fermi energy:  4.820902;688.000000 electrons
         Band energy:***********;  BLOECHL correction:  0.000000
       DOS:  cpu time    0.0054: real time    0.0054
    CHARGE:  cpu time    1.3898: real time    1.3984
    MIXING:  cpu time    0.0026: real time    0.1539
    --------------------------------------------
      LOOP:  cpu time  149.2225: real time  150.4186

 eigenvalue-minimisations  : 22528
 total energy-change (2. order) : 0.2028493E+01  (-0.1474081E+00)
 number of electron     688.0000451 magnetization       0.0000000
 augmentation part      282.0761695 magnetization       0.0000000

 Broyden mixing:
  rms(total) = 0.65150E+00    rms(broyden)= 0.65148E+00
  rms(prec ) = 0.73240E+00
  weight for this iteration     100.00

 eigenvalues of (default mixing * dielectric matrix)
  average eigenvalue GAMMA=   0.9473
  0.9473

 Free energy of the ion-electron system (eV)
  ---------------------------------------------------
  alpha Z        PSCENC =      2355.10008605
  Ewald energy   TEWEN  =    -62458.35047846
  -Hartree energ DENC   =    -42965.90282403
  -exchange      EXHF   =         0.00000000
  -V(xc)+E(xc)   XCENC  =      3286.57957690
  PAW double counting   =    112493.11836253  -116189.67977009
  entropy T*S    EENTRO =         0.00000000
  eigenvalues    EBANDS =    -10869.69128994
  atomic energy  EATOM  =    114020.06510763
  Solvation  Ediel_sol  =         0.00000000
  ---------------------------------------------------
  free energy    TOTEN  =      -328.76122943 eV

  energy without entropy =     -328.76122943  energy(sigma->0) =     -328.76122943


--------------------------------------------------------------------------------------------------------




--------------------------------------- Iteration      1(   7)  ---------------------------------------


    POTLOK:  cpu time    0.1292: real time    0.1308
    SETDIJ:  cpu time    0.0128: real time    0.0129
     EDDAV:  cpu time  182.1868: real time  183.4141
 BZINTS: Fermi energy:  4.831637;688.000000 electrons
         Band energy:***********;  BLOECHL correction:  0.000000
       DOS:  cpu time    0.0055: real time    0.0055
    CHARGE:  cpu time    1.3853: real time    1.3953
    MIXING:  cpu time    0.0016: real time    0.0034
    --------------------------------------------
      LOOP:  cpu time  183.7212: real time  184.9619

 eigenvalue-minimisations  : 26112
 total energy-change (2. order) : 0.6274981E+00  (-0.1438586E+00)
 number of electron     688.0000452 magnetization       0.0000000
 augmentation part      282.3837751 magnetization       0.0000000

 Broyden mixing:
  rms(total) = 0.36876E+00    rms(broyden)= 0.36875E+00
  rms(prec ) = 0.38759E+00
  weight for this iteration     100.00

 eigenvalues of (default mixing * dielectric matrix)
  average eigenvalue GAMMA=   1.1165
  1.6161  0.6170

 Free energy of the ion-electron system (eV)
  ---------------------------------------------------
  alpha Z        PSCENC =      2355.10008605
  Ewald energy   TEWEN  =    -62458.35047846
  -Hartree energ DENC   =    -42950.79764730
  -exchange      EXHF   =         0.00000000
  -V(xc)+E(xc)   XCENC  =      3286.43078847
  PAW double counting   =    112446.64723894  -116139.16004190
  entropy T*S    EENTRO =         0.00000000
  eigenvalues    EBANDS =    -10888.06878471
  atomic energy  EATOM  =    114020.06510763
  Solvation  Ediel_sol  =         0.00000000
  ---------------------------------------------------
  free energy    TOTEN  =      -328.13373129 eV

  energy without entropy =     -328.13373129  energy(sigma->0) =     -328.13373129


--------------------------------------------------------------------------------------------------------




--------------------------------------- Iteration      1(   8)  ---------------------------------------


    POTLOK:  cpu time    0.1215: real time    0.1253
    SETDIJ:  cpu time    0.0127: real time    0.0128
     EDDAV:  cpu time  150.4426: real time  151.4845
 BZINTS: Fermi energy:  4.824021;688.000000 electrons
         Band energy:***********;  BLOECHL correction:  0.000000
       DOS:  cpu time    0.0055: real time    0.0055
    CHARGE:  cpu time    1.4287: real time    1.4376
    MIXING:  cpu time    0.0013: real time    0.0013
    --------------------------------------------
      LOOP:  cpu time  152.0123: real time  153.0671

 eigenvalue-minimisations  : 22528
 total energy-change (2. order) : 0.2453238E-01  (-0.3294154E-01)
 number of electron     688.0000452 magnetization       0.0000000
 augmentation part      282.2392267 magnetization       0.0000000

 Broyden mixing:
  rms(total) = 0.19162E+00    rms(broyden)= 0.19161E+00
  rms(prec ) = 0.20088E+00
  weight for this iteration     100.00

 eigenvalues of (default mixing * dielectric matrix)
  average eigenvalue GAMMA=   1.0368
  1.9109  0.7051  0.4945

 Free energy of the ion-electron system (eV)
  ---------------------------------------------------
  alpha Z        PSCENC =      2355.10008605
  Ewald energy   TEWEN  =    -62458.35047846
  -Hartree energ DENC   =    -42956.85818542
  -exchange      EXHF   =         0.00000000
  -V(xc)+E(xc)   XCENC  =      3286.38765408
  PAW double counting   =    112393.02929119  -116087.39511412
  entropy T*S    EENTRO =         0.00000000
  eigenvalues    EBANDS =    -10880.08755985
  atomic energy  EATOM  =    114020.06510763
  Solvation  Ediel_sol  =         0.00000000
  ---------------------------------------------------
  free energy    TOTEN  =      -328.10919890 eV

  energy without entropy =     -328.10919890  energy(sigma->0) =     -328.10919890


--------------------------------------------------------------------------------------------------------




--------------------------------------- Iteration      1(   9)  ---------------------------------------


    POTLOK:  cpu time    0.1240: real time    0.1250
    SETDIJ:  cpu time    0.0126: real time    0.0127
     EDDAV:  cpu time  169.1859: real time  170.3176
 BZINTS: Fermi energy:  4.822427;688.000000 electrons
         Band energy:***********;  BLOECHL correction:  0.000000
       DOS:  cpu time    0.0055: real time    0.0055
    CHARGE:  cpu time    1.3859: real time    1.3944
    MIXING:  cpu time    0.0014: real time    0.0014
    --------------------------------------------
      LOOP:  cpu time  170.7153: real time  171.8566

 eigenvalue-minimisations  : 23552
 total energy-change (2. order) : 0.1774862E-03  (-0.9680880E-02)
 number of electron     688.0000452 magnetization       0.0000000
 augmentation part      282.2048433 magnetization       0.0000000

 Broyden mixing:
  rms(total) = 0.10454E+00    rms(broyden)= 0.10454E+00
  rms(prec ) = 0.11297E+00
  weight for this iteration     100.00

 eigenvalues of (default mixing * dielectric matrix)
  average eigenvalue GAMMA=   1.0296
  1.8749  1.1039  0.6837  0.4558

 Free energy of the ion-electron system (eV)
  ---------------------------------------------------
  alpha Z        PSCENC =      2355.10008605
  Ewald energy   TEWEN  =    -62458.35047846
  -Hartree energ DENC   =    -42962.02800293
  -exchange      EXHF   =         0.00000000
  -V(xc)+E(xc)   XCENC  =      3286.60680217
  PAW double counting   =    112370.38829694  -116064.84399512
  entropy T*S    EENTRO =         0.00000000
  eigenvalues    EBANDS =    -10875.04683768
  atomic energy  EATOM  =    114020.06510763
  Solvation  Ediel_sol  =         0.00000000
  ---------------------------------------------------
  free energy    TOTEN  =      -328.10902142 eV

  energy without entropy =     -328.10902142  energy(sigma->0) =     -328.10902142


--------------------------------------------------------------------------------------------------------




--------------------------------------- Iteration      1(  10)  ---------------------------------------


    POTLOK:  cpu time    0.1213: real time    0.1255
    SETDIJ:  cpu time    0.0127: real time    0.0127
     EDDAV:  cpu time  131.4033: real time  132.3209
 BZINTS: Fermi energy:  4.802594;688.000000 electrons
         Band energy:***********;  BLOECHL correction:  0.000000
       DOS:  cpu time    0.0055: real time    0.0055
    CHARGE:  cpu time    1.3874: real time    1.3960
    MIXING:  cpu time    0.0022: real time    0.0022
    --------------------------------------------
      LOOP:  cpu time  132.9324: real time  133.8628

 eigenvalue-minimisations  : 20480
 total energy-change (2. order) :-0.2233006E-02  (-0.7236242E-02)
 number of electron     688.0000452 magnetization       0.0000000
 augmentation part      282.2156153 magnetization       0.0000000

 Broyden mixing:
  rms(total) = 0.83009E-01    rms(broyden)= 0.83008E-01
  rms(prec ) = 0.94146E-01
  weight for this iteration     100.00

 eigenvalues of (default mixing * dielectric matrix)
  average eigenvalue GAMMA=   1.0193
  1.7244  1.7244  0.6981  0.5891  0.3604

 Free energy of the ion-electron system (eV)
  ---------------------------------------------------
  alpha Z        PSCENC =      2355.10008605
  Ewald energy   TEWEN  =    -62458.35047846
  -Hartree energ DENC   =    -42957.72643217
  -exchange      EXHF   =         0.00000000
  -V(xc)+E(xc)   XCENC  =      3286.38472684
  PAW double counting   =    112331.02554009  -116024.97186154
  entropy T*S    EENTRO =         0.00000000
  eigenvalues    EBANDS =    -10879.63794285
  atomic energy  EATOM  =    114020.06510763
  Solvation  Ediel_sol  =         0.00000000
  ---------------------------------------------------
  free energy    TOTEN  =      -328.11125442 eV

  energy without entropy =     -328.11125442  energy(sigma->0) =     -328.11125442


--------------------------------------------------------------------------------------------------------




--------------------------------------- Iteration      1(  11)  ---------------------------------------


    POTLOK:  cpu time    0.1257: real time    0.1287
    SETDIJ:  cpu time    0.0132: real time    0.0132
     EDDAV:  cpu time  139.7897: real time  140.7462
 BZINTS: Fermi energy:  4.798717;688.000000 electrons
         Band energy:***********;  BLOECHL correction:  0.000000
       DOS:  cpu time    0.0055: real time    0.0055
    CHARGE:  cpu time    1.3882: real time    1.3966
    MIXING:  cpu time    0.0018: real time    0.0140
    --------------------------------------------
      LOOP:  cpu time  141.3239: real time  142.3043

 eigenvalue-minimisations  : 20992
 total energy-change (2. order) : 0.2795240E-03  (-0.3657232E-02)
 number of electron     688.0000452 magnetization       0.0000000
 augmentation part      282.2330397 magnetization       0.0000000

 Broyden mixing:
  rms(total) = 0.34403E-01    rms(broyden)= 0.34401E-01
  rms(prec ) = 0.37622E-01
  weight for this iteration     100.00

 eigenvalues of (default mixing * dielectric matrix)
  average eigenvalue GAMMA=   1.1649
  2.2088  2.2088  0.9798  0.6783  0.5806  0.3332

 Free energy of the ion-electron system (eV)
  ---------------------------------------------------
  alpha Z        PSCENC =      2355.10008605
  Ewald energy   TEWEN  =    -62458.35047846
  -Hartree energ DENC   =    -42959.33164015
  -exchange      EXHF   =         0.00000000
  -V(xc)+E(xc)   XCENC  =      3286.50532980
  PAW double counting   =    112303.94496638  -115997.86435464
  entropy T*S    EENTRO =         0.00000000
  eigenvalues    EBANDS =    -10878.17999150
  atomic energy  EATOM  =    114020.06510763
  Solvation  Ediel_sol  =         0.00000000
  ---------------------------------------------------
  free energy    TOTEN  =      -328.11097490 eV

  energy without entropy =     -328.11097490  energy(sigma->0) =     -328.11097490


--------------------------------------------------------------------------------------------------------




--------------------------------------- Iteration      1(  12)  ---------------------------------------


    POTLOK:  cpu time    0.1234: real time    0.1264
    SETDIJ:  cpu time    0.0127: real time    0.0127
     EDDAV:  cpu time  131.4623: real time  132.3816
 BZINTS: Fermi energy:  4.790431;688.000000 electrons
         Band energy:***********;  BLOECHL correction:  0.000000
       DOS:  cpu time    0.0055: real time    0.0055
    CHARGE:  cpu time    1.5620: real time    1.5711
    MIXING:  cpu time    0.0017: real time    0.0017
    --------------------------------------------
      LOOP:  cpu time  133.1676: real time  134.0992

 eigenvalue-minimisations  : 20224
 total energy-change (2. order) :-0.1058978E-02  (-0.5308524E-03)
 number of electron     688.0000452 magnetization       0.0000000
 augmentation part      282.2140216 magnetization       0.0000000

 Broyden mixing:
  rms(total) = 0.11199E-01    rms(broyden)= 0.11199E-01
  rms(prec ) = 0.12266E-01
  weight for this iteration     100.00

 eigenvalues of (default mixing * dielectric matrix)
  average eigenvalue GAMMA=   1.1318
  2.2478  2.2478  0.9935  0.7964  0.6770  0.6252  0.3348

 Free energy of the ion-electron system (eV)
  ---------------------------------------------------
  alpha Z        PSCENC =      2355.10008605
  Ewald energy   TEWEN  =    -62458.35047846
  -Hartree energ DENC   =    -42960.00874374
  -exchange      EXHF   =         0.00000000
  -V(xc)+E(xc)   XCENC  =      3286.49671594
  PAW double counting   =    112281.30368079  -115975.38539540
  entropy T*S    EENTRO =         0.00000000
  eigenvalues    EBANDS =    -10877.33300668
  atomic energy  EATOM  =    114020.06510763
  Solvation  Ediel_sol  =         0.00000000
  ---------------------------------------------------
  free energy    TOTEN  =      -328.11203388 eV

  energy without entropy =     -328.11203388  energy(sigma->0) =     -328.11203388


--------------------------------------------------------------------------------------------------------




--------------------------------------- Iteration      1(  13)  ---------------------------------------


    POTLOK:  cpu time    0.1370: real time    0.1383
    SETDIJ:  cpu time    0.0147: real time    0.0148
     EDDAV:  cpu time  165.2827: real time  166.3868
 BZINTS: Fermi energy:  5.001633;688.000000 electrons
         Band energy:***********;  BLOECHL correction:  0.000000
       DOS:  cpu time    0.0066: real time    0.0066
    CHARGE:  cpu time    1.4017: real time    1.4118
    MIXING:  cpu time    0.0017: real time    0.0017
    --------------------------------------------
      LOOP:  cpu time  166.8444: real time  167.9600

 eigenvalue-minimisations  : 23040
 total energy-change (2. order) :-0.1621549E-03  (-0.7787354E-04)
 number of electron     688.0000452 magnetization       0.0000000
 augmentation part      282.2231575 magnetization       0.0000000

 Broyden mixing:
  rms(total) = 0.75893E-02    rms(broyden)= 0.75890E-02
  rms(prec ) = 0.82996E-02
  weight for this iteration     100.00

 eigenvalues of (default mixing * dielectric matrix)
  average eigenvalue GAMMA=   1.1322
  2.2858  2.2858  1.1099  1.1099  0.6733  0.6286  0.6286  0.3360

 Free energy of the ion-electron system (eV)
  ---------------------------------------------------
  alpha Z        PSCENC =      2355.10008605
  Ewald energy   TEWEN  =    -62458.35047846
  -Hartree energ DENC   =    -42959.21145601
  -exchange      EXHF   =         0.00000000
  -V(xc)+E(xc)   XCENC  =      3286.47730783
  PAW double counting   =    112274.87922073  -115968.79875878
  entropy T*S    EENTRO =         0.00000000
  eigenvalues    EBANDS =    -10878.27322501
  atomic energy  EATOM  =    114020.06510763
  Solvation  Ediel_sol  =         0.00000000
  ---------------------------------------------------
  free energy    TOTEN  =      -328.11219603 eV

  energy without entropy =     -328.11219603  energy(sigma->0) =     -328.11219603


--------------------------------------------------------------------------------------------------------




--------------------------------------- Iteration      1(  14)  ---------------------------------------


    POTLOK:  cpu time    0.1247: real time    0.1256
    SETDIJ:  cpu time    0.0128: real time    0.0129
     EDDAV:  cpu time  171.5979: real time  172.7625
 BZINTS: Fermi energy:  4.995688;688.000000 electrons
         Band energy:***********;  BLOECHL correction:  0.000000
       DOS:  cpu time    0.0063: real time    0.0063
    CHARGE:  cpu time    1.3880: real time    1.3966
    MIXING:  cpu time    0.0019: real time    0.0019
    --------------------------------------------
      LOOP:  cpu time  173.1316: real time  174.3058

 eigenvalue-minimisations  : 24576
 total energy-change (2. order) :-0.1214382E-03  (-0.4822275E-04)
 number of electron     688.0000452 magnetization       0.0000000
 augmentation part      282.2205678 magnetization       0.0000000

 Broyden mixing:
  rms(total) = 0.36805E-02    rms(broyden)= 0.36802E-02
  rms(prec ) = 0.38586E-02
  weight for this iteration     100.00

 eigenvalues of (default mixing * dielectric matrix)
  average eigenvalue GAMMA=   1.2052
  2.4954  2.4954  1.4975  1.4295  0.3362  0.6043  0.6043  0.7096  0.6743

 Free energy of the ion-electron system (eV)
  ---------------------------------------------------
  alpha Z        PSCENC =      2355.10008605
  Ewald energy   TEWEN  =    -62458.35047846
  -Hartree energ DENC   =    -42959.56867511
  -exchange      EXHF   =         0.00000000
  -V(xc)+E(xc)   XCENC  =      3286.48885790
  PAW double counting   =    112271.69556441  -115965.70228714
  entropy T*S    EENTRO =         0.00000000
  eigenvalues    EBANDS =    -10877.84049276
  atomic energy  EATOM  =    114020.06510763
  Solvation  Ediel_sol  =         0.00000000
  ---------------------------------------------------
  free energy    TOTEN  =      -328.11231747 eV

  energy without entropy =     -328.11231747  energy(sigma->0) =     -328.11231747


--------------------------------------------------------------------------------------------------------




--------------------------------------- Iteration      1(  15)  ---------------------------------------


    POTLOK:  cpu time    0.1238: real time    0.1258
    SETDIJ:  cpu time    0.0125: real time    0.0126
     EDDAV:  cpu time  178.6753: real time  179.8761
 BZINTS: Fermi energy:  4.993250;688.000000 electrons
         Band energy:***********;  BLOECHL correction:  0.000000
       DOS:  cpu time    0.0063: real time    0.0063
    CHARGE:  cpu time    1.3847: real time    1.3932
    MIXING:  cpu time    0.0017: real time    0.0017
    --------------------------------------------
      LOOP:  cpu time  180.2043: real time  181.4158

 eigenvalue-minimisations  : 25088
 total energy-change (2. order) :-0.5206082E-04  (-0.1432901E-04)
 number of electron     688.0000452 magnetization       0.0000000
 augmentation part      282.2196492 magnetization       0.0000000

 Broyden mixing:
  rms(total) = 0.19993E-02    rms(broyden)= 0.19991E-02
  rms(prec ) = 0.21206E-02
  weight for this iteration     100.00

 eigenvalues of (default mixing * dielectric matrix)
  average eigenvalue GAMMA=   1.2092
  2.7735  2.2887  1.8506  1.1355  1.1355  0.3362  0.6161  0.6161  0.7058  0.6339

 Free energy of the ion-electron system (eV)
  ---------------------------------------------------
  alpha Z        PSCENC =      2355.10008605
  Ewald energy   TEWEN  =    -62458.35047846
  -Hartree energ DENC   =    -42959.56120753
  -exchange      EXHF   =         0.00000000
  -V(xc)+E(xc)   XCENC  =      3286.48712298
  PAW double counting   =    112270.83492146  -115964.83445944
  entropy T*S    EENTRO =         0.00000000
  eigenvalues    EBANDS =    -10877.85346222
  atomic energy  EATOM  =    114020.06510763
  Solvation  Ediel_sol  =         0.00000000
  ---------------------------------------------------
  free energy    TOTEN  =      -328.11236953 eV

  energy without entropy =     -328.11236953  energy(sigma->0) =     -328.11236953


--------------------------------------------------------------------------------------------------------




--------------------------------------- Iteration      1(  16)  ---------------------------------------


    POTLOK:  cpu time    0.1245: real time    0.1255
    SETDIJ:  cpu time    0.0127: real time    0.0127
     EDDAV:  cpu time  149.3353: real time  150.3550
 BZINTS: Fermi energy:  4.990231;688.000000 electrons
         Band energy:***********;  BLOECHL correction:  0.000000
       DOS:  cpu time    0.0063: real time    0.0063
    CHARGE:  cpu time    1.3825: real time    1.3916
    MIXING:  cpu time    0.0021: real time    0.0027
    --------------------------------------------
      LOOP:  cpu time  150.8633: real time  151.8937

 eigenvalue-minimisations  : 21760
 total energy-change (2. order) :-0.1921256E-04  (-0.4820502E-05)
 number of electron     688.0000452 magnetization       0.0000000
 augmentation part      282.2211087 magnetization       0.0000000

 Broyden mixing:
  rms(total) = 0.14293E-02    rms(broyden)= 0.14292E-02
  rms(prec ) = 0.15220E-02
  weight for this iteration     100.00

 eigenvalues of (default mixing * dielectric matrix)
  average eigenvalue GAMMA=   1.3040
  3.2408  2.2261  2.2261  1.4574  1.4574  0.3362  0.8517  0.7052  0.6194  0.6119
  0.6119

 Free energy of the ion-electron system (eV)
  ---------------------------------------------------
  alpha Z        PSCENC =      2355.10008605
  Ewald energy   TEWEN  =    -62458.35047846
  -Hartree energ DENC   =    -42959.49580753
  -exchange      EXHF   =         0.00000000
  -V(xc)+E(xc)   XCENC  =      3286.48598181
  PAW double counting   =    112270.79943002  -115964.78773794
  entropy T*S    EENTRO =         0.00000000
  eigenvalues    EBANDS =    -10877.92897032
  atomic energy  EATOM  =    114020.06510763
  Solvation  Ediel_sol  =         0.00000000
  ---------------------------------------------------
  free energy    TOTEN  =      -328.11238874 eV

  energy without entropy =     -328.11238874  energy(sigma->0) =     -328.11238874


--------------------------------------------------------------------------------------------------------




--------------------------------------- Iteration      1(  17)  ---------------------------------------


    POTLOK:  cpu time    0.1205: real time    0.1253
    SETDIJ:  cpu time    0.0126: real time    0.0127
     EDDAV:  cpu time  142.1001: real time  143.0720
 BZINTS: Fermi energy:  4.989127;688.000000 electrons
         Band energy:***********;  BLOECHL correction:  0.000000
       DOS:  cpu time    0.0063: real time    0.0063
    CHARGE:  cpu time    1.3838: real time    1.3923
    MIXING:  cpu time    0.0019: real time    0.0019
    --------------------------------------------
      LOOP:  cpu time  143.6252: real time  144.6105

 eigenvalue-minimisations  : 20992
 total energy-change (2. order) :-0.1415124E-04  (-0.7945361E-05)
 number of electron     688.0000452 magnetization       0.0000000
 augmentation part      282.2198711 magnetization       0.0000000

 Broyden mixing:
  rms(total) = 0.70697E-03    rms(broyden)= 0.70671E-03
  rms(prec ) = 0.77406E-03
  weight for this iteration     100.00

 eigenvalues of (default mixing * dielectric matrix)
  average eigenvalue GAMMA=   1.3717
  4.1684  2.3436  2.3436  1.5098  1.5098  1.0247  0.3362  0.6047  0.6047  0.7281
  0.6823  0.6042

 Free energy of the ion-electron system (eV)
  ---------------------------------------------------
  alpha Z        PSCENC =      2355.10008605
  Ewald energy   TEWEN  =    -62458.35047846
  -Hartree energ DENC   =    -42959.54266859
  -exchange      EXHF   =         0.00000000
  -V(xc)+E(xc)   XCENC  =      3286.48659109
  PAW double counting   =    112271.18636060  -115965.17751331
  entropy T*S    EENTRO =         0.00000000
  eigenvalues    EBANDS =    -10877.87988789
  atomic energy  EATOM  =    114020.06510763
  Solvation  Ediel_sol  =         0.00000000
  ---------------------------------------------------
  free energy    TOTEN  =      -328.11240290 eV

  energy without entropy =     -328.11240290  energy(sigma->0) =     -328.11240290


--------------------------------------------------------------------------------------------------------




--------------------------------------- Iteration      1(  18)  ---------------------------------------


    POTLOK:  cpu time    0.1194: real time    0.1246
    SETDIJ:  cpu time    0.0126: real time    0.0127
     EDDAV:  cpu time  121.0071: real time  121.8547
 BZINTS: Fermi energy:  4.988714;688.000000 electrons
         Band energy:***********;  BLOECHL correction:  0.000000
       DOS:  cpu time    0.0063: real time    0.0063
    CHARGE:  cpu time    1.3844: real time    1.3938
    MIXING:  cpu time    0.0020: real time    0.0020
    --------------------------------------------
      LOOP:  cpu time  122.5318: real time  123.3941

 eigenvalue-minimisations  : 18944
 total energy-change (2. order) :-0.2332454E-05  (-0.1629737E-05)
 number of electron     688.0000452 magnetization       0.0000000
 augmentation part      282.2205119 magnetization       0.0000000

 Broyden mixing:
  rms(total) = 0.37943E-03    rms(broyden)= 0.37928E-03
  rms(prec ) = 0.40187E-03
  weight for this iteration     100.00

 eigenvalues of (default mixing * dielectric matrix)
  average eigenvalue GAMMA=   1.3520
  4.3487  2.3867  2.3867  1.6540  1.2043  1.2043  0.8929  0.3362  0.7212  0.6040
  0.6040  0.6393  0.5934

 Free energy of the ion-electron system (eV)
  ---------------------------------------------------
  alpha Z        PSCENC =      2355.10008605
  Ewald energy   TEWEN  =    -62458.35047846
  -Hartree energ DENC   =    -42959.51835985
  -exchange      EXHF   =         0.00000000
  -V(xc)+E(xc)   XCENC  =      3286.48629530
  PAW double counting   =    112271.33875640  -115965.32927383
  entropy T*S    EENTRO =         0.00000000
  eigenvalues    EBANDS =    -10877.90453846
  atomic energy  EATOM  =    114020.06510763
  Solvation  Ediel_sol  =         0.00000000
  ---------------------------------------------------
  free energy    TOTEN  =      -328.11240523 eV

  energy without entropy =     -328.11240523  energy(sigma->0) =     -328.11240523


--------------------------------------------------------------------------------------------------------




--------------------------------------- Iteration      1(  19)  ---------------------------------------


    POTLOK:  cpu time    0.1200: real time    0.1253
    SETDIJ:  cpu time    0.0128: real time    0.0128
     EDDAV:  cpu time  132.4992: real time  133.4100
 BZINTS: Fermi energy:  4.988692;688.000000 electrons
         Band energy:***********;  BLOECHL correction:  0.000000
       DOS:  cpu time    0.0063: real time    0.0063
    CHARGE:  cpu time    1.3834: real time    1.3932
    MIXING:  cpu time    0.0021: real time    0.0021
    --------------------------------------------
      LOOP:  cpu time  134.0238: real time  134.9498

 eigenvalue-minimisations  : 19968
 total energy-change (2. order) :-0.2649758E-06  (-0.1069117E-06)
 number of electron     688.0000452 magnetization       0.0000000
 augmentation part      282.2204172 magnetization       0.0000000

 Broyden mixing:
[...]
   -.421E+02 0.363E+01 -.335E+00   0.430E+02 -.366E+01 0.339E+00   -.861E+00 0.236E-01 -.406E-02   -.123E-04 -.110E-04 0.689E-06
   -.421E+02 0.363E+01 -.335E+00   0.430E+02 -.366E+01 0.339E+00   -.861E+00 0.236E-01 -.406E-02   -.123E-04 -.110E-04 0.689E-06
   -.421E+02 0.363E+01 -.335E+00   0.430E+02 -.366E+01 0.339E+00   -.861E+00 0.236E-01 -.406E-02   -.123E-04 -.110E-04 0.689E-06
   -.421E+02 0.363E+01 -.335E+00   0.430E+02 -.366E+01 0.339E+00   -.861E+00 0.236E-01 -.406E-02   -.123E-04 -.110E-04 0.689E-06
   0.421E+02 0.363E+01 0.335E+00   -.430E+02 -.366E+01 -.339E+00   0.861E+00 0.236E-01 0.406E-02   0.123E-04 -.110E-04 -.692E-06
   0.421E+02 0.363E+01 0.335E+00   -.430E+02 -.366E+01 -.339E+00   0.861E+00 0.236E-01 0.406E-02   0.123E-04 -.110E-04 -.692E-06
   0.421E+02 0.363E+01 0.335E+00   -.430E+02 -.366E+01 -.339E+00   0.861E+00 0.236E-01 0.406E-02   0.123E-04 -.110E-04 -.685E-06
   0.421E+02 0.363E+01 0.335E+00   -.430E+02 -.366E+01 -.339E+00   0.861E+00 0.236E-01 0.406E-02   0.123E-04 -.110E-04 -.685E-06
   0.562E-07 -.394E+02 0.214E-06   0.320E-13 0.402E+02 -.604E-13   0.113E-25 -.839E+00 -.186E-23   -.219E-09 -.246E-04 0.341E-08
   0.562E-07 -.394E+02 0.214E-06   0.462E-13 0.402E+02 -.995E-13   -.338E-24 -.839E+00 0.000E+00   0.110E-09 -.246E-04 -.341E-08
   0.562E-07 -.394E+02 0.214E-06   0.568E-13 0.402E+02 -.711E-13   -.135E-24 -.839E+00 0.000E+00   -.219E-09 -.246E-04 0.341E-08
   0.562E-07 -.394E+02 0.214E-06   0.284E-13 0.402E+02 -.675E-13   -.170E-24 -.839E+00 -.827E-24   0.110E-09 -.246E-04 -.341E-08
   0.197E-07 0.450E+02 -.169E-06   -.155E-12 -.459E+02 -.142E-13   -.412E-25 0.885E+00 -.982E-24   -.122E-07 0.352E-05 0.564E-10
   0.197E-07 0.450E+02 -.169E-06   -.131E-12 -.459E+02 0.249E-13   -.158E-24 0.885E+00 0.310E-24   0.123E-07 0.352E-05 -.535E-10
   0.197E-07 0.450E+02 -.169E-06   -.149E-12 -.459E+02 -.107E-13   -.909E-26 0.885E+00 0.155E-24   -.122E-07 0.352E-05 0.565E-10
   0.197E-07 0.450E+02 -.169E-06   -.114E-12 -.459E+02 0.284E-13   0.162E-26 0.885E+00 0.207E-24   0.123E-07 0.352E-05 -.534E-10
   0.784E+00 -.345E+01 0.839E-01   -.774E+00 0.331E+01 -.853E-01   -.106E-01 0.139E+00 0.103E-02   0.322E-05 -.524E-04 -.254E-06
   0.784E+00 -.345E+01 0.839E-01   -.774E+00 0.331E+01 -.853E-01   -.106E-01 0.139E+00 0.103E-02   0.326E-05 -.524E-04 -.243E-06
   0.784E+00 -.345E+01 0.839E-01   -.774E+00 0.331E+01 -.853E-01   -.106E-01 0.139E+00 0.103E-02   0.322E-05 -.524E-04 -.265E-06
   0.784E+00 -.345E+01 0.839E-01   -.774E+00 0.331E+01 -.853E-01   -.106E-01 0.139E+00 0.103E-02   0.326E-05 -.524E-04 -.255E-06
   -.784E+00 -.345E+01 -.839E-01   0.774E+00 0.331E+01 0.853E-01   0.106E-01 0.139E+00 -.103E-02   -.327E-05 -.524E-04 0.254E-06
   -.784E+00 -.345E+01 -.839E-01   0.774E+00 0.331E+01 0.853E-01   0.106E-01 0.139E+00 -.103E-02   -.321E-05 -.524E-04 0.243E-06
   -.784E+00 -.345E+01 -.839E-01   0.774E+00 0.331E+01 0.853E-01   0.106E-01 0.139E+00 -.103E-02   -.327E-05 -.524E-04 0.265E-06
   -.784E+00 -.345E+01 -.839E-01   0.774E+00 0.331E+01 0.853E-01   0.106E-01 0.139E+00 -.103E-02   -.321E-05 -.524E-04 0.254E-06
   0.784E+00 -.345E+01 0.839E-01   -.774E+00 0.331E+01 -.853E-01   -.106E-01 0.139E+00 0.103E-02   0.321E-05 -.524E-04 -.254E-06
   0.784E+00 -.345E+01 0.839E-01   -.774E+00 0.331E+01 -.853E-01   -.106E-01 0.139E+00 0.103E-02   0.327E-05 -.524E-04 -.243E-06
   0.784E+00 -.345E+01 0.839E-01   -.774E+00 0.331E+01 -.853E-01   -.106E-01 0.139E+00 0.103E-02   0.321E-05 -.524E-04 -.265E-06
   0.784E+00 -.345E+01 0.839E-01   -.774E+00 0.331E+01 -.853E-01   -.106E-01 0.139E+00 0.103E-02   0.327E-05 -.524E-04 -.254E-06
   -.784E+00 -.345E+01 -.839E-01   0.774E+00 0.331E+01 0.853E-01   0.106E-01 0.139E+00 -.103E-02   -.326E-05 -.524E-04 0.255E-06
   -.784E+00 -.345E+01 -.839E-01   0.774E+00 0.331E+01 0.853E-01   0.106E-01 0.139E+00 -.103E-02   -.322E-05 -.524E-04 0.243E-06
   -.784E+00 -.345E+01 -.839E-01   0.774E+00 0.331E+01 0.853E-01   0.106E-01 0.139E+00 -.103E-02   -.326E-05 -.524E-04 0.266E-06
   -.784E+00 -.345E+01 -.839E-01   0.774E+00 0.331E+01 0.853E-01   0.106E-01 0.139E+00 -.103E-02   -.322E-05 -.524E-04 0.254E-06
   -.899E+00 -.339E+01 0.873E-01   0.880E+00 0.320E+01 -.897E-01   0.191E-01 0.185E+00 0.157E-02   0.478E-05 -.385E-04 0.197E-06
   -.899E+00 -.339E+01 0.873E-01   0.880E+00 0.320E+01 -.897E-01   0.191E-01 0.185E+00 0.157E-02   0.483E-05 -.385E-04 0.189E-06
   -.899E+00 -.339E+01 0.873E-01   0.880E+00 0.320E+01 -.897E-01   0.191E-01 0.185E+00 0.157E-02   0.478E-05 -.384E-04 0.206E-06
   -.899E+00 -.339E+01 0.873E-01   0.880E+00 0.320E+01 -.897E-01   0.191E-01 0.185E+00 0.157E-02   0.483E-05 -.384E-04 0.197E-06
   0.899E+00 -.339E+01 -.873E-01   -.880E+00 0.320E+01 0.897E-01   -.191E-01 0.185E+00 -.157E-02   -.482E-05 -.385E-04 -.197E-06
   0.899E+00 -.339E+01 -.873E-01   -.880E+00 0.320E+01 0.897E-01   -.191E-01 0.185E+00 -.157E-02   -.478E-05 -.385E-04 -.189E-06
   0.899E+00 -.339E+01 -.873E-01   -.880E+00 0.320E+01 0.897E-01   -.191E-01 0.185E+00 -.157E-02   -.482E-05 -.384E-04 -.206E-06
   0.899E+00 -.339E+01 -.873E-01   -.880E+00 0.320E+01 0.897E-01   -.191E-01 0.185E+00 -.157E-02   -.478E-05 -.384E-04 -.198E-06
   -.899E+00 -.339E+01 0.873E-01   0.880E+00 0.320E+01 -.897E-01   0.191E-01 0.185E+00 0.157E-02   0.478E-05 -.385E-04 0.198E-06
   -.899E+00 -.339E+01 0.873E-01   0.880E+00 0.320E+01 -.897E-01   0.191E-01 0.185E+00 0.157E-02   0.482E-05 -.385E-04 0.188E-06
   -.899E+00 -.339E+01 0.873E-01   0.880E+00 0.320E+01 -.897E-01   0.191E-01 0.185E+00 0.157E-02   0.478E-05 -.384E-04 0.207E-06
   -.899E+00 -.339E+01 0.873E-01   0.880E+00 0.320E+01 -.897E-01   0.191E-01 0.185E+00 0.157E-02   0.482E-05 -.384E-04 0.197E-06
   0.899E+00 -.339E+01 -.873E-01   -.880E+00 0.320E+01 0.897E-01   -.191E-01 0.185E+00 -.157E-02   -.483E-05 -.385E-04 -.197E-06
   0.899E+00 -.339E+01 -.873E-01   -.880E+00 0.320E+01 0.897E-01   -.191E-01 0.185E+00 -.157E-02   -.478E-05 -.385E-04 -.188E-06
   0.899E+00 -.339E+01 -.873E-01   -.880E+00 0.320E+01 0.897E-01   -.191E-01 0.185E+00 -.157E-02   -.483E-05 -.384E-04 -.206E-06
   0.899E+00 -.339E+01 -.873E-01   -.880E+00 0.320E+01 0.897E-01   -.191E-01 0.185E+00 -.157E-02   -.478E-05 -.384E-04 -.197E-06
 -----------------------------------------------------------------------------------------------
   0.139E-06 -.594E+01 0.209E-03   -.269E-12 -.415E-12 -.771E-12   0.409E-15 0.593E+01 -.434E-18   -.216E-10 -.180E-02 -.207E-10
 
 
 POSITION                                       TOTAL-FORCE (eV/Angst)
 -----------------------------------------------------------------------------------
      1.33348      1.30771      1.30934        -0.000272     -0.000262     -0.000012
      6.59121      1.30771      1.33687        -0.000272     -0.000262     -0.000012
      1.33348      6.56584      1.30934        -0.000272     -0.000262     -0.000012
      6.59121      6.56584      1.33687        -0.000272     -0.000262     -0.000012
      3.93787      3.93678      1.32079         0.000272     -0.000262      0.000012
      9.19560      3.93678      1.34832         0.000272     -0.000262      0.000012
      3.93787      9.19491      1.32079         0.000272     -0.000262      0.000012
      9.19560      9.19491      1.34832         0.000272     -0.000262      0.000012
      1.36213      3.92663      9.11596         0.000000      0.000002      0.000000
      6.61985      3.92663      9.14349         0.000000      0.000002      0.000000
      1.36213      9.18476      9.11596         0.000000      0.000002      0.000000
      6.61985      9.18476      9.14349         0.000000      0.000002      0.000000
      3.99099      1.32170      9.12973         0.000000     -0.000191      0.000000
      9.24872      1.32170      9.15726         0.000000     -0.000191      0.000000
      3.99099      6.57983      9.12973         0.000000     -0.000191      0.000000
      9.24872      6.57983      9.15726         0.000000     -0.000191      0.000000
      1.33626      1.30771      6.51221         0.000272     -0.000262      0.000012
      6.59399      1.30771      6.53974         0.000272     -0.000262      0.000012
      1.33626      6.56584      6.51221         0.000272     -0.000262      0.000012
      6.59399      6.56584      6.53974         0.000272     -0.000262      0.000012
      3.98960      3.93678      6.52829        -0.000272     -0.000262     -0.000012
      9.24732      3.93678      6.55582        -0.000272     -0.000262     -0.000012
      3.98960      9.19491      6.52829        -0.000272     -0.000262     -0.000012
      9.24732      9.19491      6.55582        -0.000272     -0.000262     -0.000012
      3.96374      1.29756      3.92454         0.000000      0.000002      0.000000
      9.22146      1.29756      3.95207         0.000000      0.000002      0.000000
      3.96374      6.55570      3.92454         0.000000      0.000002      0.000000
      9.22146      6.55570      3.95207         0.000000      0.000002      0.000000
      1.33487      3.95076      3.91077         0.000000     -0.000191      0.000000
      6.59260      3.95076      3.93830         0.000000     -0.000191      0.000000
      1.33487      9.20890      3.91077         0.000000     -0.000191      0.000000
      6.59260      9.20890      3.93830         0.000000     -0.000191      0.000000
     10.54072      0.00599      5.26025        -0.000458      0.000176     -0.000424
      5.28299      0.00599      5.23272        -0.000458      0.000176     -0.000424
     10.54072      5.26413      5.26025        -0.000458      0.000176     -0.000424
      5.28299      5.26413      5.23272        -0.000458      0.000176     -0.000424
      2.64448      0.00599      2.61636         0.000458      0.000176      0.000424
      7.90220      0.00599      2.64389         0.000458      0.000176      0.000424
      2.64448      5.26413      2.61636         0.000458      0.000176      0.000424
      7.90220      5.26413      2.64389         0.000458      0.000176      0.000424
      2.62688      2.63506      0.01376        -0.000458      0.000176     -0.000424
      7.88460      2.63506      0.04129        -0.000458      0.000176     -0.000424
      2.62688      7.89320      0.01376        -0.000458      0.000176     -0.000424
      7.88460      7.89320      0.04129        -0.000458      0.000176     -0.000424
      0.04287      2.63506      7.80778         0.000458      0.000176      0.000424
      5.30059      2.63506      7.83531         0.000458      0.000176      0.000424
      0.04287      7.89320      7.80778         0.000458      0.000176      0.000424
      5.30059      7.89320      7.83531         0.000458      0.000176      0.000424
     10.51447      0.00574      0.05523        -0.000077      0.000180     -0.000776
      5.25674      0.00574      0.02770        -0.000077      0.000180     -0.000776
     10.51447      5.26388      0.05523        -0.000077      0.000180     -0.000776
      5.25674      5.26388      0.02770        -0.000077      0.000180     -0.000776
      2.67073      0.00574      7.82138         0.000077      0.000180      0.000776
      7.92846      0.00574      7.84890         0.000077      0.000180      0.000776
      2.67073      5.26388      7.82138         0.000077      0.000180      0.000776
      7.92846      5.26388      7.84890         0.000077      0.000180      0.000776
      2.65513      2.63481      5.21912        -0.000077      0.000180     -0.000776
      7.91286      2.63481      5.24665        -0.000077      0.000180     -0.000776
      2.65513      7.89294      5.21912        -0.000077      0.000180     -0.000776
      7.91286      7.89294      5.24665        -0.000077      0.000180     -0.000776
      0.01461      2.63481      2.60242         0.000077      0.000180      0.000776
      5.27234      2.63481      2.62995         0.000077      0.000180      0.000776
      0.01461      7.89294      2.60242         0.000077      0.000180      0.000776
      5.27234      7.89294      2.62995         0.000077      0.000180      0.000776
 -----------------------------------------------------------------------------------
    total drift:                                0.000000     -0.004992      0.000209


--------------------------------------------------------------------------------------------------------



  FREE ENERGIE OF THE ION-ELECTRON SYSTEM (eV)
  ---------------------------------------------------
  free  energy   TOTEN  =      -328.11240560 eV

  energy  without entropy=     -328.11240560  energy(sigma->0) =     -328.11240560
 


--------------------------------------------------------------------------------------------------------


    POTLOK:  cpu time    0.1335: real time    0.1341


--------------------------------------------------------------------------------------------------------


 writing wavefunctions
     LOOP+:  cpu time 3329.2985: real time 3352.7898
    4ORBIT:  cpu time    0.0000: real time    0.0000
 


 total charge     
 
# of ion       s       p       d       tot
------------------------------------------
    1        1.313   2.410   0.000   3.724
    2        1.313   2.410   0.000   3.724
    3        1.313   2.410   0.000   3.724
    4        1.313   2.410   0.000   3.724
    5        1.313   2.410   0.000   3.724
    6        1.313   2.410   0.000   3.724
    7        1.313   2.410   0.000   3.724
    8        1.313   2.410   0.000   3.724
    9        1.314   2.410   0.000   3.723
   10        1.314   2.410   0.000   3.723
   11        1.314   2.410   0.000   3.723
   12        1.314   2.410   0.000   3.723
   13        1.313   2.411   0.000   3.724
   14        1.313   2.411   0.000   3.724
   15        1.313   2.411   0.000   3.724
   16        1.313   2.411   0.000   3.724
   17        1.313   2.410   0.000   3.724
   18        1.313   2.410   0.000   3.724
   19        1.313   2.410   0.000   3.724
   20        1.313   2.410   0.000   3.724
   21        1.313   2.410   0.000   3.724
   22        1.313   2.410   0.000   3.724
   23        1.313   2.410   0.000   3.724
   24        1.313   2.410   0.000   3.724
   25        1.314   2.410   0.000   3.723
   26        1.314   2.410   0.000   3.723
   27        1.314   2.410   0.000   3.723
   28        1.314   2.410   0.000   3.723
   29        1.313   2.411   0.000   3.724
   30        1.313   2.411   0.000   3.724
   31        1.313   2.411   0.000   3.724
   32        1.313   2.411   0.000   3.724
   33        0.260   6.202   8.917  15.378
   34        0.260   6.202   8.917  15.378
   35        0.260   6.202   8.917  15.378
   36        0.260   6.202   8.917  15.378
   37        0.260   6.202   8.917  15.378
   38        0.260   6.202   8.917  15.378
   39        0.260   6.202   8.917  15.378
   40        0.260   6.202   8.917  15.378
   41        0.260   6.202   8.917  15.378
   42        0.260   6.202   8.917  15.378
   43        0.260   6.202   8.917  15.378
   44        0.260   6.202   8.917  15.378
   45        0.260   6.202   8.917  15.378
   46        0.260   6.202   8.917  15.378
   47        0.260   6.202   8.917  15.378
   48        0.260   6.202   8.917  15.378
   49        0.350   6.351   5.820  12.521
   50        0.350   6.351   5.820  12.521
   51        0.350   6.351   5.820  12.521
   52        0.350   6.351   5.820  12.521
   53        0.350   6.351   5.820  12.521
   54        0.350   6.351   5.820  12.521
   55        0.350   6.351   5.820  12.521
   56        0.350   6.351   5.820  12.521
   57        0.350   6.351   5.820  12.521
   58        0.350   6.351   5.820  12.521
   59        0.350   6.351   5.820  12.521
   60        0.350   6.351   5.820  12.521
   61        0.350   6.351   5.820  12.521
   62        0.350   6.351   5.820  12.521
   63        0.350   6.351   5.820  12.521
   64        0.350   6.351   5.820  12.521
--------------------------------------------------
tot         51.789 277.975 235.779 565.543
 


 magnetization (x)
 
# of ion       s       p       d       tot
------------------------------------------
    1       -0.000  -0.002   0.000  -0.003
    2       -0.000  -0.002   0.000  -0.003
    3       -0.000  -0.002   0.000  -0.003
    4       -0.000  -0.002   0.000  -0.003
    5        0.000   0.002   0.000   0.003
    6        0.000   0.002   0.000   0.003
    7        0.000   0.002   0.000   0.003
    8        0.000   0.002   0.000   0.003
    9        0.000  -0.000   0.000  -0.000
   10       -0.000   0.000   0.000   0.000
   11        0.000  -0.000   0.000  -0.000
   12       -0.000   0.000   0.000   0.000
   13       -0.000   0.000   0.000   0.000
   14       -0.000   0.000   0.000   0.000
   15       -0.000   0.000   0.000   0.000
   16       -0.000   0.000   0.000   0.000
   17        0.000   0.002   0.000   0.003
   18        0.000   0.002   0.000   0.003
   19        0.000   0.002   0.000   0.003
   20        0.000   0.002   0.000   0.003
   21       -0.000  -0.002   0.000  -0.003
   22       -0.000  -0.002   0.000  -0.003
   23       -0.000  -0.002   0.000  -0.003
   24       -0.000  -0.002   0.000  -0.003
   25        0.000  -0.000   0.000  -0.000
   26        0.000  -0.000   0.000  -0.000
   27        0.000  -0.000   0.000  -0.000
   28        0.000  -0.000   0.000  -0.000
   29       -0.000   0.000   0.000   0.000
   30       -0.000   0.000   0.000   0.000
   31       -0.000   0.000   0.000   0.000
   32       -0.000   0.000   0.000   0.000
   33        0.000   0.000  -0.001   0.000
   34        0.000   0.000  -0.001   0.000
   35        0.000   0.000  -0.001   0.000
   36        0.000   0.000  -0.001   0.000
   37       -0.000  -0.000   0.001  -0.000
   38       -0.000  -0.000   0.001  -0.000
   39       -0.000  -0.000   0.001  -0.000
   40       -0.000  -0.000   0.001  -0.000
   41        0.000   0.000  -0.001   0.000
   42        0.000   0.000  -0.001   0.000
   43        0.000   0.000  -0.001   0.000
   44        0.000   0.000  -0.001   0.000
   45       -0.000  -0.000   0.001  -0.000
   46       -0.000  -0.000   0.001  -0.000
   47       -0.000  -0.000   0.001  -0.000
   48       -0.000  -0.000   0.001  -0.000
   49        0.020   0.054   3.671   3.744
   50        0.020   0.054   3.671   3.744
   51        0.020   0.054   3.671   3.744
   52        0.020   0.054   3.671   3.744
   53       -0.020  -0.054  -3.671  -3.744
   54       -0.020  -0.054  -3.671  -3.744
   55       -0.020  -0.054  -3.671  -3.744
   56       -0.020  -0.054  -3.671  -3.744
   57        0.020   0.054   3.671   3.744
   58        0.020   0.054   3.671   3.744
   59        0.020   0.054   3.671   3.744
   60        0.020   0.054   3.671   3.744
   61       -0.020  -0.054  -3.671  -3.744
   62       -0.020  -0.054  -3.671  -3.744
   63       -0.020  -0.054  -3.671  -3.744
   64       -0.020  -0.054  -3.671  -3.744
--------------------------------------------------
tot         -0.000   0.000   0.000   0.000
 
 BZINTS: Fermi energy:  4.988665;688.000000 electrons
         Band energy:***********;  BLOECHL correction:  0.000000

 total amount of memory used by VASP MPI-rank0   349631. kBytes
=======================================================================

   base      :      30000. kBytes
   nonl-proj :     217907. kBytes
   fftplans  :       4588. kBytes
   grid      :      69719. kBytes
   one-center:       1990. kBytes
   wavefun   :      25427. kBytes
 
  
  
 General timing and accounting informations for this job:
 ========================================================
  
                  Total CPU time used (sec):     3388.058
                            User time (sec):     3377.210
                          System time (sec):       10.848
                         Elapsed time (sec):     3413.172
  
                   Maximum memory used (kb):      727384.
                   Average memory used (kb):           0.
  
                          Minor page faults:       445445
                          Major page faults:         5734
                 Voluntary context switches:         7219
