       N       E                     dE             d eps       ncg     rms          rms(c)
DAV:   1     0.619760165369E+04    0.61976E+04   -0.50389E+05 12288   0.194E+03
DAV:   2    -0.860892600418E+02   -0.62837E+04   -0.61526E+04 12800   0.439E+02
DAV:   3    -0.372049837547E+03   -0.28596E+03   -0.28459E+03 17920   0.102E+02
DAV:   4    -0.376001858616E+03   -0.39520E+01   -0.39518E+01 12800   0.123E+01
DAV:   5    -0.376105781540E+03   -0.10392E+00   -0.10392E+00 18176   0.202E+00    0.751E+01
DAV:   6    -0.334611966797E+03    0.41494E+02   -0.59095E+02 12288   0.814E+01    0.100E+02
DAV:   7    -0.329437523077E+03    0.51744E+01   -0.11281E+02 12288   0.274E+01    0.437E+01
DAV:   8    -0.329425958814E+03    0.11564E-01   -0.36275E+01 14336   0.208E+01    0.324E+01
DAV:   9    -0.331227417952E+03   -0.18015E+01   -0.10129E+02 14848   0.242E+01    0.235E+01
DAV:  10    -0.327571438631E+03    0.36560E+01   -0.21421E+01 16128   0.157E+01    0.276E+00
DAV:  11    -0.327695633365E+03   -0.12419E+00   -0.12438E+00 16896   0.183E+00    0.355E+00
DAV:  12    -0.327684535614E+03    0.11098E-01   -0.49726E-01 15616   0.181E+00    0.133E+00
DAV:  13    -0.327690304898E+03   -0.57693E-02   -0.50037E-02 15616   0.407E-01    0.906E-01
DAV:  14    -0.327700905146E+03   -0.10600E-01   -0.58043E-02 16384   0.381E-01    0.415E-01
DAV:  15    -0.327700579820E+03    0.32533E-03   -0.55974E-03 14336   0.189E-01    0.176E-01
DAV:  16    -0.327700742929E+03   -0.16311E-03   -0.44652E-04 16896   0.303E-02    0.128E-01
DAV:  17    -0.327701301910E+03   -0.55898E-03   -0.24419E-03 15360   0.604E-02    0.864E-02
DAV:  18    -0.327701370212E+03   -0.68302E-04   -0.21073E-04 14336   0.221E-02    0.512E-02
DAV:  19    -0.327701375520E+03   -0.53086E-05   -0.53072E-05 17152   0.113E-02    0.311E-02
DAV:  20    -0.327701380555E+03   -0.50351E-05   -0.21463E-05 14848   0.479E-03    0.243E-02
DAV:  21    -0.327701380693E+03   -0.13750E-06   -0.37199E-05 17152   0.980E-03    0.152E-02
DAV:  22    -0.327701381244E+03   -0.55115E-06   -0.28206E-06 13312   0.383E-03    0.124E-02
DAV:  23    -0.327701381563E+03   -0.31920E-06   -0.42125E-07 17408   0.110E-03    0.705E-03
DAV:  24    -0.327701381423E+03    0.14000E-06   -0.92423E-07 17152   0.193E-03    0.175E-03
DAV:  25    -0.327701381404E+03    0.18947E-07   -0.22207E-07 15872   0.786E-04    0.124E-03
DAV:  26    -0.327701381394E+03    0.10681E-07   -0.26165E-08 12544   0.322E-04    0.553E-04
DAV:  27    -0.327701381451E+03   -0.57596E-07   -0.21623E-08  9472   0.172E-04    0.523E-04
DAV:  28    -0.327701381463E+03   -0.11438E-07   -0.14203E-09 10240   0.831E-05    0.318E-04
DAV:  29    -0.327701381461E+03    0.15134E-08    0.10814E-09  9216   0.341E-05
   1 F= -.32770138E+03 E0= -.32770138E+03  d E =0.000000E+00  mag=    -0.0000
