 vasp.5.4.4.18Apr17-6-g9f103f2a35 (build Oct 30 2023 17:30:16) complex          
  
 executed on             LinuxIFC date 2024.06.29  18:38:22
 running on  256 total cores
 distrk:  each k-point on  256 cores,    1 groups
 distr:  one band on NCORES_PER_BAND=   1 cores,  256 groups


--------------------------------------------------------------------------------------------------------


 INCAR:
 POTCAR:    PAW_PBE S 06Sep2000                   
 POTCAR:     PAW_PBE Cu_pv 06Sep2000              
 POTCAR:     PAW_PBE Fe_pv 02Aug2007              

 ----------------------------------------------------------------------------- 
|                                                                             |
|           W    W    AA    RRRRR   N    N  II  N    N   GGGG   !!!           |
|           W    W   A  A   R    R  NN   N  II  NN   N  G    G  !!!           |
|           W    W  A    A  R    R  N N  N  II  N N  N  G       !!!           |
|           W WW W  AAAAAA  RRRRR   N  N N  II  N  N N  G  GGG   !            |
|           WW  WW  A    A  R   R   N   NN  II  N   NN  G    G                |
|           W    W  A    A  R    R  N    N  II  N    N   GGGG   !!!           |
|                                                                             |
|      For optimal performance we recommend to set                            |
|        NCORE= 4 - approx SQRT( number of cores)                             |
|      NCORE specifies how many cores store one orbital (NPAR=cpu/NCORE).     |
|      This setting can  greatly improve the performance of VASP for DFT.     |
|      The default,   NCORE=1            might be grossly inefficient         |
|      on modern multi-core architectures or massively parallel machines.     |
|      Do your own testing !!!!                                               |
|      Unfortunately you need to use the default for GW and RPA calculations. |
|      (for HF NCORE is supported but not extensively tested yet)             |
|                                                                             |
 ----------------------------------------------------------------------------- 

 POTCAR:    PAW_PBE S 06Sep2000                   
   SHA256 =  0fc7481fb0695f01bdc6462160264c5c84044ae9ec85a907d398b887a2bc3132 S/
   COPYR  = (c) Copyright 06Sep2000 Georg Kresse                                
   COPYR  = This file is part of the software VASP. Any use, copying, and all ot
   COPYR  = If you do not have a valid VASP license, you may not use, copy or di
   VRHFIN =S : s2p4                                                             
   LEXCH  = PE                                                                  
   EATOM  =   276.8230 eV,   20.3459 Ry                                         
                                                                                
   TITEL  = PAW_PBE S 06Sep2000                                                 
   LULTRA =        F    use ultrasoft PP ?                                      
   IUNSCR =        1    unscreen: 0-lin 1-nonlin 2-no                           
   RPACOR =    1.500    partial core radius                                     
   POMASS =   32.066; ZVAL   =    6.000    mass and valenz                      
   RCORE  =    1.900    outmost cutoff radius                                   
   RWIGS  =    2.200; RWIGS  =    1.164    wigner-seitz radius (au A)           
   ENMAX  =  258.689; ENMIN  =  194.016 eV                                      
   ICORE  =        2    local potential                                         
   LCOR   =        T    correct aug charges                                     
   LPAW   =        T    paw PP                                                  
   EAUG   =  335.092                                                            
   DEXC   =    0.000                                                            
   RMAX   =    1.942    core radius for proj-oper                               
   RAUG   =    1.300    factor for augmentation sphere                          
   RDEP   =    1.954    radius for radial grids                                 
   RDEPT  =    1.744    core radius for aug-charge                              
                                                                                
   Atomic configuration                                                         
    6 entries                                                                   
     n  l   j            E        occ.                                          
     1  0  0.50     -2405.8406   2.0000                                         
     2  0  0.50      -211.7007   2.0000                                         
     2  1  1.50      -156.4958   6.0000                                         
     3  0  0.50       -17.2562   2.0000                                         
     3  1  0.50        -7.0085   4.0000                                         
     3  2  1.50        -6.8029   0.0000                                         
   Description                                                                  
     l       E           TYP  RCUT    TYP  RCUT                                 
     0    -17.2561641     23  1.900                                             
     0    -15.8743224     23  1.900                                             
     1     -7.0085400     23  1.900                                             
     1     -2.7779785     23  1.900                                             
     2     -6.8029130     23  1.900                                             
  local pseudopotential read in
  partial core-charges read in
  partial kinetic energy density read in
  atomic valenz-charges read in
  non local Contribution for L=           0  read in
    real space projection operators read in
  non local Contribution for L=           0  read in
    real space projection operators read in
  non local Contribution for L=           1  read in
    real space projection operators read in
  non local Contribution for L=           1  read in
    real space projection operators read in
    PAW grid and wavefunctions read in
 
   number of l-projection  operators is LMAX  =           4
   number of lm-projection operators is LMMAX =           8
 
 POTCAR:     PAW_PBE Cu_pv 06Sep2000              
   SHA256 =  cb7b504e2ea725fe1f25c85a9ac77d4012ce94cd394135b722c4e25ec297f1cb Cu
   COPYR  = (c) Copyright 06Sep2000 Georg Kresse                                
   COPYR  = This file is part of the software VASP. Any use, copying, and all ot
   COPYR  = If you do not have a valid VASP license, you may not use, copy or di
   VRHFIN =Cu: d10 p1                                                           
   LEXCH  = PE                                                                  
   EATOM  =  4120.1201 eV,  302.8203 Ry                                         
                                                                                
   TITEL  = PAW_PBE Cu_pv 06Sep2000                                             
   LULTRA =        F    use ultrasoft PP ?                                      
   IUNSCR =        1    unscreen: 0-lin 1-nonlin 2-no                           
   RPACOR =    1.500    partial core radius                                     
   POMASS =   63.546; ZVAL   =   17.000    mass and valenz                      
   RCORE  =    2.000    outmost cutoff radius                                   
   RWIGS  =    2.000; RWIGS  =    1.058    wigner-seitz radius (au A)           
   ENMAX  =  368.648; ENMIN  =  276.486 eV                                      
   RCLOC  =    1.304    cutoff for local pot                                    
   LCOR   =        T    correct aug charges                                     
   LPAW   =        T    paw PP                                                  
   EAUG   =  758.233                                                            
   DEXC   =    0.000                                                            
   RMAX   =    2.046    core radius for proj-oper                               
   RAUG   =    1.300    factor for augmentation sphere                          
   RDEP   =    2.025    radius for radial grids                                 
   RDEPT  =    1.558    core radius for aug-charge                              
                                                                                
   Atomic configuration                                                         
    8 entries                                                                   
     n  l   j            E        occ.                                          
     1  0  0.50     -8850.2467   2.0000                                         
     2  0  0.50     -1062.3498   2.0000                                         
     2  1  1.50      -916.8226   6.0000                                         
     3  0  0.50      -114.6929   2.0000                                         
     3  1  1.50       -72.1325   6.0000                                         
     3  2  2.50        -5.0394  10.0000                                         
     4  0  0.50        -4.6097   1.0000                                         
     4  3  2.50        -1.3606   0.0000                                         
   Description                                                                  
     l       E           TYP  RCUT    TYP  RCUT                                 
     1    -72.1324777     23  1.700                                             
     1     -1.3605826     23  1.700                                             
     2     -5.0393776     23  2.000                                             
     2     -6.3999602     23  2.000                                             
     0     -4.6097062     23  1.800                                             
     0     14.1620818     23  1.800                                             
  local pseudopotential read in
  partial core-charges read in
  partial kinetic energy density read in
  atomic valenz-charges read in
  non local Contribution for L=           1  read in
    real space projection operators read in
  non local Contribution for L=           1  read in
    real space projection operators read in
  non local Contribution for L=           2  read in
    real space projection operators read in
  non local Contribution for L=           2  read in
    real space projection operators read in
  non local Contribution for L=           0  read in
    real space projection operators read in
  non local Contribution for L=           0  read in
    real space projection operators read in
    PAW grid and wavefunctions read in
 
   number of l-projection  operators is LMAX  =           6
   number of lm-projection operators is LMMAX =          18
 
 POTCAR:     PAW_PBE Fe_pv 02Aug2007              
   SHA256 =  5d22e414b1f82158bf2c7ecb8b97b28fd0923e48cadc1c3bf74d524558f5dd32 Fe
   COPYR  = (c) Copyright 02Aug2007 Georg Kresse                                
   COPYR  = This file is part of the software VASP. Any use, copying, and all ot
   COPYR  = If you do not have a valid VASP license, you may not use, copy or di
   VRHFIN =Fe:  3pd7s1                                                          
   LEXCH  = PE                                                                  
   EATOM  =  2457.4239 eV,  180.6156 Ry                                         
                                                                                
   TITEL  = PAW_PBE Fe_pv 02Aug2007                                             
   LULTRA =        F    use ultrasoft PP ?                                      
   IUNSCR =        1    unscreen: 0-lin 1-nonlin 2-no                           
   RPACOR =    1.750    partial core radius                                     
   POMASS =   55.847; ZVAL   =   14.000    mass and valenz                      
   RCORE  =    2.200    outmost cutoff radius                                   
   RWIGS  =    2.200; RWIGS  =    1.164    wigner-seitz radius (au A)           
   ENMAX  =  293.238; ENMIN  =  219.928 eV                                      
   ICORE  =        3    local potential                                         
   LCOR   =        T    correct aug charges                                     
   LPAW   =        T    paw PP                                                  
   EAUG   =  578.342                                                            
   DEXC   =    0.000                                                            
   RMAX   =    2.249    core radius for proj-oper                               
   RAUG   =    1.300    factor for augmentation sphere                          
   RDEP   =    2.296    radius for radial grids                                 
   RDEPT  =    1.766    core radius for aug-charge                              
                                                                                
   Atomic configuration                                                         
    8 entries                                                                   
     n  l   j            E        occ.                                          
     1  0  0.50     -6993.8440   2.0000                                         
     2  0  0.50      -814.6047   2.0000                                         
     2  1  1.50      -693.3689   6.0000                                         
     3  0  0.50       -89.4732   2.0000                                         
     3  1  1.50       -55.6373   6.0000                                         
     3  2  2.50        -3.8151   7.0000                                         
     4  0  0.50        -4.2551   1.0000                                         
     4  3  2.50        -1.3606   0.0000                                         
   Description                                                                  
     l       E           TYP  RCUT    TYP  RCUT                                 
     1    -55.6372668     23  2.000                                             
     1     -5.4423304     23  2.000                                             
     2     -3.8151096     23  2.200                                             
     2     -5.1756922     23  2.200                                             
     0     -4.2550951     23  2.200                                             
     0     27.2116520     23  2.200                                             
     3     -1.3605826     23  2.200                                             
  local pseudopotential read in
  partial core-charges read in
  partial kinetic energy density read in
  atomic valenz-charges read in
  non local Contribution for L=           1  read in
    real space projection operators read in
  non local Contribution for L=           1  read in
    real space projection operators read in
  non local Contribution for L=           2  read in
    real space projection operators read in
  non local Contribution for L=           2  read in
    real space projection operators read in
  non local Contribution for L=           0  read in
    real space projection operators read in
  non local Contribution for L=           0  read in
    real space projection operators read in
    PAW grid and wavefunctions read in
 
   number of l-projection  operators is LMAX  =           6
   number of lm-projection operators is LMMAX =          18
 

 ----------------------------------------------------------------------------- 
|                                                                             |
|  ADVICE TO THIS USER RUNNING 'VASP/VAMP'   (HEAR YOUR MASTER'S VOICE ...):  |
|                                                                             |
|      You have a (more or less) 'large supercell' and for larger cells       |
|      it might be more efficient to use real space projection opertators     |
|      So try LREAL= Auto  in the INCAR   file.                               |
|      Mind:          For very  accurate calculation you might also keep the  |
|      reciprocal projection scheme          (i.e. LREAL=.FALSE.)             |
|                                                                             |
 ----------------------------------------------------------------------------- 


 ----------------------------------------------------------------------------- 
|                                                                             |
|  ADVICE TO THIS USER RUNNING 'VASP/VAMP'   (HEAR YOUR MASTER'S VOICE ...):  |
|                                                                             |
|      You enforced a specific xc-type in the INCAR file,                     |
|      a different type was found on the POTCAR file                          |
|          I HOPE YOU KNOW, WHAT YOU ARE  DOING                               |
|                                                                             |
 ----------------------------------------------------------------------------- 

  PAW_PBE S 06Sep2000                   :
 energy of atom  1       EATOM= -276.8230
 kinetic energy error for atom=    0.0007 (will be added to EATOM!!)
   PAW_PBE Cu_pv 06Sep2000              :
 energy of atom  2       EATOM=-4120.1201
 kinetic energy error for atom=    0.0094 (will be added to EATOM!!)
   PAW_PBE Fe_pv 02Aug2007              :
 energy of atom  3       EATOM=-2457.4239
 kinetic energy error for atom=    0.0025 (will be added to EATOM!!)
 
 
 POSCAR: Fe16 Cu16 S32                           
  positions in direct lattice
  velocities in cartesian coordinates
 exchange correlation table for  LEXCH =       14
   RHO(1)=    0.500       N(1)  =     2000
   RHO(2)=  100.500       N(2)  =     4000
 


--------------------------------------------------------------------------------------------------------


 ion  position               nearest neighbor table
   1  0.126  0.125  0.123-  37 2.26  41 2.27  61 2.27  49 2.28
   2  0.626  0.125  0.123-  38 2.26  42 2.27  62 2.27  50 2.28
   3  0.126  0.625  0.123-  39 2.26  43 2.27  63 2.27  51 2.28
   4  0.626  0.625  0.123-  40 2.26  44 2.27  64 2.27  52 2.28
   5  0.374  0.375  0.123-  39 2.26  41 2.27  62 2.27  52 2.28
   6  0.874  0.375  0.123-  40 2.26  42 2.27  61 2.27  51 2.28
   7  0.374  0.875  0.123-  37 2.26  43 2.27  64 2.27  50 2.28
   8  0.874  0.875  0.123-  38 2.26  44 2.27  63 2.27  49 2.28
   9  0.125  0.374  0.873-  41 2.26  45 2.27  51 2.27  55 2.28
  10  0.625  0.374  0.873-  42 2.26  46 2.27  52 2.27  56 2.28
  11  0.125  0.874  0.873-  43 2.26  47 2.27  49 2.27  53 2.28
  12  0.625  0.874  0.873-  44 2.26  48 2.27  50 2.27  54 2.28
  13  0.375  0.126  0.873-  41 2.26  46 2.27  50 2.27  53 2.28
  14  0.875  0.126  0.873-  42 2.26  45 2.27  49 2.27  54 2.28
  15  0.375  0.626  0.873-  43 2.26  48 2.27  52 2.27  55 2.28
  16  0.875  0.626  0.873-  44 2.26  47 2.27  51 2.27  56 2.28
  17  0.124  0.125  0.623-  45 2.26  33 2.27  53 2.27  57 2.28
  18  0.624  0.125  0.623-  46 2.26  34 2.27  54 2.27  58 2.28
  19  0.124  0.625  0.623-  47 2.26  35 2.27  55 2.27  59 2.28
  20  0.624  0.625  0.623-  48 2.26  36 2.27  56 2.27  60 2.28
  21  0.376  0.375  0.623-  46 2.26  36 2.27  55 2.27  57 2.28
  22  0.876  0.375  0.623-  45 2.26  35 2.27  56 2.27  58 2.28
  23  0.376  0.875  0.623-  48 2.26  34 2.27  53 2.27  59 2.28
  24  0.876  0.875  0.623-  47 2.26  33 2.27  54 2.27  60 2.28
  25  0.375  0.124  0.373-  34 2.26  37 2.27  57 2.27  62 2.28
  26  0.875  0.124  0.373-  33 2.26  38 2.27  58 2.27  61 2.28
  27  0.375  0.624  0.373-  36 2.26  39 2.27  59 2.27  64 2.28
  28  0.875  0.624  0.373-  35 2.26  40 2.27  60 2.27  63 2.28
  29  0.125  0.376  0.373-  35 2.26  39 2.27  57 2.27  61 2.28
  30  0.625  0.376  0.373-  36 2.26  40 2.27  58 2.27  62 2.28
  31  0.125  0.876  0.373-  33 2.26  37 2.27  59 2.27  63 2.28
  32  0.625  0.876  0.373-  34 2.26  38 2.27  60 2.27  64 2.28
  33  0.000  0.000  0.502-  26 2.26  31 2.26  17 2.27  24 2.27
  34  0.500  0.000  0.502-  25 2.26  32 2.26  18 2.27  23 2.27
  35  0.000  0.500  0.502-  28 2.26  29 2.26  19 2.27  22 2.27
  36  0.500  0.500  0.502-  27 2.26  30 2.26  20 2.27  21 2.27
  37  0.250  0.000  0.252-   1 2.26   7 2.26  25 2.27  31 2.27
  38  0.750  0.000  0.252-   2 2.26   8 2.26  26 2.27  32 2.27
  39  0.250  0.500  0.252-   3 2.26   5 2.26  27 2.27  29 2.27
  40  0.750  0.500  0.252-   4 2.26   6 2.26  28 2.27  30 2.27
  41  0.250  0.250  0.002-   9 2.26  13 2.26   1 2.27   5 2.27
  42  0.750  0.250  0.002-  10 2.26  14 2.26   2 2.27   6 2.27
  43  0.250  0.750  0.002-  11 2.26  15 2.26   3 2.27   7 2.27
  44  0.750  0.750  0.002-  12 2.26  16 2.26   4 2.27   8 2.27
  45  0.000  0.250  0.752-  17 2.26  22 2.26   9 2.27  14 2.27
  46  0.500  0.250  0.752-  18 2.26  21 2.26  10 2.27  13 2.27
  47  0.000  0.750  0.752-  19 2.26  24 2.26  11 2.27  16 2.27
  48  0.500  0.750  0.752-  20 2.26  23 2.26  12 2.27  15 2.27
  49  0.000  0.000  0.002-  11 2.27  14 2.27   1 2.28   8 2.28
  50  0.500  0.000  0.002-  12 2.27  13 2.27   2 2.28   7 2.28
  51  0.000  0.500  0.002-   9 2.27  16 2.27   3 2.28   6 2.28
  52  0.500  0.500  0.002-  10 2.27  15 2.27   4 2.28   5 2.28
  53  0.250  0.000  0.752-  17 2.27  23 2.27  11 2.28  13 2.28
  54  0.750  0.000  0.752-  18 2.27  24 2.27  12 2.28  14 2.28
  55  0.250  0.500  0.752-  19 2.27  21 2.27   9 2.28  15 2.28
  56  0.750  0.500  0.752-  20 2.27  22 2.27  10 2.28  16 2.28
  57  0.250  0.250  0.502-  25 2.27  29 2.27  17 2.28  21 2.28
  58  0.750  0.250  0.502-  26 2.27  30 2.27  18 2.28  22 2.28
  59  0.250  0.750  0.502-  27 2.27  31 2.27  19 2.28  23 2.28
  60  0.750  0.750  0.502-  28 2.27  32 2.27  20 2.28  24 2.28
  61  0.000  0.250  0.252-   1 2.27   6 2.27  26 2.28  29 2.28
  62  0.500  0.250  0.252-   2 2.27   5 2.27  25 2.28  30 2.28
  63  0.000  0.750  0.252-   3 2.27   8 2.27  28 2.28  31 2.28
  64  0.500  0.750  0.252-   4 2.27   7 2.27  27 2.28  32 2.28
 
  LATTYP: Found a base centered orthorhombic cell.
 ALAT       =    14.6012275298
 B/A-ratio  =     1.0355083046
 C/A-ratio  =     0.7136580797
  
  Lattice vectors:
  
 A1 = (  10.5079320000,   0.1833050000,   0.0000000000)
 A2 = (  -0.1833050000, -10.5079320000,   0.0000000000)
 A3 = (   0.0000000000,   0.0000000000, -10.4202840000)


Analysis of symmetry for initial positions (statically):
=====================================================================
 Subroutine PRICEL returns following result:
 
  LATTYP: Found a face centered orthorhombic cell.
 ALAT       =     7.3006137649
 B/A-ratio  =     1.0355083046
 C/A-ratio  =     1.4273161594
  
  Lattice vectors:
  
 A1 = (  -2.6728092500,  -2.6728092500,   5.2101420000)
 A2 = (  -2.5811567500,   2.5811567500,   5.2101420000)
 A3 = (  -5.2539660000,  -0.0916525000,  -0.0000000000)
 
   8 primitive cells build up your supercell.
 

 Routine SETGRP: Setting up the symmetry group for a 
 base centered orthorhombic supercell.


 Subroutine GETGRP returns: Found  4 space group operations
 (whereof  2 operations were pure point group operations)
 out of a pool of  8 trial point group operations.


The static configuration has the point symmetry C_2 .
 The point group associated with its full space group is C_2v.


Analysis of symmetry for dynamics (positions and initial velocities):
=====================================================================
 Subroutine PRICEL returns following result:
 
  LATTYP: Found a face centered orthorhombic cell.
 ALAT       =     7.3006137649
 B/A-ratio  =     1.0355083046
 C/A-ratio  =     1.4273161594
  
  Lattice vectors:
  
 A1 = (  -2.6728092500,  -2.6728092500,   5.2101420000)
 A2 = (  -2.5811567500,   2.5811567500,   5.2101420000)
 A3 = (  -5.2539660000,  -0.0916525000,  -0.0000000000)
 
   8 primitive cells build up your supercell.
 

 Routine SETGRP: Setting up the symmetry group for a 
 base centered orthorhombic supercell.


 Subroutine GETGRP returns: Found  4 space group operations
 (whereof  2 operations were pure point group operations)
 out of a pool of  8 trial point group operations.


The dynamic configuration has the point symmetry C_2 .
 The point group associated with its full space group is C_2v.


Analysis of structural, dynamic, and magnetic symmetry:
=====================================================================
 Subroutine PRICEL returns following result:
 
  LATTYP: Found a face centered orthorhombic cell.
 ALAT       =     7.3006137649
 B/A-ratio  =     1.0355083046
 C/A-ratio  =     1.4273161594
  
  Lattice vectors:
  
 A1 = (  -2.6728092500,  -2.6728092500,   5.2101420000)
 A2 = (  -2.5811567500,   2.5811567500,   5.2101420000)
 A3 = (  -5.2539660000,  -0.0916525000,  -0.0000000000)
 
   8 primitive cells build up your supercell.
 

 Routine SETGRP: Setting up the symmetry group for a 
 base centered orthorhombic supercell.


 Subroutine GETGRP returns: Found  4 space group operations
 (whereof  2 operations were pure point group operations)
 out of a pool of  8 trial point group operations.


The magnetic configuration has the point symmetry C_2 .
 The point group associated with its full space group is C_2v.


 Subroutine INISYM returns: Found  4 space group operations
 (whereof  2 operations are pure point group operations),
 and found     8 'primitive' translations

 
 
 KPOINTS: Automatic mesh                          

Automatic generation of k-mesh.
Space group operators:
 irot       det(A)        alpha          n_x          n_y          n_z        tau_x        tau_y        tau_z
    1     1.000000     0.000000     1.000000     0.000000     0.000000     0.000000     0.000000     0.000000
    2     1.000000   179.999999     0.000000     0.000000     1.000000     0.000000     0.000000     0.000000
    3    -1.000000   180.000000     0.707107     0.707107     0.000000    -0.750000    -0.000000     0.750000
    4    -1.000000   180.000000     0.707107    -0.707107     0.000000    -0.750000    -0.000000     0.750000
 
 Subroutine IBZKPT returns following result:
 ===========================================
 
 Found      6 irreducible k-points:
 
 Following reciprocal coordinates:
            Coordinates               Weight
  0.000000  0.000000  0.000000      1.000000
  0.500000 -0.000000  0.000000      2.000000
  0.500000  0.500000  0.000000      1.000000
  0.000000  0.000000  0.500000      1.000000
  0.500000 -0.000000  0.500000      2.000000
  0.500000  0.500000  0.500000      1.000000
 
 Following cartesian coordinates:
            Coordinates               Weight
  0.000000  0.000000  0.000000      1.000000
  0.047598 -0.000830  0.000000      2.000000
  0.046767  0.046767  0.000000      1.000000
  0.000000  0.000000  0.047983      1.000000
  0.047598 -0.000830  0.047983      2.000000
  0.046767  0.046767  0.047983      1.000000
 
 TETIRR: Found     12 inequivalent tetrahedra from       48
 
 Subroutine IBZKPT_HF returns following result:
 ==============================================
 
 Found      8 k-points in 1st BZ
 the following      8 k-points will be used (e.g. in the exchange kernel)
 Following reciprocal coordinates:   # in IRBZ
  0.000000  0.000000  0.000000    0.12500000   1 t-inv F
  0.500000 -0.000000  0.000000    0.12500000   2 t-inv F
  0.500000  0.500000  0.000000    0.12500000   3 t-inv F
  0.000000  0.000000  0.500000    0.12500000   4 t-inv F
  0.500000 -0.000000  0.500000    0.12500000   5 t-inv F
  0.500000  0.500000  0.500000    0.12500000   6 t-inv F
  0.000000 -0.500000  0.000000    0.12500000   2 t-inv F spinflp
  0.000000 -0.500000  0.500000    0.12500000   5 t-inv F spinflp


--------------------------------------------------------------------------------------------------------




 Dimension of arrays:
   k-points           NKPTS =      6   k-points in BZ     NKDIM =      6   number of bands    NBANDS=    512
   number of dos      NEDOS =    301   number of ions     NIONS =     64
   non local maximal  LDIM  =      6   non local SUM 2l+1 LMDIM =     18
   total plane-waves  NPLWV = 829440
   max r-space proj   IRMAX =      1   max aug-charges    IRDMAX=  22915
   dimension x,y,z NGX =    96 NGY =   96 NGZ =   90
   dimension x,y,z NGXF=   192 NGYF=  192 NGZF=  180
   support grid    NGXF=   192 NGYF=  192 NGZF=  180
   ions per type =              32  16  16
   NGX,Y,Z   is equivalent  to a cutoff of  15.19, 15.19, 14.36 a.u.
   NGXF,Y,Z  is equivalent  to a cutoff of  30.37, 30.37, 28.72 a.u.

 SYSTEM =  CuFeS2                                  
 POSCAR =  Fe16 Cu16 S32                           

 Startparameter for this run:
   NWRITE =      2    write-flag & timer
   PREC   = accura    normal or accurate (medium, high low for compatibility)
   ISTART =      0    job   : 0-new  1-cont  2-samecut
   ICHARG =      1    charge: 1-file 2-atom 10-const
   ISPIN  =      2    spin polarized calculation?
   LNONCOLLINEAR =      F non collinear calculations
   LSORBIT =      F    spin-orbit coupling
   INIWAV =      1    electr: 0-lowe 1-rand  2-diag
   LASPH  =      F    aspherical Exc in radial PAW
   METAGGA=      F    non-selfconsistent MetaGGA calc.

 Electronic Relaxation 1
   ENCUT  =  700.0 eV  51.45 Ry    7.17 a.u.  22.67 22.67 22.48*2*pi/ulx,y,z
   ENINI  =  700.0     initial cutoff
   ENAUG  =  758.2 eV  augmentation charge cutoff
   NELM   =    500;   NELMIN=  2; NELMDL=  0     # of ELM steps 
   EDIFF  = 0.1E-07   stopping-criterion for ELM
   LREAL  =      F    real-space projection
   NLSPLINE    = F    spline interpolate recip. space projectors
   LCOMPAT=      F    compatible to vasp.4.4
   GGA_COMPAT  = T    GGA compatible to vasp.4.4-vasp.4.6
   LMAXPAW     = -100 max onsite density
   LMAXMIX     =    4 max onsite mixed and CHGCAR
   VOSKOWN=      0    Vosko Wilk Nusair interpolation
   ROPT   =    0.00000   0.00000   0.00000
 Ionic relaxation
   EDIFFG = -.1E-04   stopping-criterion for IOM
   NSW    =      0    number of steps for IOM
   NBLOCK =      1;   KBLOCK =      1    inner block; outer block 
   IBRION =     -1    ionic relax: 0-MD 1-quasi-New 2-CG
   NFREE  =      0    steps in history (QN), initial steepest desc. (CG)
   ISIF   =      2    stress and relaxation
   IWAVPR =     10    prediction:  0-non 1-charg 2-wave 3-comb
   ISYM   =      2    0-nonsym 1-usesym 2-fastsym
   LCORR  =      T    Harris-Foulkes like correction to forces

   POTIM  = 0.5000    time-step for ionic-motion
   TEIN   =    0.0    initial temperature
   TEBEG  =    0.0;   TEEND  =   0.0 temperature during run
   SMASS  =  -3.00    Nose mass-parameter (am)
   estimated Nose-frequenzy (Omega)   =  0.10E-29 period in steps =****** mass=  -0.252E-26a.u.
   SCALEE = 1.0000    scale energy and forces
   NPACO  =    256;   APACO  = 16.0  distance and # of slots for P.C.
   PSTRESS=    0.0 pullay stress

  Mass of Ions in am
   POMASS =  32.07 63.55 55.85
  Ionic Valenz
   ZVAL   =   6.00 17.00 14.00
  Atomic Wigner-Seitz radii
   RWIGS  =  -1.00 -1.00 -1.00
  virtual crystal weights 
   VCA    =   1.00  1.00  1.00
   NELECT =     688.0000    total number of electrons
   NUPDOWN=      -1.0000    fix difference up-down

 DOS related values:
   EMIN   =  10.00;   EMAX   =-10.00  energy-range for DOS
   EFERMI =   0.00
   ISMEAR =    -5;   SIGMA  =   0.03  broadening in eV -4-tet -1-fermi 0-gaus

 Electronic relaxation 2 (details)
   IALGO  =     38    algorithm
   LDIAG  =      T    sub-space diagonalisation (order eigenvalues)
   LSUBROT=      F    optimize rotation matrix (better conditioning)
   TURBO    =      0    0=normal 1=particle mesh
   IRESTART =      0    0=no restart 2=restart with 2 vectors
   NREBOOT  =      0    no. of reboots
   NMIN     =      0    reboot dimension
   EREF     =   0.00    reference energy to select bands
   IMIX   =      4    mixing-type and parameters
     AMIX     =   0.40;   BMIX     =  1.00
     AMIX_MAG =   1.60;   BMIX_MAG =  1.00
     AMIN     =   0.10
     WC   =   100.;   INIMIX=   1;  MIXPRE=   1;  MAXMIX= -45

 Intra band minimization:
   WEIMIN = 0.0000     energy-eigenvalue tresh-hold
   EBREAK =  0.49E-11  absolut break condition
   DEPER  =   0.30     relativ break condition  

   TIME   =   0.40     timestep for ELM

  volume/ion in A,a.u.               =      17.97       121.28
  Fermi-wavevector in a.u.,A,eV,Ry     =   1.379358  2.606609 25.886834  1.902629
  Thomas-Fermi vector in A             =   2.504335
 
 Write flags
   LWAVE        =      T    write WAVECAR
   LDOWNSAMPLE  =      F    k-point downsampling of WAVECAR
   LCHARG       =      T    write CHGCAR
   LVTOT        =      F    write LOCPOT, total local potential
   LVHAR        =      F    write LOCPOT, Hartree potential only
   LELF         =      F    write electronic localiz. function (ELF)
   LORBIT       =     11    0 simple, 1 ext, 2 COOP (PROOUT), +10 PAW based schemes


 Dipole corrections
   LMONO  =      F    monopole corrections only (constant potential shift)
   LDIPOL =      F    correct potential (dipole corrections)
   IDIPOL =      0    1-x, 2-y, 3-z, 4-all directions 
   EPSILON=  1.0000000 bulk dielectric constant

 LDA+U is selected, type is set to LDAUTYPE =  2
   angular momentum for each species LDAUL =     2    2    2
   U (eV)           for each species LDAUU =   0.0  0.1  4.7
   J (eV)           for each species LDAUJ =   0.0  0.0  0.0
 Exchange correlation treatment:
   GGA     =    PS    GGA type
   LEXCH   =    14    internal setting for exchange type
   VOSKOWN=      0    Vosko Wilk Nusair interpolation
   LHFCALC =     F    Hartree Fock is set to
   LHFONE  =     F    Hartree Fock one center treatment
   AEXX    =    0.0000 exact exchange contribution

 Linear response parameters
   LEPSILON=     F    determine dielectric tensor
   LRPA    =     F    only Hartree local field effects (RPA)
   LNABLA  =     F    use nabla operator in PAW spheres
   LVEL    =     F    velocity operator in full k-point grid
   LINTERFAST=   F  fast interpolation
   KINTER  =     0    interpolate to denser k-point grid
   CSHIFT  =0.1000    complex shift for real part using Kramers Kronig
   OMEGAMAX=  -1.0    maximum frequency
   DEG_THRESHOLD= 0.2000000E-02 threshold for treating states as degnerate
   RTIME   =   -0.100 relaxation time in fs
  (WPLASMAI=    0.000 imaginary part of plasma frequency in eV, 0.658/RTIME)
   DFIELD  = 0.0000000 0.0000000 0.0000000 field for delta impulse in time
 
 Orbital magnetization related:
   ORBITALMAG=     F  switch on orbital magnetization
   LCHIMAG   =     F  perturbation theory with respect to B field
   DQ        =  0.001000  dq finite difference perturbation B field
   LLRAUG    =     F  two centre corrections for induced B field

 PEAD related settings:
   LPEAD      =     T    switch on PEAD
   IPEAD      =     4    finite difference order for dpsi/dk
   LCALCPOL   =     T    calculate macroscopic polarization
   LCALCEPS   =     F    calculate dielectric tensor
   EFIELD_PEAD=    0.0000    0.0000    0.0000
   SKIP_EDOTP =     F
   LRPA       =     F
   SKIP_SCF   =     F


--------------------------------------------------------------------------------------------------------


 Static calculation
 charge density and potential will be updated during run
 spin polarized calculation
 Variant of blocked Davidson
 Davidson routine will perform the subspace rotation
 perform sub-space diagonalisation
    after iterative eigenvector-optimisation
 modified Broyden-mixing scheme, WC =      100.0
 initial mixing is a Kerker type mixing with AMIX =  0.4000 and BMIX =      1.0000
 Hartree-type preconditioning will be used
 using additional bands          168
 reciprocal scheme for non local part
 use partial core corrections
 calculate Harris-corrections to forces 
   (improved forces if not selfconsistent)
 use gradient corrections 
 use of overlap-Matrix (Vanderbilt PP)
 Fermi weights with tetrahedron method with Bloechl corrections


--------------------------------------------------------------------------------------------------------


  energy-cutoff  :      700.00
  volume of cell :     1150.22
      direct lattice vectors                 reciprocal lattice vectors
    10.507932000  0.183305000  0.000000000     0.095195173 -0.001660627  0.000000000
     0.183305000 10.507932000  0.000000000    -0.001660627  0.095195173  0.000000000
     0.000000000  0.000000000 10.420284000     0.000000000  0.000000000  0.095966674

  length of vectors
    10.509530705 10.509530705 10.420284000     0.095209656  0.095209656  0.095966674


 
 k-points in units of 2pi/SCALE and weight: Automatic mesh                          
   0.00000000  0.00000000  0.00000000       0.125
   0.04759759 -0.00083031  0.00000000       0.250
   0.04676727  0.04676727  0.00000000       0.125
   0.00000000  0.00000000  0.04798334       0.125
   0.04759759 -0.00083031  0.04798334       0.250
   0.04676727  0.04676727  0.04798334       0.125
 
 k-points in reciprocal lattice and weights: Automatic mesh                          
   0.00000000  0.00000000  0.00000000       0.125
   0.50000000 -0.00000000  0.00000000       0.250
   0.50000000  0.50000000  0.00000000       0.125
   0.00000000  0.00000000  0.50000000       0.125
   0.50000000 -0.00000000  0.50000000       0.250
   0.50000000  0.50000000  0.50000000       0.125
 
 position of ions in fractional coordinates (direct lattice) 
   0.12613600  0.12520300  0.12306600
   0.62613600  0.12520300  0.12306600
   0.12613600  0.62520300  0.12306600
   0.62613600  0.62520300  0.12306600
   0.37386400  0.37479700  0.12306600
   0.87386400  0.37479700  0.12306600
   0.37386400  0.87479700  0.12306600
   0.87386400  0.87479700  0.12306600
   0.12479700  0.37386400  0.87306600
   0.62479700  0.37386400  0.87306600
   0.12479700  0.87386400  0.87306600
   0.62479700  0.87386400  0.87306600
   0.37520300  0.12613600  0.87306600
   0.87520300  0.12613600  0.87306600
   0.37520300  0.62613600  0.87306600
   0.87520300  0.62613600  0.87306600
   0.12386400  0.12479700  0.62306600
   0.62386400  0.12479700  0.62306600
   0.12386400  0.62479700  0.62306600
   0.62386400  0.62479700  0.62306600
   0.37613600  0.37520300  0.62306600
   0.87613600  0.37520300  0.62306600
   0.37613600  0.87520300  0.62306600
   0.87613600  0.87520300  0.62306600
   0.37479700  0.12386400  0.37306600
   0.87479700  0.12386400  0.37306600
   0.37479700  0.62386400  0.37306600
   0.87479700  0.62386400  0.37306600
   0.12520300  0.37613600  0.37306600
   0.62520300  0.37613600  0.37306600
   0.12520300  0.87613600  0.37306600
   0.62520300  0.87613600  0.37306600
   0.00000000  0.00000000  0.50167800
   0.50000000  0.00000000  0.50167800
   0.00000000  0.50000000  0.50167800
   0.50000000  0.50000000  0.50167800
   0.25000000  0.00000000  0.25167800
   0.75000000  0.00000000  0.25167800
   0.25000000  0.50000000  0.25167800
   0.75000000  0.50000000  0.25167800
   0.25000000  0.25000000  0.00167800
   0.75000000  0.25000000  0.00167800
   0.25000000  0.75000000  0.00167800
   0.75000000  0.75000000  0.00167800
   0.00000000  0.25000000  0.75167800
   0.50000000  0.25000000  0.75167800
   0.00000000  0.75000000  0.75167800
   0.50000000  0.75000000  0.75167800
   0.00000000  0.00000000  0.00219000
   0.50000000  0.00000000  0.00219000
   0.00000000  0.50000000  0.00219000
   0.50000000  0.50000000  0.00219000
   0.25000000  0.00000000  0.75219000
   0.75000000  0.00000000  0.75219000
   0.25000000  0.50000000  0.75219000
   0.75000000  0.50000000  0.75219000
   0.25000000  0.25000000  0.50219000
   0.75000000  0.25000000  0.50219000
   0.25000000  0.75000000  0.50219000
   0.75000000  0.75000000  0.50219000
   0.00000000  0.25000000  0.25219000
   0.50000000  0.25000000  0.25219000
   0.00000000  0.75000000  0.25219000
   0.50000000  0.75000000  0.25219000
 
 position of ions in cartesian coordinates  (Angst):
   1.34837885  1.33874597  1.28238267
   6.60234485  1.43039847  1.28238267
   1.44003135  6.59271197  1.28238267
   6.69399735  6.68436447  1.28238267
   3.99723965  4.00687253  1.28238267
   9.25120565  4.09852503  1.28238267
   4.08889215  9.26083853  1.28238267
   9.34285815  9.35249103  1.28238267
   1.37988953  3.95141340  9.09759567
   6.63385553  4.04306590  9.09759567
   1.47154203  9.20537940  9.09759567
   6.72550803  9.29703190  9.09759567
   3.96572897  1.39420510  9.09759567
   9.21969497  1.48585760  9.09759567
   4.05738147  6.64817110  9.09759567
   9.31134747  6.73982360  9.09759567
   1.32443040  1.33406328  6.49252467
   6.57839640  1.42571578  6.49252467
   1.41608290  6.58802928  6.49252467
   6.67004890  6.67968178  6.49252467
   4.02118810  4.01155522  6.49252467
   9.27515410  4.10320772  6.49252467
   4.11284060  9.26552122  6.49252467
   9.36680660  9.35717372  6.49252467
   3.96104628  1.37025665  3.88745367
   9.21501228  1.46190915  3.88745367
   4.05269878  6.62422265  3.88745367
   9.30666478  6.71587515  3.88745367
   1.38457222  3.97536185  3.88745367
   6.63853822  4.06701435  3.88745367
   1.47622472  9.22932785  3.88745367
   6.73019072  9.32098035  3.88745367
   0.00000000  0.00000000  5.22762724
   5.25396600  0.09165250  5.22762724
   0.09165250  5.25396600  5.22762724
   5.34561850  5.34561850  5.22762724
   2.62698300  0.04582625  2.62255624
   7.88094900  0.13747875  2.62255624
   2.71863550  5.29979225  2.62255624
   7.97260150  5.39144475  2.62255624
   2.67280925  2.67280925  0.01748524
   7.92677525  2.76446175  0.01748524
   2.76446175  7.92677525  0.01748524
   8.01842775  8.01842775  0.01748524
   0.04582625  2.62698300  7.83269824
   5.29979225  2.71863550  7.83269824
   0.13747875  7.88094900  7.83269824
   5.39144475  7.97260150  7.83269824
   0.00000000  0.00000000  0.02282042
   5.25396600  0.09165250  0.02282042
   0.09165250  5.25396600  0.02282042
   5.34561850  5.34561850  0.02282042
   2.62698300  0.04582625  7.83803342
   7.88094900  0.13747875  7.83803342
   2.71863550  5.29979225  7.83803342
   7.97260150  5.39144475  7.83803342
   2.67280925  2.67280925  5.23296242
   7.92677525  2.76446175  5.23296242
   2.76446175  7.92677525  5.23296242
   8.01842775  8.01842775  5.23296242
   0.04582625  2.62698300  2.62789142
   5.29979225  2.71863550  2.62789142
   0.13747875  7.88094900  2.62789142
   5.39144475  7.97260150  2.62789142
 


--------------------------------------------------------------------------------------------------------


 k-point  1 :   0.0000 0.0000 0.0000  plane waves:   48399
 k-point  2 :   0.5000-0.0000 0.0000  plane waves:   48352
 k-point  3 :   0.5000 0.5000 0.0000  plane waves:   48416
 k-point  4 :   0.0000 0.0000 0.5000  plane waves:   48424
 k-point  5 :   0.5000-0.0000 0.5000  plane waves:   48332
 k-point  6 :   0.5000 0.5000 0.5000  plane waves:   48292

 maximum and minimum number of plane-waves per node :     48424    48292

 maximum number of plane-waves:     48424
 maximum index in each direction: 
   IXMAX=   22   IYMAX=   22   IZMAX=   22
   IXMIN=  -23   IYMIN=  -23   IZMIN=  -22


 serial   3D FFT for wavefunctions
 parallel 3D FFT for charge:
    minimum data exchange during FFTs selected (reduces bandwidth)


 total amount of memory used by VASP MPI-rank0   301249. kBytes
=======================================================================

   base      :      30000. kBytes
   nonl-proj :     175882. kBytes
   fftplans  :       4588. kBytes
   grid      :      69719. kBytes
   one-center:       1990. kBytes
   wavefun   :      19070. kBytes
 
     INWAV:  cpu time    0.0001: real time    0.0002
 Broyden mixing: mesh for mixing (old mesh)
   NGX = 45   NGY = 45   NGZ = 45
  (NGX  =192   NGY  =192   NGZ  =180)
  gives a total of  91125 points

 initial charge density was supplied:
 number of electron     688.0000413 magnetization      -0.0000000
 keeping initial charge density in first step


--------------------------------------------------------------------------------------------------------


 Maximum index for augmentation-charges          895 (set IRDMAX)


--------------------------------------------------------------------------------------------------------


 First call to EWALD:  gamma=   0.169
 Maximum number of real-space cells 3x 3x 3
 Maximum number of reciprocal cells 3x 3x 3

    FEWALD:  cpu time    0.0023: real time    0.0027


--------------------------------------- Iteration      1(   1)  ---------------------------------------


    POTLOK:  cpu time    0.3777: real time    0.3987
    SETDIJ:  cpu time    0.0151: real time    0.0153
     EDDAV:  cpu time   64.0339: real time   64.5662
 BZINTS: Fermi energy: 14.963872;688.000000 electrons
         Band energy:***********;  BLOECHL correction: -0.014675
       DOS:  cpu time    0.0196: real time    0.0197
    --------------------------------------------
      LOOP:  cpu time   64.4463: real time   65.0000

 eigenvalue-minimisations  : 12288
 total energy-change (2. order) : 0.6049002E+04  (-0.5162249E+05)
 number of electron     688.0000413 magnetization      -0.0000000
 augmentation part      688.0000413 magnetization      -0.0000000

 Free energy of the ion-electron system (eV)
  ---------------------------------------------------
  alpha Z        PSCENC =      2357.06603853
  Ewald energy   TEWEN  =    -62481.26326877
  -Hartree energ DENC   =    -42944.72316637
  -exchange      EXHF   =         0.00000000
  -V(xc)+E(xc)   XCENC  =      3286.52928411
  PAW double counting   =    112277.86938397  -115971.76775764
  entropy T*S    EENTRO =         0.00000000
  eigenvalues    EBANDS =     -4494.77384025
  atomic energy  EATOM  =    114020.06510763
  Solvation  Ediel_sol  =         0.00000000
  ---------------------------------------------------
  free energy    TOTEN  =      6049.00178120 eV

  energy without entropy =     6049.00178120  energy(sigma->0) =     6049.00178120


--------------------------------------------------------------------------------------------------------




--------------------------------------- Iteration      1(   2)  ---------------------------------------


     EDDAV:  cpu time   75.6339: real time   76.2078
 BZINTS: Fermi energy:  5.581699;688.000000 electrons
         Band energy:***********;  BLOECHL correction:  0.000000
       DOS:  cpu time    0.0040: real time    0.0040
    --------------------------------------------
      LOOP:  cpu time   75.6379: real time   76.2118

 eigenvalue-minimisations  : 13568
 total energy-change (2. order) :-0.6128043E+04  (-0.6018215E+04)
 number of electron     688.0000413 magnetization      -0.0000000
 augmentation part      688.0000413 magnetization      -0.0000000

 Free energy of the ion-electron system (eV)
  ---------------------------------------------------
  alpha Z        PSCENC =      2357.06603853
  Ewald energy   TEWEN  =    -62481.26326877
  -Hartree energ DENC   =    -42944.72316637
  -exchange      EXHF   =         0.00000000
  -V(xc)+E(xc)   XCENC  =      3286.52928411
  PAW double counting   =    112277.86938397  -115971.76775764
  entropy T*S    EENTRO =         0.00000000
  eigenvalues    EBANDS =    -10622.81651188
  atomic energy  EATOM  =    114020.06510763
  Solvation  Ediel_sol  =         0.00000000
  ---------------------------------------------------
  free energy    TOTEN  =       -79.04089044 eV

  energy without entropy =      -79.04089044  energy(sigma->0) =      -79.04089044


--------------------------------------------------------------------------------------------------------




--------------------------------------- Iteration      1(   3)  ---------------------------------------


     EDDAV:  cpu time  118.4474: real time  119.2631
 BZINTS: Fermi energy:  5.014992;688.000000 electrons
         Band energy:***********;  BLOECHL correction:  0.000000
       DOS:  cpu time    0.0037: real time    0.0037
    --------------------------------------------
      LOOP:  cpu time  118.4511: real time  119.2669

 eigenvalue-minimisations  : 17152
 total energy-change (2. order) :-0.2454654E+03  (-0.2446017E+03)
 number of electron     688.0000413 magnetization      -0.0000000
 augmentation part      688.0000413 magnetization      -0.0000000

 Free energy of the ion-electron system (eV)
  ---------------------------------------------------
  alpha Z        PSCENC =      2357.06603853
  Ewald energy   TEWEN  =    -62481.26326877
  -Hartree energ DENC   =    -42944.72316637
  -exchange      EXHF   =         0.00000000
  -V(xc)+E(xc)   XCENC  =      3286.52928411
  PAW double counting   =    112277.86938397  -115971.76775764
  entropy T*S    EENTRO =         0.00000000
  eigenvalues    EBANDS =    -10868.28186603
  atomic energy  EATOM  =    114020.06510763
  Solvation  Ediel_sol  =         0.00000000
  ---------------------------------------------------
  free energy    TOTEN  =      -324.50624458 eV

  energy without entropy =     -324.50624458  energy(sigma->0) =     -324.50624458


--------------------------------------------------------------------------------------------------------




--------------------------------------- Iteration      1(   4)  ---------------------------------------


     EDDAV:  cpu time   88.0378: real time   88.6810
 BZINTS: Fermi energy:  4.943649;688.000000 electrons
         Band energy:***********;  BLOECHL correction:  0.000000
       DOS:  cpu time    0.0034: real time    0.0034
    --------------------------------------------
      LOOP:  cpu time   88.0412: real time   88.6845

 eigenvalue-minimisations  : 14336
 total energy-change (2. order) :-0.3378970E+01  (-0.3378828E+01)
 number of electron     688.0000413 magnetization      -0.0000000
 augmentation part      688.0000413 magnetization      -0.0000000

 Free energy of the ion-electron system (eV)
  ---------------------------------------------------
  alpha Z        PSCENC =      2357.06603853
  Ewald energy   TEWEN  =    -62481.26326877
  -Hartree energ DENC   =    -42944.72316637
  -exchange      EXHF   =         0.00000000
  -V(xc)+E(xc)   XCENC  =      3286.52928411
  PAW double counting   =    112277.86938397  -115971.76775764
  entropy T*S    EENTRO =         0.00000000
  eigenvalues    EBANDS =    -10871.66083621
  atomic energy  EATOM  =    114020.06510763
  Solvation  Ediel_sol  =         0.00000000
  ---------------------------------------------------
  free energy    TOTEN  =      -327.88521476 eV

  energy without entropy =     -327.88521476  energy(sigma->0) =     -327.88521476


--------------------------------------------------------------------------------------------------------




--------------------------------------- Iteration      1(   5)  ---------------------------------------


     EDDAV:  cpu time  116.3850: real time  117.1845
 BZINTS: Fermi energy:  4.854905;688.000000 electrons
         Band energy:***********;  BLOECHL correction:  0.000000
       DOS:  cpu time    0.0034: real time    0.0034
    CHARGE:  cpu time    1.1871: real time    1.1949
    MIXING:  cpu time    0.0030: real time    0.0030
    --------------------------------------------
      LOOP:  cpu time  117.5784: real time  118.3858

 eigenvalue-minimisations  : 16640
 total energy-change (2. order) :-0.1032204E+00  (-0.1032200E+00)
 number of electron     688.0000413 magnetization      -0.0000000
 augmentation part      282.2361388 magnetization      -0.0000000

 Broyden mixing:
  rms(total) = 0.25454E-01    rms(broyden)= 0.25450E-01
  rms(prec ) = 0.25515E-01
  weight for this iteration     100.00

 Free energy of the ion-electron system (eV)
  ---------------------------------------------------
  alpha Z        PSCENC =      2357.06603853
  Ewald energy   TEWEN  =    -62481.26326877
  -Hartree energ DENC   =    -42944.72316637
  -exchange      EXHF   =         0.00000000
  -V(xc)+E(xc)   XCENC  =      3286.52928411
  PAW double counting   =    112277.86938397  -115971.76775764
  entropy T*S    EENTRO =         0.00000000
  eigenvalues    EBANDS =    -10871.76405664
  atomic energy  EATOM  =    114020.06510763
  Solvation  Ediel_sol  =         0.00000000
  ---------------------------------------------------
  free energy    TOTEN  =      -327.98843519 eV

  energy without entropy =     -327.98843519  energy(sigma->0) =     -327.98843519


--------------------------------------------------------------------------------------------------------




--------------------------------------- Iteration      1(   6)  ---------------------------------------


    POTLOK:  cpu time    0.1507: real time    0.1524
    SETDIJ:  cpu time    0.0136: real time    0.0137
     EDDAV:  cpu time  117.0844: real time  117.8883
 BZINTS: Fermi energy:  4.997498;688.000000 electrons
         Band energy:***********;  BLOECHL correction:  0.000000
       DOS:  cpu time    0.0041: real time    0.0042
    CHARGE:  cpu time    1.4490: real time    1.4575
    MIXING:  cpu time    0.0029: real time    0.0109
    --------------------------------------------
      LOOP:  cpu time  118.7048: real time  119.5269

 eigenvalue-minimisations  : 16640
 total energy-change (2. order) :-0.5086890E-02  (-0.5105411E-02)
 number of electron     688.0000413 magnetization      -0.0000000
 augmentation part      282.2097193 magnetization      -0.0000000

 Broyden mixing:
  rms(total) = 0.96487E-02    rms(broyden)= 0.96458E-02
  rms(prec ) = 0.10016E-01
  weight for this iteration     100.00

 eigenvalues of (default mixing * dielectric matrix)
  average eigenvalue GAMMA=   0.7231
  0.7231

 Free energy of the ion-electron system (eV)
  ---------------------------------------------------
  alpha Z        PSCENC =      2357.06603853
  Ewald energy   TEWEN  =    -62481.26326877
  -Hartree energ DENC   =    -42945.27273366
  -exchange      EXHF   =         0.00000000
  -V(xc)+E(xc)   XCENC  =      3286.55309314
  PAW double counting   =    112298.67183579  -115992.76024311
  entropy T*S    EENTRO =         0.00000000
  eigenvalues    EBANDS =    -10871.05335164
  atomic energy  EATOM  =    114020.06510763
  Solvation  Ediel_sol  =         0.00000000
  ---------------------------------------------------
  free energy    TOTEN  =      -327.99352208 eV

  energy without entropy =     -327.99352208  energy(sigma->0) =     -327.99352208


--------------------------------------------------------------------------------------------------------




--------------------------------------- Iteration      1(   7)  ---------------------------------------


    POTLOK:  cpu time    0.1591: real time    0.1602
    SETDIJ:  cpu time    0.0167: real time    0.0167
     EDDAV:  cpu time  111.9771: real time  112.7488
 BZINTS: Fermi energy:  4.969424;688.000000 electrons
         Band energy:***********;  BLOECHL correction:  0.000000
       DOS:  cpu time    0.0038: real time    0.0038
    CHARGE:  cpu time    1.1874: real time    1.1950
    MIXING:  cpu time    0.0020: real time    0.0029
    --------------------------------------------
      LOOP:  cpu time  113.3461: real time  114.1275

 eigenvalue-minimisations  : 16128
 total energy-change (2. order) :-0.2980026E-03  (-0.3375969E-03)
 number of electron     688.0000413 magnetization       0.0000000
 augmentation part      282.2237357 magnetization       0.0000000

 Broyden mixing:
  rms(total) = 0.86821E-02    rms(broyden)= 0.86811E-02
  rms(prec ) = 0.89907E-02
  weight for this iteration     100.00

 eigenvalues of (default mixing * dielectric matrix)
  average eigenvalue GAMMA=   0.5474
  0.5474  0.5474

 Free energy of the ion-electron system (eV)
  ---------------------------------------------------
  alpha Z        PSCENC =      2357.06603853
  Ewald energy   TEWEN  =    -62481.26326877
  -Hartree energ DENC   =    -42944.36052317
  -exchange      EXHF   =         0.00000000
  -V(xc)+E(xc)   XCENC  =      3286.52421149
  PAW double counting   =    112291.35941673  -115985.28030772
  entropy T*S    EENTRO =         0.00000000
  eigenvalues    EBANDS =    -10872.10449479
  atomic energy  EATOM  =    114020.06510763
  Solvation  Ediel_sol  =         0.00000000
  ---------------------------------------------------
  free energy    TOTEN  =      -327.99382008 eV

  energy without entropy =     -327.99382008  energy(sigma->0) =     -327.99382008


--------------------------------------------------------------------------------------------------------




--------------------------------------- Iteration      1(   8)  ---------------------------------------


    POTLOK:  cpu time    0.1488: real time    0.1515
    SETDIJ:  cpu time    0.0134: real time    0.0135
     EDDAV:  cpu time   93.9282: real time   94.5945
 BZINTS: Fermi energy:  4.965236;688.000000 electrons
         Band energy:***********;  BLOECHL correction:  0.000000
       DOS:  cpu time    0.0039: real time    0.0039
    CHARGE:  cpu time    1.1860: real time    1.1936
    MIXING:  cpu time    0.0020: real time    0.0366
    --------------------------------------------
      LOOP:  cpu time   95.2823: real time   95.9936

 eigenvalue-minimisations  : 14592
 total energy-change (2. order) :-0.1419730E-04  (-0.3239643E-04)
 number of electron     688.0000413 magnetization       0.0000000
 augmentation part      282.2212128 magnetization       0.0000000

 Broyden mixing:
  rms(total) = 0.75921E-02    rms(broyden)= 0.75919E-02
  rms(prec ) = 0.76644E-02
  weight for this iteration     100.00

 eigenvalues of (default mixing * dielectric matrix)
  average eigenvalue GAMMA=   0.4227
  0.5062  0.5062  0.2557

 Free energy of the ion-electron system (eV)
  ---------------------------------------------------
  alpha Z        PSCENC =      2357.06603853
  Ewald energy   TEWEN  =    -62481.26326877
  -Hartree energ DENC   =    -42944.67227423
  -exchange      EXHF   =         0.00000000
  -V(xc)+E(xc)   XCENC  =      3286.53489088
  PAW double counting   =    112289.89430750  -115983.84835723
  entropy T*S    EENTRO =         0.00000000
  eigenvalues    EBANDS =    -10871.77027858
  atomic energy  EATOM  =    114020.06510763
  Solvation  Ediel_sol  =         0.00000000
  ---------------------------------------------------
  free energy    TOTEN  =      -327.99383428 eV

  energy without entropy =     -327.99383428  energy(sigma->0) =     -327.99383428


--------------------------------------------------------------------------------------------------------




--------------------------------------- Iteration      1(   9)  ---------------------------------------


    POTLOK:  cpu time    0.1509: real time    0.1519
    SETDIJ:  cpu time    0.0133: real time    0.0134
     EDDAV:  cpu time  126.7262: real time  127.5811
 BZINTS: Fermi energy:  4.961411;688.000000 electrons
         Band energy:***********;  BLOECHL correction:  0.000000
       DOS:  cpu time    0.0039: real time    0.0039
    CHARGE:  cpu time    1.1835: real time    1.1915
    MIXING:  cpu time    0.0018: real time    0.0018
    --------------------------------------------
      LOOP:  cpu time  128.0796: real time  128.9436

 eigenvalue-minimisations  : 17152
 total energy-change (2. order) :-0.7690687E-07  (-0.1968549E-05)
 number of electron     688.0000413 magnetization       0.0000000
 augmentation part      282.2202622 magnetization       0.0000000

 Broyden mixing:
  rms(total) = 0.68249E-02    rms(broyden)= 0.68249E-02
  rms(prec ) = 0.68407E-02
  weight for this iteration     100.00

 eigenvalues of (default mixing * dielectric matrix)
  average eigenvalue GAMMA=   0.4927
  0.6390  0.6390  0.3463  0.3463

 Free energy of the ion-electron system (eV)
  ---------------------------------------------------
  alpha Z        PSCENC =      2357.06603853
  Ewald energy   TEWEN  =    -62481.26326877
  -Hartree energ DENC   =    -42944.70100158
  -exchange      EXHF   =         0.00000000
  -V(xc)+E(xc)   XCENC  =      3286.53398061
  PAW double counting   =    112289.01312535  -115982.96931547
  entropy T*S    EENTRO =         0.00000000
  eigenvalues    EBANDS =    -10871.73850065
  atomic energy  EATOM  =    114020.06510763
  Solvation  Ediel_sol  =         0.00000000
  ---------------------------------------------------
  free energy    TOTEN  =      -327.99383436 eV

  energy without entropy =     -327.99383436  energy(sigma->0) =     -327.99383436


--------------------------------------------------------------------------------------------------------




--------------------------------------- Iteration      1(  10)  ---------------------------------------


    POTLOK:  cpu time    0.1510: real time    0.1529
    SETDIJ:  cpu time    0.0132: real time    0.0133
     EDDAV:  cpu time  116.3564: real time  117.1579
 BZINTS: Fermi energy:  4.956460;688.000000 electrons
         Band energy:***********;  BLOECHL correction:  0.000000
       DOS:  cpu time    0.0039: real time    0.0039
    CHARGE:  cpu time    1.1849: real time    1.1924
    MIXING:  cpu time    0.0018: real time    0.0018
    --------------------------------------------
      LOOP:  cpu time  117.7110: real time  118.5221

 eigenvalue-minimisations  : 16640
 total energy-change (2. order) : 0.2149754E-06  (-0.1097224E-06)
 number of electron     688.0000413 magnetization      -0.0000000
 augmentation part      282.2199499 magnetization      -0.0000000

 Broyden mixing:
  rms(total) = 0.58711E-02    rms(broyden)= 0.58711E-02
  rms(prec ) = 0.58858E-02
  weight for this iteration     100.00

 eigenvalues of (default mixing * dielectric matrix)
  average eigenvalue GAMMA=   0.7487
  1.2182  1.2182  0.4814  0.4814  0.3443

 Free energy of the ion-electron system (eV)
  ---------------------------------------------------
  alpha Z        PSCENC =      2357.06603853
  Ewald energy   TEWEN  =    -62481.26326877
  -Hartree energ DENC   =    -42944.73362483
  -exchange      EXHF   =         0.00000000
  -V(xc)+E(xc)   XCENC  =      3286.53394306
  PAW double counting   =    112287.38486194  -115981.33468633
  entropy T*S    EENTRO =         0.00000000
  eigenvalues    EBANDS =    -10871.71220536
  atomic energy  EATOM  =    114020.06510763
  Solvation  Ediel_sol  =         0.00000000
  ---------------------------------------------------
  free energy    TOTEN  =      -327.99383414 eV

  energy without entropy =     -327.99383414  energy(sigma->0) =     -327.99383414


--------------------------------------------------------------------------------------------------------




--------------------------------------- Iteration      1(  11)  ---------------------------------------


    POTLOK:  cpu time    0.1484: real time    0.1529
    SETDIJ:  cpu time    0.0134: real time    0.0134
     EDDAV:  cpu time  108.1498: real time  108.8908
 BZINTS: Fermi energy:  4.951380;688.000000 electrons
         Band energy:***********;  BLOECHL correction:  0.000000
       DOS:  cpu time    0.0039: real time    0.0039
    CHARGE:  cpu time    1.1931: real time    1.2004
    MIXING:  cpu time    0.0022: real time    0.0022
    --------------------------------------------
      LOOP:  cpu time  109.5108: real time  110.2637

 eigenvalue-minimisations  : 15616
 total energy-change (2. order) : 0.8855714E-06  (-0.1065105E-06)
 number of electron     688.0000413 magnetization      -0.0000000
 augmentation part      282.2206619 magnetization      -0.0000000

 Broyden mixing:
  rms(total) = 0.28786E-02    rms(broyden)= 0.28786E-02
  rms(prec ) = 0.28880E-02
  weight for this iteration     100.00

 eigenvalues of (default mixing * dielectric matrix)
  average eigenvalue GAMMA=   0.8995
  1.5934  1.5934  0.6675  0.6675  0.5367  0.3384

 Free energy of the ion-electron system (eV)
  ---------------------------------------------------
  alpha Z        PSCENC =      2357.06603853
  Ewald energy   TEWEN  =    -62481.26326877
  -Hartree energ DENC   =    -42944.75170921
  -exchange      EXHF   =         0.00000000
  -V(xc)+E(xc)   XCENC  =      3286.53260527
  PAW double counting   =    112282.36849723  -115976.28650974
  entropy T*S    EENTRO =         0.00000000
  eigenvalues    EBANDS =    -10871.72459419
  atomic energy  EATOM  =    114020.06510763
  Solvation  Ediel_sol  =         0.00000000
  ---------------------------------------------------
  free energy    TOTEN  =      -327.99383326 eV

  energy without entropy =     -327.99383326  energy(sigma->0) =     -327.99383326


--------------------------------------------------------------------------------------------------------




--------------------------------------- Iteration      1(  12)  ---------------------------------------


    POTLOK:  cpu time    0.1545: real time    0.1556
    SETDIJ:  cpu time    0.0139: real time    0.0140
     EDDAV:  cpu time  118.9962: real time  119.8181
 BZINTS: Fermi energy:  4.944820;688.000000 electrons
         Band energy:***********;  BLOECHL correction:  0.000000
       DOS:  cpu time    0.0034: real time    0.0034
    CHARGE:  cpu time    1.1979: real time    1.2050
    MIXING:  cpu time    0.0022: real time    0.0022
    --------------------------------------------
      LOOP:  cpu time  120.3680: real time  121.1982

 eigenvalue-minimisations  : 17152
 total energy-change (2. order) : 0.5773763E-06  (-0.1163697E-06)
 number of electron     688.0000413 magnetization      -0.0000000
 augmentation part      282.2216420 magnetization      -0.0000000

 Broyden mixing:
  rms(total) = 0.18594E-03    rms(broyden)= 0.18594E-03
  rms(prec ) = 0.20434E-03
  weight for this iteration     100.00

 eigenvalues of (default mixing * dielectric matrix)
  average eigenvalue GAMMA=   0.9046
  2.0429  1.0376  1.0376  0.6745  0.6745  0.5244  0.3408

 Free energy of the ion-electron system (eV)
  ---------------------------------------------------
  alpha Z        PSCENC =      2357.06603853
  Ewald energy   TEWEN  =    -62481.26326877
  -Hartree energ DENC   =    -42944.75778222
  -exchange      EXHF   =         0.00000000
  -V(xc)+E(xc)   XCENC  =      3286.53149154
  PAW double counting   =    112277.53677779  -115971.42563338
  entropy T*S    EENTRO =         0.00000000
  eigenvalues    EBANDS =    -10871.74656379
  atomic energy  EATOM  =    114020.06510763
  Solvation  Ediel_sol  =         0.00000000
  ---------------------------------------------------
  free energy    TOTEN  =      -327.99383268 eV

  energy without entropy =     -327.99383268  energy(sigma->0) =     -327.99383268


--------------------------------------------------------------------------------------------------------




--------------------------------------- Iteration      1(  13)  ---------------------------------------


    POTLOK:  cpu time    0.1471: real time    0.1511
    SETDIJ:  cpu time    0.0137: real time    0.0138
     EDDAV:  cpu time   95.3120: real time   95.9788
 BZINTS: Fermi energy:  4.942897;688.000000 electrons
         Band energy:***********;  BLOECHL correction:  0.000000
       DOS:  cpu time    0.0039: real time    0.0039
    CHARGE:  cpu time    1.4581: real time    1.4658
    MIXING:  cpu time    0.0024: real time    0.0025
    --------------------------------------------
      LOOP:  cpu time   96.9372: real time   97.6158

 eigenvalue-minimisations  : 14336
 total energy-change (2. order) : 0.2623710E-07  (-0.9828833E-08)
 number of electron     688.0000413 magnetization      -0.0000000
 augmentation part      282.2217346 magnetization      -0.0000000

 Broyden mixing:
  rms(total) = 0.21028E-03    rms(broyden)= 0.21027E-03
  rms(prec ) = 0.21480E-03
  weight for this iteration     100.00

 eigenvalues of (default mixing * dielectric matrix)
  average eigenvalue GAMMA=   1.0381
  2.6111  1.3959  1.3959  0.7386  0.7386  0.3403  0.5424  0.5424

 Free energy of the ion-electron system (eV)
  ---------------------------------------------------
  alpha Z        PSCENC =      2357.06603853
  Ewald energy   TEWEN  =    -62481.26326877
  -Hartree energ DENC   =    -42944.75799662
  -exchange      EXHF   =         0.00000000
  -V(xc)+E(xc)   XCENC  =      3286.53139790
  PAW double counting   =    112277.01911810  -115970.90578434
  entropy T*S    EENTRO =         0.00000000
  eigenvalues    EBANDS =    -10871.74844508
  atomic energy  EATOM  =    114020.06510763
  Solvation  Ediel_sol  =         0.00000000
  ---------------------------------------------------
  free energy    TOTEN  =      -327.99383265 eV

  energy without entropy =     -327.99383265  energy(sigma->0) =     -327.99383265


--------------------------------------------------------------------------------------------------------




--------------------------------------- Iteration      1(  14)  ---------------------------------------


    POTLOK:  cpu time    0.1640: real time    0.1652
    SETDIJ:  cpu time    0.0167: real time    0.0168
     EDDAV:  cpu time   77.3815: real time   77.9266
 BZINTS: Fermi energy:  4.942808;688.000000 electrons
         Band energy:***********;  BLOECHL correction:  0.000000
       DOS:  cpu time    0.0040: real time    0.0040
    CHARGE:  cpu time    1.1873: real time    1.1950
    MIXING:  cpu time    0.0025: real time    0.0025
    --------------------------------------------
      LOOP:  cpu time   78.7560: real time   79.3101

 eigenvalue-minimisations  : 11264
 total energy-change (2. order) :-0.1322769E-07  (-0.6321125E-08)
 number of electron     688.0000413 magnetization      -0.0000000
 augmentation part      282.2217675 magnetization      -0.0000000

 Broyden mixing:
  rms(total) = 0.13110E-03    rms(broyden)= 0.13109E-03
  rms(prec ) = 0.13281E-03
  weight for this iteration     100.00

 eigenvalues of (default mixing * dielectric matrix)
  average eigenvalue GAMMA=   1.1450
  3.4009  1.5584  1.5584  0.8689  0.8689  0.3403  0.5913  0.5913  0.5269

 Free energy of the ion-electron system (eV)
  ---------------------------------------------------
  alpha Z        PSCENC =      2357.06603853
  Ewald energy   TEWEN  =    -62481.26326877
  -Hartree energ DENC   =    -42944.75424840
  -exchange      EXHF   =         0.00000000
  -V(xc)+E(xc)   XCENC  =      3286.53138238
  PAW double counting   =    112277.07768229  -115970.96582917
  entropy T*S    EENTRO =         0.00000000
  eigenvalues    EBANDS =    -10871.75069714
  atomic energy  EATOM  =    114020.06510763
  Solvation  Ediel_sol  =         0.00000000
  ---------------------------------------------------
  free energy    TOTEN  =      -327.99383267 eV

  energy without entropy =     -327.99383267  energy(sigma->0) =     -327.99383267


--------------------------------------------------------------------------------------------------------




--------------------------------------- Iteration      1(  15)  ---------------------------------------


    POTLOK:  cpu time    0.1505: real time    0.1515
    SETDIJ:  cpu time    0.0133: real time    0.0133
     EDDAV:  cpu time   71.4060: real time   71.9119
 BZINTS: Fermi energy:  4.942782;688.000000 electrons
         Band energy:***********;  BLOECHL correction:  0.000000
       DOS:  cpu time    0.0040: real time    0.0040
    CHARGE:  cpu time    1.1880: real time    1.1952
    MIXING:  cpu time    0.0020: real time    0.0020
    --------------------------------------------
      LOOP:  cpu time   72.7638: real time   73.2780

 eigenvalue-minimisations  : 10240
 total energy-change (2. order) : 0.2364686E-07  (-0.2325364E-08)
 number of electron     688.0000413 magnetization       0.0000000
 augmentation part      282.2217627 magnetization       0.0000000

 Broyden mixing:
  rms(total) = 0.22033E-03    rms(broyden)= 0.22033E-03
  rms(prec ) = 0.22107E-03
  weight for this iteration     100.00

 eigenvalues of (default mixing * dielectric matrix)
  average eigenvalue GAMMA=   1.1449
  3.4585  1.6758  1.6758  0.9460  0.9460  0.3402  0.6543  0.6543  0.5492  0.5492

 Free energy of the ion-electron system (eV)
  ---------------------------------------------------
  alpha Z        PSCENC =      2357.06603853
  Ewald energy   TEWEN  =    -62481.26326877
  -Hartree energ DENC   =    -42944.75483429
  -exchange      EXHF   =         0.00000000
  -V(xc)+E(xc)   XCENC  =      3286.53131230
  PAW double counting   =    112276.89614371  -115970.78357436
  entropy T*S    EENTRO =         0.00000000
  eigenvalues    EBANDS =    -10871.75075739
  atomic energy  EATOM  =    114020.06510763
  Solvation  Ediel_sol  =         0.00000000
  ---------------------------------------------------
  free energy    TOTEN  =      -327.99383264 eV

  energy without entropy =     -327.99383264  energy(sigma->0) =     -327.99383264


--------------------------------------------------------------------------------------------------------




--------------------------------------- Iteration      1(  16)  ---------------------------------------


    POTLOK:  cpu time    0.1492: real time    0.1511
    SETDIJ:  cpu time    0.0131: real time    0.0132
     EDDAV:  cpu time   86.5421: real time   87.1359
 BZINTS: Fermi energy:  4.942772;688.000000 electrons
         Band energy:***********;  BLOECHL correction:  0.000000
       DOS:  cpu time    0.0040: real time    0.0040
    CHARGE:  cpu time    1.1880: real time    1.1950
    MIXING:  cpu time    0.0023: real time    0.0030
    --------------------------------------------
      LOOP:  cpu time   87.8987: real time   88.5022

 eigenvalue-minimisations  : 11520
 total energy-change (2. order) :-0.1484295E-07  (-0.2040230E-09)
 number of electron     688.0000413 magnetization       0.0000000
 augmentation part      282.2217378 magnetization       0.0000000

 Broyden mixing:
  rms(total) = 0.17284E-03    rms(broyden)= 0.17284E-03
  rms(prec ) = 0.17325E-03
  weight for this iteration     100.00

 eigenvalues of (default mixing * dielectric matrix)
  average eigenvalue GAMMA=   1.2366
  3.7739  2.0194  2.0194  1.1370  1.1370  0.3402  0.7278  0.7278  0.5397  0.5902
  0.5902

 Free energy of the ion-electron system (eV)
  ---------------------------------------------------
  alpha Z        PSCENC =      2357.06603853
  Ewald energy   TEWEN  =    -62481.26326877
  -Hartree energ DENC   =    -42944.75572124
  -exchange      EXHF   =         0.00000000
  -V(xc)+E(xc)   XCENC  =      3286.53135532
  PAW double counting   =    112276.96402107  -115970.85190114
  entropy T*S    EENTRO =         0.00000000
  eigenvalues    EBANDS =    -10871.74946406
  atomic energy  EATOM  =    114020.06510763
  Solvation  Ediel_sol  =         0.00000000
  ---------------------------------------------------
  free energy    TOTEN  =      -327.99383266 eV

  energy without entropy =     -327.99383266  energy(sigma->0) =     -327.99383266


--------------------------------------------------------------------------------------------------------




--------------------------------------- Iteration      1(  17)  ---------------------------------------


    POTLOK:  cpu time    0.1484: real time    0.1495
    SETDIJ:  cpu time    0.0133: real time    0.0133
     EDDAV:  cpu time   84.5599: real time   85.1385
 BZINTS: Fermi energy:  4.942769;688.000000 electrons
         Band energy:***********;  BLOECHL correction:  0.000000
       DOS:  cpu time    0.0039: real time    0.0040
    CHARGE:  cpu time    1.1856: real time    1.1930
    MIXING:  cpu time    0.0023: real time    0.0023
    --------------------------------------------
      LOOP:  cpu time   85.9134: real time   86.5007

 eigenvalue-minimisations  : 11264
 total energy-change (2. order) :-0.2625166E-07  (-0.2650361E-09)
 number of electron     688.0000413 magnetization       0.0000000
 augmentation part      282.2217022 magnetization       0.0000000

 Broyden mixing:
  rms(total) = 0.63667E-04    rms(broyden)= 0.63667E-04
  rms(prec ) = 0.63781E-04
  weight for this iteration     100.00

 eigenvalues of (default mixing * dielectric matrix)
  average eigenvalue GAMMA=   1.2234
  3.8941  2.0352  2.0352  1.2181  1.2181  0.7921  0.7921  0.3402  0.6196  0.6196
  0.5581  0.5581

 Free energy of the ion-electron system (eV)
  ---------------------------------------------------
  alpha Z        PSCENC =      2357.06603853
  Ewald energy   TEWEN  =    -62481.26326877
  -Hartree energ DENC   =    -42944.75535759
  -exchange      EXHF   =         0.00000000
  -V(xc)+E(xc)   XCENC  =      3286.53141286
  PAW double counting   =    112277.13537149  -115971.02435855
  entropy T*S    EENTRO =         0.00000000
  eigenvalues    EBANDS =    -10871.74877828
  atomic energy  EATOM  =    114020.06510763
  Solvation  Ediel_sol  =         0.00000000
  ---------------------------------------------------
  free energy    TOTEN  =      -327.99383268 eV

  energy without entropy =     -327.99383268  energy(sigma->0) =     -327.99383268


--------------------------------------------------------------------------------------------------------




--------------------------------------- Iteration      1(  18)  ---------------------------------------


    POTLOK:  cpu time    0.1472: real time    0.1519
    SETDIJ:  cpu time    0.0135: real time    0.0136
     EDDAV:  cpu time   57.9618: real time   58.3927
 BZINTS: Fermi energy:  4.942766;688.000000 electrons
         Band energy:***********;  BLOECHL correction:  0.000000
       DOS:  cpu time    0.0039: real time    0.0039
    --------------------------------------------
      LOOP:  cpu time   58.1264: real time   58.5621

 eigenvalue-minimisations  :  9216
 total energy-change (2. order) :-0.6475602E-08  ( 0.7493825E-10)
 number of electron     688.0000413 magnetization       0.0000000
 augmentation part      282.2217022 magnetization       0.0000000

 Free energy of the ion-electron system (eV)
  ---------------------------------------------------
  alpha Z        PSCENC =      2357.06603853
  Ewald energy   TEWEN  =    -62481.26326877
  -Hartree energ DENC   =    -42944.75482287
  -exchange      EXHF   =         0.00000000
  -V(xc)+E(xc)   XCENC  =      3286.53141498
  PAW double counting   =    112277.18879485  -115971.07806380
  entropy T*S    EENTRO =         0.00000000
  eigenvalues    EBANDS =    -10871.74903323
  atomic energy  EATOM  =    114020.06510763
  Solvation  Ediel_sol  =         0.00000000
  ---------------------------------------------------
  free energy    TOTEN  =      -327.99383269 eV

  energy without entropy =     -327.99383269  energy(sigma->0) =     -327.99383269


--------------------------------------------------------------------------------------------------------




 average (electrostatic) potential at core
  the test charge radii are     0.9698  0.8297  0.9500
  (the norm of the test charge is              1.0000)
       1 -86.6169       2 -86.6169       3 -86.6169       4 -86.6169       5 -86.6169
       6 -86.6169       7 -86.6169       8 -86.6169       9 -86.6169      10 -86.6169
      11 -86.6169      12 -86.6169      13 -86.6169      14 -86.6169      15 -86.6169
      16 -86.6169      17 -86.6169      18 -86.6169      19 -86.6169      20 -86.6169
      21 -86.6169      22 -86.6169      23 -86.6169      24 -86.6169      25 -86.6169
      26 -86.6169      27 -86.6169      28 -86.6169      29 -86.6169      30 -86.6169
      31 -86.6169      32 -86.6169      33 -80.6973      34 -80.6973      35 -80.6973
      36 -80.6973      37 -80.6973      38 -80.6973      39 -80.6973      40 -80.6973
      41 -80.6973      42 -80.6973      43 -80.6973      44 -80.6973      45 -80.6973
      46 -80.6973      47 -80.6973      48 -80.6973      49 -80.2211      50 -80.2211
      51 -80.2211      52 -80.2211      53 -80.2211      54 -80.2211      55 -80.2211
      56 -80.2211      57 -80.2211      58 -80.2211      59 -80.2211      60 -80.2211
      61 -80.2211      62 -80.2211      63 -80.2211      64 -80.2211
 
 
 
 E-fermi :   4.9428     XC(G=0): -10.4691     alpha+bet :-10.5505


 spin component 1

 k-point     1 :       0.0000    0.0000    0.0000
  band No.  band energies     occupation 
      1     -64.3084      1.00000
      2     -64.3084      1.00000
      3     -64.3084      1.00000
      4     -64.3084      1.00000
      5     -64.3084      1.00000
      6     -64.3084      1.00000
      7     -64.3084      1.00000
[...]
   -.421E+02 0.274E+00 0.108E+02   0.429E+02 -.262E+00 -.109E+02   -.863E+00 -.113E-01 0.104E+00   -.724E-05 0.166E-07 0.214E-06
   -.421E+02 0.274E+00 0.108E+02   0.429E+02 -.262E+00 -.109E+02   -.863E+00 -.113E-01 0.104E+00   -.724E-05 0.166E-07 0.214E-06
   -.421E+02 0.274E+00 0.108E+02   0.429E+02 -.262E+00 -.109E+02   -.863E+00 -.113E-01 0.104E+00   -.724E-05 0.166E-07 0.214E-06
   -.421E+02 0.274E+00 0.108E+02   0.429E+02 -.262E+00 -.109E+02   -.863E+00 -.113E-01 0.104E+00   -.724E-05 0.166E-07 0.214E-06
   0.421E+02 -.274E+00 0.108E+02   -.429E+02 0.262E+00 -.109E+02   0.863E+00 0.113E-01 0.104E+00   0.724E-05 -.166E-07 0.214E-06
   0.421E+02 -.274E+00 0.108E+02   -.429E+02 0.262E+00 -.109E+02   0.863E+00 0.113E-01 0.104E+00   0.724E-05 -.166E-07 0.214E-06
   0.421E+02 -.274E+00 0.108E+02   -.429E+02 0.262E+00 -.109E+02   0.863E+00 0.113E-01 0.104E+00   0.724E-05 -.166E-07 0.214E-06
   0.421E+02 -.274E+00 0.108E+02   -.429E+02 0.262E+00 -.109E+02   0.863E+00 0.113E-01 0.104E+00   0.724E-05 -.166E-07 0.214E-06
   0.274E+00 -.421E+02 0.108E+02   -.262E+00 0.429E+02 -.109E+02   -.113E-01 -.863E+00 0.104E+00   0.166E-07 -.724E-05 0.214E-06
   0.274E+00 -.421E+02 0.108E+02   -.262E+00 0.429E+02 -.109E+02   -.113E-01 -.863E+00 0.104E+00   0.166E-07 -.724E-05 0.214E-06
   0.274E+00 -.421E+02 0.108E+02   -.262E+00 0.429E+02 -.109E+02   -.113E-01 -.863E+00 0.104E+00   0.166E-07 -.724E-05 0.214E-06
   0.274E+00 -.421E+02 0.108E+02   -.262E+00 0.429E+02 -.109E+02   -.113E-01 -.863E+00 0.104E+00   0.166E-07 -.724E-05 0.214E-06
   -.274E+00 0.421E+02 0.108E+02   0.262E+00 -.429E+02 -.109E+02   0.113E-01 0.863E+00 0.104E+00   -.166E-07 0.724E-05 0.214E-06
   -.274E+00 0.421E+02 0.108E+02   0.262E+00 -.429E+02 -.109E+02   0.113E-01 0.863E+00 0.104E+00   -.166E-07 0.724E-05 0.214E-06
   -.274E+00 0.421E+02 0.108E+02   0.262E+00 -.429E+02 -.109E+02   0.113E-01 0.863E+00 0.104E+00   -.166E-07 0.724E-05 0.214E-06
   -.274E+00 0.421E+02 0.108E+02   0.262E+00 -.429E+02 -.109E+02   0.113E-01 0.863E+00 0.104E+00   -.166E-07 0.724E-05 0.214E-06
   -.217E-06 0.343E-07 -.127E+02   0.279E-12 0.000E+00 0.121E+02   0.816E-25 -.258E-25 0.513E+00   0.101E-11 -.890E-12 0.428E-06
   -.217E-06 0.343E-07 -.127E+02   0.311E-12 0.000E+00 0.121E+02   0.232E-25 -.646E-26 0.513E+00   -.141E-11 -.684E-12 0.428E-06
   -.217E-06 0.343E-07 -.127E+02   0.336E-12 0.284E-13 0.121E+02   -.110E-24 0.258E-25 0.513E+00   0.412E-12 0.837E-12 0.428E-06
   -.217E-06 0.343E-07 -.127E+02   0.368E-12 0.284E-13 0.121E+02   -.636E-26 -.614E-25 0.513E+00   -.100E-11 0.489E-12 0.428E-06
   0.343E-07 -.217E-06 -.127E+02   -.568E-13 0.398E-12 0.121E+02   -.737E-26 0.469E-25 0.513E+00   0.247E-12 -.543E-12 0.428E-06
   0.343E-07 -.217E-06 -.127E+02   -.284E-13 0.455E-12 0.121E+02   -.242E-25 -.258E-25 0.513E+00   -.599E-12 -.224E-12 0.428E-06
   0.343E-07 -.217E-06 -.127E+02   -.568E-13 0.426E-12 0.121E+02   0.359E-25 0.103E-24 0.513E+00   -.210E-12 0.572E-12 0.428E-06
   0.343E-07 -.217E-06 -.127E+02   -.568E-13 0.426E-12 0.121E+02   0.459E-25 -.118E-24 0.513E+00   -.184E-12 0.422E-12 0.428E-06
   -.217E-06 0.343E-07 -.127E+02   0.398E-12 -.216E-12 0.121E+02   0.291E-25 -.452E-25 0.513E+00   -.121E-11 0.297E-11 0.428E-06
   -.217E-06 0.343E-07 -.127E+02   0.369E-12 -.216E-12 0.121E+02   -.234E-25 0.258E-25 0.513E+00   0.489E-12 0.343E-11 0.428E-06
   -.217E-06 0.343E-07 -.127E+02   0.369E-12 -.238E-12 0.121E+02   0.109E-24 -.232E-25 0.513E+00   -.154E-11 -.322E-11 0.428E-06
   -.217E-06 0.343E-07 -.127E+02   0.398E-12 -.238E-12 0.121E+02   0.767E-25 -.258E-25 0.513E+00   0.103E-11 -.339E-11 0.428E-06
   0.343E-07 -.217E-06 -.127E+02   -.450E-14 0.202E-12 0.121E+02   -.374E-25 0.646E-25 0.513E+00   -.660E-12 0.366E-11 0.428E-06
   0.343E-07 -.217E-06 -.127E+02   0.266E-13 0.202E-12 0.121E+02   0.323E-25 -.517E-25 0.513E+00   0.211E-12 0.317E-11 0.428E-06
   0.343E-07 -.217E-06 -.127E+02   0.523E-13 0.237E-12 0.121E+02   -.969E-26 0.129E-25 0.513E+00   -.688E-12 -.354E-11 0.428E-06
   0.343E-07 -.217E-06 -.127E+02   0.550E-13 0.294E-12 0.121E+02   0.382E-25 0.388E-25 0.513E+00   0.480E-12 -.317E-11 0.428E-06
   0.521E-07 -.764E-07 -.103E+02   -.260E-12 -.227E-12 0.966E+01   -.452E-25 0.155E-24 0.613E+00   -.397E-12 -.447E-12 -.797E-06
   0.521E-07 -.764E-07 -.103E+02   -.185E-12 -.313E-12 0.966E+01   0.475E-25 0.000E+00 0.613E+00   0.183E-12 -.169E-12 -.797E-06
   0.521E-07 -.764E-07 -.103E+02   -.203E-12 -.298E-12 0.966E+01   0.897E-25 0.646E-25 0.613E+00   -.614E-12 0.627E-12 -.797E-06
   0.521E-07 -.764E-07 -.103E+02   -.185E-12 -.270E-12 0.966E+01   -.198E-25 0.181E-24 0.613E+00   0.320E-12 0.303E-12 -.797E-06
   -.764E-07 0.521E-07 -.103E+02   -.231E-12 -.192E-12 0.966E+01   -.112E-24 -.142E-24 0.613E+00   -.515E-12 -.639E-12 -.797E-06
   -.764E-07 0.521E-07 -.103E+02   -.227E-12 -.185E-12 0.966E+01   0.292E-24 0.000E+00 0.613E+00   0.325E-13 -.636E-12 -.797E-06
   -.764E-07 0.521E-07 -.103E+02   -.203E-12 -.160E-12 0.966E+01   -.713E-26 -.986E-25 0.613E+00   -.807E-12 0.452E-12 -.797E-06
   -.764E-07 0.521E-07 -.103E+02   -.227E-12 -.160E-12 0.966E+01   -.704E-25 0.388E-25 0.613E+00   0.367E-12 0.666E-12 -.797E-06
   0.521E-07 -.764E-07 -.103E+02   -.256E-12 -.285E-12 0.966E+01   -.104E-24 -.103E-24 0.613E+00   0.528E-12 0.266E-11 -.797E-06
   0.521E-07 -.764E-07 -.103E+02   -.256E-12 -.290E-12 0.966E+01   0.833E-26 0.404E-25 0.613E+00   -.964E-12 0.327E-11 -.797E-06
   0.521E-07 -.764E-07 -.103E+02   -.256E-12 -.345E-12 0.966E+01   -.448E-25 -.388E-25 0.613E+00   0.404E-12 -.271E-11 -.797E-06
   0.521E-07 -.765E-07 -.103E+02   -.227E-12 -.232E-12 0.966E+01   0.248E-25 0.246E-24 0.613E+00   -.638E-12 -.300E-11 -.797E-06
   -.764E-07 0.521E-07 -.103E+02   -.257E-12 -.152E-12 0.966E+01   -.775E-25 0.258E-25 0.613E+00   0.456E-12 0.294E-11 -.797E-06
   -.764E-07 0.521E-07 -.103E+02   -.228E-12 -.153E-12 0.966E+01   0.905E-25 -.775E-25 0.613E+00   -.972E-12 0.267E-11 -.797E-06
   -.764E-07 0.521E-07 -.103E+02   -.284E-12 -.191E-12 0.966E+01   -.248E-25 -.123E-24 0.613E+00   0.729E-12 -.298E-11 -.797E-06
   -.764E-07 0.521E-07 -.103E+02   -.255E-12 -.163E-12 0.966E+01   0.129E-25 -.517E-25 0.613E+00   -.100E-11 -.268E-11 -.797E-06
 -----------------------------------------------------------------------------------------------
   -.150E-05 -.150E-05 -.214E+02   -.321E-12 -.113E-12 0.270E-12   -.994E-15 -.555E-15 0.213E+02   -.762E-11 0.262E-11 0.954E-06
 
 
 POSITION                                       TOTAL-FORCE (eV/Angst)
 -----------------------------------------------------------------------------------
      1.34838      1.33875      1.28238         0.001710     -0.000699     -0.002041
      6.60234      1.43040      1.28238         0.001710     -0.000699     -0.002041
      1.44003      6.59271      1.28238         0.001710     -0.000699     -0.002041
      6.69400      6.68436      1.28238         0.001710     -0.000699     -0.002041
      3.99724      4.00687      1.28238        -0.001710      0.000699     -0.002041
      9.25121      4.09853      1.28238        -0.001710      0.000699     -0.002041
      4.08889      9.26084      1.28238        -0.001710      0.000699     -0.002041
      9.34286      9.35249      1.28238        -0.001710      0.000699     -0.002041
      1.37989      3.95141      9.09760         0.000699     -0.001710     -0.002041
      6.63386      4.04307      9.09760         0.000699     -0.001710     -0.002041
      1.47154      9.20538      9.09760         0.000699     -0.001710     -0.002041
      6.72551      9.29703      9.09760         0.000699     -0.001710     -0.002041
      3.96573      1.39421      9.09760        -0.000699      0.001710     -0.002041
      9.21969      1.48586      9.09760        -0.000699      0.001710     -0.002041
      4.05738      6.64817      9.09760        -0.000699      0.001710     -0.002041
      9.31135      6.73982      9.09760        -0.000699      0.001710     -0.002041
      1.32443      1.33406      6.49252        -0.001710      0.000699     -0.002041
      6.57840      1.42572      6.49252        -0.001710      0.000699     -0.002041
      1.41608      6.58803      6.49252        -0.001710      0.000699     -0.002041
      6.67005      6.67968      6.49252        -0.001710      0.000699     -0.002041
      4.02119      4.01156      6.49252         0.001710     -0.000699     -0.002041
      9.27515      4.10321      6.49252         0.001710     -0.000699     -0.002041
      4.11284      9.26552      6.49252         0.001710     -0.000699     -0.002041
      9.36681      9.35717      6.49252         0.001710     -0.000699     -0.002041
      3.96105      1.37026      3.88745         0.000699     -0.001710     -0.002041
      9.21501      1.46191      3.88745         0.000699     -0.001710     -0.002041
      4.05270      6.62422      3.88745         0.000699     -0.001710     -0.002041
      9.30666      6.71588      3.88745         0.000699     -0.001710     -0.002041
      1.38457      3.97536      3.88745        -0.000699      0.001710     -0.002041
      6.63854      4.06701      3.88745        -0.000699      0.001710     -0.002041
      1.47622      9.22933      3.88745        -0.000699      0.001710     -0.002041
      6.73019      9.32098      3.88745        -0.000699      0.001710     -0.002041
      0.00000      0.00000      5.22763         0.000000      0.000000     -0.000462
      5.25397      0.09165      5.22763         0.000000      0.000000     -0.000462
      0.09165      5.25397      5.22763         0.000000      0.000000     -0.000462
      5.34562      5.34562      5.22763         0.000000      0.000000     -0.000462
      2.62698      0.04583      2.62256         0.000000      0.000000     -0.000462
      7.88095      0.13748      2.62256         0.000000      0.000000     -0.000462
      2.71864      5.29979      2.62256         0.000000      0.000000     -0.000462
      7.97260      5.39144      2.62256         0.000000      0.000000     -0.000462
      2.67281      2.67281      0.01749         0.000000      0.000000     -0.000462
      7.92678      2.76446      0.01749         0.000000      0.000000     -0.000462
      2.76446      7.92678      0.01749         0.000000      0.000000     -0.000462
      8.01843      8.01843      0.01749         0.000000      0.000000     -0.000462
      0.04583      2.62698      7.83270         0.000000      0.000000     -0.000462
      5.29979      2.71864      7.83270         0.000000      0.000000     -0.000462
      0.13748      7.88095      7.83270         0.000000      0.000000     -0.000462
      5.39144      7.97260      7.83270         0.000000      0.000000     -0.000462
      0.00000      0.00000      0.02282         0.000000      0.000000      0.004544
      5.25397      0.09165      0.02282         0.000000      0.000000      0.004544
      0.09165      5.25397      0.02282         0.000000      0.000000      0.004544
      5.34562      5.34562      0.02282         0.000000      0.000000      0.004544
      2.62698      0.04583      7.83803         0.000000      0.000000      0.004544
      7.88095      0.13748      7.83803         0.000000      0.000000      0.004544
      2.71864      5.29979      7.83803         0.000000      0.000000      0.004544
      7.97260      5.39144      7.83803         0.000000      0.000000      0.004544
      2.67281      2.67281      5.23296         0.000000      0.000000      0.004544
      7.92678      2.76446      5.23296         0.000000      0.000000      0.004544
      2.76446      7.92678      5.23296         0.000000      0.000000      0.004544
      8.01843      8.01843      5.23296         0.000000      0.000000      0.004544
      0.04583      2.62698      2.62789         0.000000      0.000000      0.004544
      5.29979      2.71864      2.62789         0.000000      0.000000      0.004544
      0.13748      7.88095      2.62789         0.000000      0.000000      0.004544
      5.39144      7.97260      2.62789         0.000000      0.000000      0.004544
 -----------------------------------------------------------------------------------
    total drift:                               -0.000001     -0.000001     -0.035073


--------------------------------------------------------------------------------------------------------



  FREE ENERGIE OF THE ION-ELECTRON SYSTEM (eV)
  ---------------------------------------------------
  free  energy   TOTEN  =      -327.99383269 eV

  energy  without entropy=     -327.99383269  energy(sigma->0) =     -327.99383269
 


--------------------------------------------------------------------------------------------------------


    POTLOK:  cpu time    0.1626: real time    0.1634


--------------------------------------------------------------------------------------------------------


 writing wavefunctions
     LOOP+:  cpu time 1874.7297: real time 1888.1500
    4ORBIT:  cpu time    0.0000: real time    0.0000
 


 total charge     
 
# of ion       s       p       d       tot
------------------------------------------
    1        1.314   2.410   0.000   3.723
    2        1.314   2.410   0.000   3.723
    3        1.314   2.410   0.000   3.723
    4        1.314   2.410   0.000   3.723
    5        1.314   2.410   0.000   3.723
    6        1.314   2.410   0.000   3.723
    7        1.314   2.410   0.000   3.723
    8        1.314   2.410   0.000   3.723
    9        1.314   2.410   0.000   3.724
   10        1.314   2.410   0.000   3.724
   11        1.314   2.410   0.000   3.724
   12        1.314   2.410   0.000   3.724
   13        1.314   2.410   0.000   3.724
   14        1.314   2.410   0.000   3.724
   15        1.314   2.410   0.000   3.724
   16        1.314   2.410   0.000   3.724
   17        1.314   2.410   0.000   3.723
   18        1.314   2.410   0.000   3.723
   19        1.314   2.410   0.000   3.723
   20        1.314   2.410   0.000   3.723
   21        1.314   2.410   0.000   3.723
   22        1.314   2.410   0.000   3.723
   23        1.314   2.410   0.000   3.723
   24        1.314   2.410   0.000   3.723
   25        1.314   2.410   0.000   3.724
   26        1.314   2.410   0.000   3.724
   27        1.314   2.410   0.000   3.724
   28        1.314   2.410   0.000   3.724
   29        1.314   2.410   0.000   3.724
   30        1.314   2.410   0.000   3.724
   31        1.314   2.410   0.000   3.724
   32        1.314   2.410   0.000   3.724
   33        0.260   6.202   8.916  15.378
   34        0.260   6.202   8.916  15.378
   35        0.260   6.202   8.916  15.378
   36        0.260   6.202   8.916  15.378
   37        0.260   6.202   8.917  15.378
   38        0.260   6.202   8.917  15.378
   39        0.260   6.202   8.917  15.378
   40        0.260   6.202   8.917  15.378
   41        0.260   6.202   8.916  15.378
   42        0.260   6.202   8.916  15.378
   43        0.260   6.202   8.916  15.378
   44        0.260   6.202   8.916  15.378
   45        0.260   6.202   8.917  15.378
   46        0.260   6.202   8.917  15.378
   47        0.260   6.202   8.917  15.378
   48        0.260   6.202   8.917  15.378
   49        0.350   6.351   5.820  12.521
   50        0.350   6.351   5.820  12.521
   51        0.350   6.351   5.820  12.521
   52        0.350   6.351   5.820  12.521
   53        0.350   6.351   5.820  12.521
   54        0.350   6.351   5.820  12.521
   55        0.350   6.351   5.820  12.521
   56        0.350   6.351   5.820  12.521
   57        0.350   6.351   5.820  12.521
   58        0.350   6.351   5.820  12.521
   59        0.350   6.351   5.820  12.521
   60        0.350   6.351   5.820  12.521
   61        0.350   6.351   5.820  12.521
   62        0.350   6.351   5.820  12.521
   63        0.350   6.351   5.820  12.521
   64        0.350   6.351   5.820  12.521
--------------------------------------------------
tot         51.789 277.967 235.786 565.542
 


 magnetization (x)
 
# of ion       s       p       d       tot
------------------------------------------
    1       -0.000  -0.008   0.000  -0.009
    2       -0.000  -0.008   0.000  -0.009
    3       -0.000  -0.008   0.000  -0.009
    4       -0.000  -0.008   0.000  -0.009
    5       -0.000  -0.008   0.000  -0.009
    6       -0.000  -0.008   0.000  -0.009
    7       -0.000  -0.008   0.000  -0.009
    8       -0.000  -0.008   0.000  -0.009
    9        0.000   0.008   0.000   0.009
   10        0.000   0.008   0.000   0.009
   11        0.000   0.008   0.000   0.009
   12        0.000   0.008   0.000   0.009
   13        0.000   0.008   0.000   0.009
   14        0.000   0.008   0.000   0.009
   15        0.000   0.008   0.000   0.009
   16        0.000   0.008   0.000   0.009
   17       -0.000  -0.008   0.000  -0.009
   18       -0.000  -0.008   0.000  -0.009
   19       -0.000  -0.008   0.000  -0.009
   20       -0.000  -0.008   0.000  -0.009
   21       -0.000  -0.008   0.000  -0.009
   22       -0.000  -0.008   0.000  -0.009
   23       -0.000  -0.008   0.000  -0.009
   24       -0.000  -0.008   0.000  -0.009
   25        0.000   0.008   0.000   0.009
   26        0.000   0.008   0.000   0.009
   27        0.000   0.008   0.000   0.009
   28        0.000   0.008   0.000   0.009
   29        0.000   0.008   0.000   0.009
   30        0.000   0.008   0.000   0.009
   31        0.000   0.008   0.000   0.009
   32        0.000   0.008   0.000   0.009
   33        0.000   0.000  -0.000   0.000
   34        0.000   0.000  -0.000   0.000
   35        0.000   0.000  -0.000   0.000
   36        0.000   0.000  -0.000   0.000
   37       -0.000  -0.000   0.000  -0.001
   38       -0.000  -0.000   0.000  -0.001
   39       -0.000  -0.000   0.000  -0.001
   40       -0.000  -0.000   0.000  -0.001
   41        0.000   0.000  -0.000   0.000
   42        0.000   0.000  -0.000   0.000
   43        0.000   0.000  -0.000   0.000
   44        0.000   0.000  -0.000   0.000
   45       -0.000  -0.000   0.000  -0.001
   46       -0.000  -0.000   0.000  -0.001
   47       -0.000  -0.000   0.000  -0.001
   48       -0.000  -0.000   0.000  -0.001
   49        0.020   0.054   3.670   3.744
   50        0.020   0.054   3.670   3.744
   51        0.020   0.054   3.670   3.744
   52        0.020   0.054   3.670   3.744
   53       -0.020  -0.054  -3.670  -3.744
   54       -0.020  -0.054  -3.670  -3.744
   55       -0.020  -0.054  -3.670  -3.744
   56       -0.020  -0.054  -3.670  -3.744
   57        0.020   0.054   3.670   3.744
   58        0.020   0.054   3.670   3.744
   59        0.020   0.054   3.670   3.744
   60        0.020   0.054   3.670   3.744
   61       -0.020  -0.054  -3.670  -3.744
   62       -0.020  -0.054  -3.670  -3.744
   63       -0.020  -0.054  -3.670  -3.744
   64       -0.020  -0.054  -3.670  -3.744
--------------------------------------------------
tot         -0.001   0.001  -0.001  -0.000
 
 BZINTS: Fermi energy:  4.942766;688.000000 electrons
         Band energy:***********;  BLOECHL correction:  0.000000

 total amount of memory used by VASP MPI-rank0   301249. kBytes
=======================================================================

   base      :      30000. kBytes
   nonl-proj :     175882. kBytes
   fftplans  :       4588. kBytes
   grid      :      69719. kBytes
   one-center:       1990. kBytes
   wavefun   :      19070. kBytes
 
  
  
 General timing and accounting informations for this job:
 ========================================================
  
                  Total CPU time used (sec):     1925.572
                            User time (sec):     1915.718
                          System time (sec):        9.854
                         Elapsed time (sec):     1940.431
  
                   Maximum memory used (kb):      663816.
                   Average memory used (kb):           0.
  
                          Minor page faults:       372055
                          Major page faults:         5595
                 Voluntary context switches:         7129
