       N       E                     dE             d eps       ncg     rms          rms(c)
DAV:   1     0.256385146018E+04    0.25639E+04   -0.11323E+05 15732   0.241E+03
DAV:   2     0.280125198959E+03   -0.22837E+04   -0.22142E+04 13596   0.659E+02
DAV:   3    -0.585914698649E+02   -0.33872E+03   -0.30104E+03 14806   0.255E+02
DAV:   4    -0.929890972274E+02   -0.34398E+02   -0.33819E+02 15232   0.739E+01
DAV:   5    -0.942747157417E+02   -0.12856E+01   -0.12790E+01 16504   0.159E+01    0.377E+01
DAV:   6    -0.817613143114E+02    0.12513E+02   -0.15757E+02 15788   0.100E+02    0.547E+01
DAV:   7    -0.830549631807E+02   -0.12936E+01   -0.33204E+01 14450   0.318E+01    0.238E+01
DAV:   8    -0.825380706034E+02    0.51689E+00   -0.85183E+00 16146   0.310E+01    0.168E+01
DAV:   9    -0.831405161116E+02   -0.60245E+00   -0.70674E+00 16778   0.287E+01    0.121E+01
DAV:  10    -0.822469242927E+02    0.89359E+00   -0.19679E+00 15186   0.200E+01    0.361E+00
DAV:  11    -0.822745865740E+02   -0.27662E-01   -0.39418E-01 16904   0.273E+00    0.334E+00
DAV:  12    -0.822622072297E+02    0.12379E-01   -0.85521E-02 15450   0.277E+00    0.207E+00
DAV:  13    -0.822656118426E+02   -0.34046E-02   -0.74746E-02 17166   0.158E+00    0.143E+00
DAV:  14    -0.822674453930E+02   -0.18336E-02   -0.22889E-02 15352   0.614E-01    0.848E-01
DAV:  15    -0.822680316242E+02   -0.58623E-03   -0.36404E-02 14518   0.879E-01    0.347E-01
DAV:  16    -0.822678047424E+02    0.22688E-03   -0.34576E-02 14016   0.659E-01    0.218E-01
DAV:  17    -0.822675558170E+02    0.24893E-03   -0.11644E-02 14030   0.378E-01    0.137E-01
DAV:  18    -0.822679100081E+02   -0.35419E-03   -0.15762E-02 13978   0.439E-01    0.148E-01
DAV:  19    -0.822675283935E+02    0.38161E-03   -0.18080E-02 13940   0.473E-01    0.112E-01
DAV:  20    -0.822676069932E+02   -0.78600E-04   -0.83725E-03 13946   0.321E-01    0.765E-02
DAV:  21    -0.822674693859E+02    0.13761E-03   -0.60775E-03 13978   0.271E-01    0.381E-02
DAV:  22    -0.822675009781E+02   -0.31592E-04   -0.24028E-03 14090   0.163E-01    0.284E-02
DAV:  23    -0.822675192227E+02   -0.18245E-04   -0.31192E-03 14026   0.177E-01    0.213E-02
DAV:  24    -0.822675340674E+02   -0.14845E-04   -0.25563E-03 14020   0.152E-01    0.256E-02
DAV:  25    -0.822675383692E+02   -0.43019E-05   -0.21300E-03 14012   0.132E-01    0.142E-02
DAV:  26    -0.822675114094E+02    0.26960E-04   -0.17795E-03 14004   0.131E-01    0.220E-02
DAV:  27    -0.822674959591E+02    0.15450E-04   -0.69584E-04 13988   0.895E-02    0.111E-02
DAV:  28    -0.822675442008E+02   -0.48242E-04   -0.48074E-04 13970   0.732E-02    0.740E-03
DAV:  29    -0.822675233594E+02    0.20841E-04   -0.35440E-04 13964   0.574E-02    0.766E-03
DAV:  30    -0.822675262998E+02   -0.29404E-05   -0.25726E-04 13440   0.457E-02    0.499E-03
DAV:  31    -0.822675277580E+02   -0.14582E-05   -0.11418E-04 13252   0.330E-02    0.413E-03
DAV:  32    -0.822675377175E+02   -0.99595E-05   -0.12811E-04 13204   0.373E-02    0.368E-03
DAV:  33    -0.822675311450E+02    0.65725E-05   -0.12796E-04 13168   0.350E-02    0.291E-03
DAV:  34    -0.822675358592E+02   -0.47142E-05   -0.68419E-05 13184   0.283E-02    0.182E-03
DAV:  35    -0.822675277789E+02    0.80803E-05   -0.60287E-05 13192   0.274E-02    0.183E-03
DAV:  36    -0.822675288017E+02   -0.10228E-05   -0.46401E-05 13180   0.249E-02    0.168E-03
DAV:  37    -0.822675346978E+02   -0.58961E-05   -0.28774E-05 13174   0.203E-02    0.106E-03
DAV:  38    -0.822675331357E+02    0.15621E-05   -0.16037E-05 13272   0.157E-02    0.893E-04
DAV:  39    -0.822675336037E+02   -0.46794E-06   -0.15165E-05 13212   0.145E-02    0.836E-04
DAV:  40    -0.822675326200E+02    0.98371E-06   -0.12328E-05 13172   0.132E-02    0.698E-04
DAV:  41    -0.822675334276E+02   -0.80766E-06   -0.73593E-06 13228   0.111E-02    0.531E-04
DAV:  42    -0.822675347040E+02   -0.12764E-05   -0.46165E-06 12652   0.858E-03    0.459E-04
DAV:  43    -0.822675349423E+02   -0.23827E-06   -0.13086E-06 12508   0.468E-03    0.298E-04
DAV:  44    -0.822675336676E+02    0.12747E-05   -0.82432E-07 12532   0.427E-03    0.273E-04
DAV:  45    -0.822675354284E+02   -0.17608E-05   -0.31888E-06 12372   0.783E-03    0.313E-04
DAV:  46    -0.822675341865E+02    0.12419E-05   -0.29404E-06 12372   0.758E-03    0.232E-04
DAV:  47    -0.822675344344E+02   -0.24789E-06   -0.50986E-07 12382   0.334E-03    0.136E-04
DAV:  48    -0.822675345234E+02   -0.89000E-07   -0.44189E-07 12412   0.331E-03    0.129E-04
DAV:  49    -0.822675340485E+02    0.47486E-06   -0.65675E-07 12388   0.409E-03    0.128E-04
DAV:  50    -0.822675345480E+02   -0.49950E-06   -0.17616E-07 12388   0.202E-03    0.899E-05
DAV:  51    -0.822675344988E+02    0.49207E-07   -0.60871E-07 12372   0.397E-03    0.135E-04
DAV:  52    -0.822675345813E+02   -0.82480E-07   -0.44515E-07 12372   0.339E-03    0.734E-05
DAV:  53    -0.822675345618E+02    0.19532E-07   -0.12289E-07 12364   0.177E-03    0.423E-05
DAV:  54    -0.822675345958E+02   -0.34066E-07   -0.28609E-08 12024   0.886E-04    0.440E-05
DAV:  55    -0.822675345666E+02    0.29253E-07   -0.27861E-08 11868   0.833E-04    0.267E-05
DAV:  56    -0.822675345110E+02    0.55577E-07   -0.31521E-08 12020   0.891E-04    0.327E-05
DAV:  57    -0.822675346664E+02   -0.15539E-06   -0.37139E-08 12182   0.963E-04    0.336E-05
DAV:  58    -0.822675345679E+02    0.98535E-07   -0.17707E-08 11116   0.594E-04    0.187E-05
DAV:  59    -0.822675345517E+02    0.16124E-07   -0.13253E-08 10038   0.541E-04    0.197E-05
DAV:  60    -0.822675345885E+02   -0.36805E-07   -0.55455E-09  8052   0.331E-04    0.120E-05
DAV:  61    -0.822675346297E+02   -0.41120E-07   -0.29062E-09  7808   0.281E-04    0.154E-05
DAV:  62    -0.822675346414E+02   -0.11707E-07   -0.17103E-09  7652   0.179E-04    0.116E-05
DAV:  63    -0.822675346150E+02    0.26404E-07   -0.19010E-09  7620   0.221E-04    0.981E-06
DAV:  64    -0.822675346027E+02    0.12275E-07   -0.61844E-10  7346   0.109E-04    0.686E-06
DAV:  65    -0.822675346169E+02   -0.14206E-07   -0.44430E-10  7338   0.125E-04    0.102E-05
DAV:  66    -0.822675346097E+02    0.71595E-08   -0.25659E-10  7338   0.766E-05
   1 F= -.82267535E+02 E0= -.82267535E+02  d E =0.000000E+00  mag=    -0.0000    -0.0000     0.0000
