 vasp.5.4.4.18Apr17-6-g9f103f2a35 (build Jun 11 2021 14:50:19) complex          
  
 executed on             LinuxIFC date 2024.05.27  20:06:01
 running on   18 total cores
 distrk:  each k-point on   18 cores,    1 groups
 distr:  one band on NCORES_PER_BAND=  18 cores,    1 groups


--------------------------------------------------------------------------------------------------------


 INCAR:
 POTCAR:    PAW_PBE S 06Sep2000                   
 POTCAR:     PAW_PBE Cu_pv 06Sep2000              
 POTCAR:     PAW_PBE Fe_pv 02Aug2007              

 ----------------------------------------------------------------------------- 
|                                                                             |
|           W    W    AA    RRRRR   N    N  II  N    N   GGGG   !!!           |
|           W    W   A  A   R    R  NN   N  II  NN   N  G    G  !!!           |
|           W    W  A    A  R    R  N N  N  II  N N  N  G       !!!           |
|           W WW W  AAAAAA  RRRRR   N  N N  II  N  N N  G  GGG   !            |
|           WW  WW  A    A  R   R   N   NN  II  N   NN  G    G                |
|           W    W  A    A  R    R  N    N  II  N    N   GGGG   !!!           |
|                                                                             |
|      For optimal performance we recommend to set                            |
|        NCORE= 4 - approx SQRT( number of cores)                             |
|      NCORE specifies how many cores store one orbital (NPAR=cpu/NCORE).     |
|      This setting can  greatly improve the performance of VASP for DFT.     |
|      The default,   NCORE=1            might be grossly inefficient         |
|      on modern multi-core architectures or massively parallel machines.     |
|      Do your own testing !!!!                                               |
|      Unfortunately you need to use the default for GW and RPA calculations. |
|      (for HF NCORE is supported but not extensively tested yet)             |
|                                                                             |
 ----------------------------------------------------------------------------- 

 POTCAR:    PAW_PBE S 06Sep2000                   
   SHA256 =  0fc7481fb0695f01bdc6462160264c5c84044ae9ec85a907d398b887a2bc3132 S/
   COPYR  = (c) Copyright 06Sep2000 Georg Kresse                                
   COPYR  = This file is part of the software VASP. Any use, copying, and all ot
   COPYR  = If you do not have a valid VASP license, you may not use, copy or di
   VRHFIN =S : s2p4                                                             
   LEXCH  = PE                                                                  
   EATOM  =   276.8230 eV,   20.3459 Ry                                         
                                                                                
   TITEL  = PAW_PBE S 06Sep2000                                                 
   LULTRA =        F    use ultrasoft PP ?                                      
   IUNSCR =        1    unscreen: 0-lin 1-nonlin 2-no                           
   RPACOR =    1.500    partial core radius                                     
   POMASS =   32.066; ZVAL   =    6.000    mass and valenz                      
   RCORE  =    1.900    outmost cutoff radius                                   
   RWIGS  =    2.200; RWIGS  =    1.164    wigner-seitz radius (au A)           
   ENMAX  =  258.689; ENMIN  =  194.016 eV                                      
   ICORE  =        2    local potential                                         
   LCOR   =        T    correct aug charges                                     
   LPAW   =        T    paw PP                                                  
   EAUG   =  335.092                                                            
   DEXC   =    0.000                                                            
   RMAX   =    1.942    core radius for proj-oper                               
   RAUG   =    1.300    factor for augmentation sphere                          
   RDEP   =    1.954    radius for radial grids                                 
   RDEPT  =    1.744    core radius for aug-charge                              
                                                                                
   Atomic configuration                                                         
    6 entries                                                                   
     n  l   j            E        occ.                                          
     1  0  0.50     -2405.8406   2.0000                                         
     2  0  0.50      -211.7007   2.0000                                         
     2  1  1.50      -156.4958   6.0000                                         
     3  0  0.50       -17.2562   2.0000                                         
     3  1  0.50        -7.0085   4.0000                                         
     3  2  1.50        -6.8029   0.0000                                         
   Description                                                                  
     l       E           TYP  RCUT    TYP  RCUT                                 
     0    -17.2561641     23  1.900                                             
     0    -15.8743224     23  1.900                                             
     1     -7.0085400     23  1.900                                             
     1     -2.7779785     23  1.900                                             
     2     -6.8029130     23  1.900                                             
  local pseudopotential read in
  partial core-charges read in
  partial kinetic energy density read in
  atomic valenz-charges read in
  non local Contribution for L=           0  read in
    real space projection operators read in
  non local Contribution for L=           0  read in
    real space projection operators read in
  non local Contribution for L=           1  read in
    real space projection operators read in
  non local Contribution for L=           1  read in
    real space projection operators read in
    PAW grid and wavefunctions read in
 
   number of l-projection  operators is LMAX  =           4
   number of lm-projection operators is LMMAX =           8
 
 POTCAR:     PAW_PBE Cu_pv 06Sep2000              
   SHA256 =  cb7b504e2ea725fe1f25c85a9ac77d4012ce94cd394135b722c4e25ec297f1cb Cu
   COPYR  = (c) Copyright 06Sep2000 Georg Kresse                                
   COPYR  = This file is part of the software VASP. Any use, copying, and all ot
   COPYR  = If you do not have a valid VASP license, you may not use, copy or di
   VRHFIN =Cu: d10 p1                                                           
   LEXCH  = PE                                                                  
   EATOM  =  4120.1201 eV,  302.8203 Ry                                         
                                                                                
   TITEL  = PAW_PBE Cu_pv 06Sep2000                                             
   LULTRA =        F    use ultrasoft PP ?                                      
   IUNSCR =        1    unscreen: 0-lin 1-nonlin 2-no                           
   RPACOR =    1.500    partial core radius                                     
   POMASS =   63.546; ZVAL   =   17.000    mass and valenz                      
   RCORE  =    2.000    outmost cutoff radius                                   
   RWIGS  =    2.000; RWIGS  =    1.058    wigner-seitz radius (au A)           
   ENMAX  =  368.648; ENMIN  =  276.486 eV                                      
   RCLOC  =    1.304    cutoff for local pot                                    
   LCOR   =        T    correct aug charges                                     
   LPAW   =        T    paw PP                                                  
   EAUG   =  758.233                                                            
   DEXC   =    0.000                                                            
   RMAX   =    2.046    core radius for proj-oper                               
   RAUG   =    1.300    factor for augmentation sphere                          
   RDEP   =    2.025    radius for radial grids                                 
   RDEPT  =    1.558    core radius for aug-charge                              
                                                                                
   Atomic configuration                                                         
    8 entries                                                                   
     n  l   j            E        occ.                                          
     1  0  0.50     -8850.2467   2.0000                                         
     2  0  0.50     -1062.3498   2.0000                                         
     2  1  1.50      -916.8226   6.0000                                         
     3  0  0.50      -114.6929   2.0000                                         
     3  1  1.50       -72.1325   6.0000                                         
     3  2  2.50        -5.0394  10.0000                                         
     4  0  0.50        -4.6097   1.0000                                         
     4  3  2.50        -1.3606   0.0000                                         
   Description                                                                  
     l       E           TYP  RCUT    TYP  RCUT                                 
     1    -72.1324777     23  1.700                                             
     1     -1.3605826     23  1.700                                             
     2     -5.0393776     23  2.000                                             
     2     -6.3999602     23  2.000                                             
     0     -4.6097062     23  1.800                                             
     0     14.1620818     23  1.800                                             
  local pseudopotential read in
  partial core-charges read in
  partial kinetic energy density read in
  atomic valenz-charges read in
  non local Contribution for L=           1  read in
    real space projection operators read in
  non local Contribution for L=           1  read in
    real space projection operators read in
  non local Contribution for L=           2  read in
    real space projection operators read in
  non local Contribution for L=           2  read in
    real space projection operators read in
  non local Contribution for L=           0  read in
    real space projection operators read in
  non local Contribution for L=           0  read in
    real space projection operators read in
    PAW grid and wavefunctions read in
 
   number of l-projection  operators is LMAX  =           6
   number of lm-projection operators is LMMAX =          18
 
 POTCAR:     PAW_PBE Fe_pv 02Aug2007              
   SHA256 =  5d22e414b1f82158bf2c7ecb8b97b28fd0923e48cadc1c3bf74d524558f5dd32 Fe
   COPYR  = (c) Copyright 02Aug2007 Georg Kresse                                
   COPYR  = This file is part of the software VASP. Any use, copying, and all ot
   COPYR  = If you do not have a valid VASP license, you may not use, copy or di
   VRHFIN =Fe:  3pd7s1                                                          
   LEXCH  = PE                                                                  
   EATOM  =  2457.4239 eV,  180.6156 Ry                                         
                                                                                
   TITEL  = PAW_PBE Fe_pv 02Aug2007                                             
   LULTRA =        F    use ultrasoft PP ?                                      
   IUNSCR =        1    unscreen: 0-lin 1-nonlin 2-no                           
   RPACOR =    1.750    partial core radius                                     
   POMASS =   55.847; ZVAL   =   14.000    mass and valenz                      
   RCORE  =    2.200    outmost cutoff radius                                   
   RWIGS  =    2.200; RWIGS  =    1.164    wigner-seitz radius (au A)           
   ENMAX  =  293.238; ENMIN  =  219.928 eV                                      
   ICORE  =        3    local potential                                         
   LCOR   =        T    correct aug charges                                     
   LPAW   =        T    paw PP                                                  
   EAUG   =  578.342                                                            
   DEXC   =    0.000                                                            
   RMAX   =    2.249    core radius for proj-oper                               
   RAUG   =    1.300    factor for augmentation sphere                          
   RDEP   =    2.296    radius for radial grids                                 
   RDEPT  =    1.766    core radius for aug-charge                              
                                                                                
   Atomic configuration                                                         
    8 entries                                                                   
     n  l   j            E        occ.                                          
     1  0  0.50     -6993.8440   2.0000                                         
     2  0  0.50      -814.6047   2.0000                                         
     2  1  1.50      -693.3689   6.0000                                         
     3  0  0.50       -89.4732   2.0000                                         
     3  1  1.50       -55.6373   6.0000                                         
     3  2  2.50        -3.8151   7.0000                                         
     4  0  0.50        -4.2551   1.0000                                         
     4  3  2.50        -1.3606   0.0000                                         
   Description                                                                  
     l       E           TYP  RCUT    TYP  RCUT                                 
     1    -55.6372668     23  2.000                                             
     1     -5.4423304     23  2.000                                             
     2     -3.8151096     23  2.200                                             
     2     -5.1756922     23  2.200                                             
     0     -4.2550951     23  2.200                                             
     0     27.2116520     23  2.200                                             
     3     -1.3605826     23  2.200                                             
  local pseudopotential read in
  partial core-charges read in
  partial kinetic energy density read in
  atomic valenz-charges read in
  non local Contribution for L=           1  read in
    real space projection operators read in
  non local Contribution for L=           1  read in
    real space projection operators read in
  non local Contribution for L=           2  read in
    real space projection operators read in
  non local Contribution for L=           2  read in
    real space projection operators read in
  non local Contribution for L=           0  read in
    real space projection operators read in
  non local Contribution for L=           0  read in
    real space projection operators read in
    PAW grid and wavefunctions read in
 
   number of l-projection  operators is LMAX  =           6
   number of lm-projection operators is LMMAX =          18
 

 ----------------------------------------------------------------------------- 
|                                                                             |
|  ADVICE TO THIS USER RUNNING 'VASP/VAMP'   (HEAR YOUR MASTER'S VOICE ...):  |
|                                                                             |
|      You enforced a specific xc-type in the INCAR file,                     |
|      a different type was found on the POTCAR file                          |
|          I HOPE YOU KNOW, WHAT YOU ARE  DOING                               |
|                                                                             |
 ----------------------------------------------------------------------------- 

  PAW_PBE S 06Sep2000                   :
 energy of atom  1       EATOM= -276.8230
 kinetic energy error for atom=    0.0007 (will be added to EATOM!!)
   PAW_PBE Cu_pv 06Sep2000              :
 energy of atom  2       EATOM=-4120.1201
 kinetic energy error for atom=    0.0094 (will be added to EATOM!!)
   PAW_PBE Fe_pv 02Aug2007              :
 energy of atom  3       EATOM=-2457.4239
 kinetic energy error for atom=    0.0025 (will be added to EATOM!!)
 
 
 POSCAR: sm_isp_SD0310437-standardized_unitcell  
  positions in direct lattice
  velocities in cartesian coordinates
 exchange correlation table for  LEXCH =       14
   RHO(1)=    0.500       N(1)  =     2000
   RHO(2)=  100.500       N(2)  =     4000
 


--------------------------------------------------------------------------------------------------------


 ion  position               nearest neighbor table
   1  0.252  0.250  0.125-  10 2.26  11 2.26  13 2.28  16 2.28
   2  0.748  0.750  0.125-  10 2.26  11 2.26  13 2.28  16 2.28
   3  0.250  0.748  0.875-  11 2.26  12 2.26  13 2.28  14 2.28
   4  0.750  0.252  0.875-  11 2.26  12 2.26  13 2.28  14 2.28
   5  0.248  0.250  0.625-   9 2.26  12 2.26  14 2.28  15 2.28
   6  0.752  0.750  0.625-   9 2.26  12 2.26  14 2.28  15 2.28
   7  0.750  0.248  0.375-   9 2.26  10 2.26  15 2.28  16 2.28
   8  0.250  0.752  0.375-   9 2.26  10 2.26  15 2.28  16 2.28
   9  0.000  0.000  0.500-   5 2.26   7 2.26   6 2.26   8 2.26
  10  0.500  0.000  0.250-   7 2.26   1 2.26   2 2.26   8 2.26
  11  0.500  0.500  0.000-   1 2.26   4 2.26   3 2.26   2 2.26
  12  0.000  0.500  0.750-   5 2.26   4 2.26   3 2.26   6 2.26
  13  0.000  0.000  0.000-   2 2.28   3 2.28   1 2.28   4 2.28
  14  0.500  0.000  0.750-   3 2.28   6 2.28   4 2.28   5 2.28
  15  0.500  0.500  0.500-   6 2.28   8 2.28   7 2.28   5 2.28
  16  0.000  0.500  0.250-   2 2.28   8 2.28   1 2.28   7 2.28
 
  LATTYP: Found a simple tetragonal cell.
 ALAT       =     5.2587856555
 C/A-ratio  =     1.9792277963
  
  Lattice vectors:
  
 A1 = (   5.2587856555,   0.0000000000,   0.0000000000)
 A2 = (   0.0000000000,   5.2587856555,   0.0000000000)
 A3 = (   0.0000000000,   0.0000000000,  10.4083347443)


Analysis of symmetry for initial positions (statically):
=====================================================================
 Subroutine PRICEL returns following result:
 
  LATTYP: Found a body centered tetragonal cell.
 ALAT       =     5.2587856555
 C/A-ratio  =     1.9792277963
  
  Lattice vectors:
  
 A1 = (   2.6293928278,  -2.6293928278,   5.2041673722)
 A2 = (  -2.6293928278,   2.6293928278,   5.2041673722)
 A3 = (  -2.6293928278,  -2.6293928278,  -5.2041673722)
 
   2 primitive cells build up your supercell.
 

 Routine SETGRP: Setting up the symmetry group for a 
 simple tetragonal supercell.


 Subroutine GETGRP returns: Found  8 space group operations
 (whereof  4 operations were pure point group operations)
 out of a pool of 16 trial point group operations.


The static configuration has the point symmetry S_4 .
 The point group associated with its full space group is D_2d.


Analysis of symmetry for dynamics (positions and initial velocities):
=====================================================================
 Subroutine PRICEL returns following result:
 
  LATTYP: Found a body centered tetragonal cell.
 ALAT       =     5.2587856555
 C/A-ratio  =     1.9792277963
  
  Lattice vectors:
  
 A1 = (   2.6293928278,  -2.6293928278,   5.2041673722)
 A2 = (  -2.6293928278,   2.6293928278,   5.2041673722)
 A3 = (  -2.6293928278,  -2.6293928278,  -5.2041673722)
 
   2 primitive cells build up your supercell.
 

 Routine SETGRP: Setting up the symmetry group for a 
 simple tetragonal supercell.


 Subroutine GETGRP returns: Found  8 space group operations
 (whereof  4 operations were pure point group operations)
 out of a pool of 16 trial point group operations.


The dynamic configuration has the point symmetry S_4 .
 The point group associated with its full space group is D_2d.


Analysis of structural, dynamic, and magnetic symmetry:
=====================================================================
 Subroutine PRICEL returns following result:
 
  LATTYP: Found a body centered tetragonal cell.
 ALAT       =     5.2587856555
 C/A-ratio  =     1.9792277963
  
  Lattice vectors:
  
 A1 = (   2.6293928278,  -2.6293928278,   5.2041673722)
 A2 = (  -2.6293928278,   2.6293928278,   5.2041673722)
 A3 = (  -2.6293928278,  -2.6293928278,  -5.2041673722)
 
   2 primitive cells build up your supercell.
 

 Routine SETGRP: Setting up the symmetry group for a 
 simple tetragonal supercell.


 Subroutine GETGRP returns: Found  8 space group operations
 (whereof  4 operations were pure point group operations)
 out of a pool of 16 trial point group operations.


The (compounded) configuration has the point symmetry S_4 .
 The point group associated with its full space group is D_2d.


 Subroutine INISYM returns: Found  8 space group operations
 (whereof  4 operations are pure point group operations),
 and found     2 'primitive' translations

 
 
 KPOINTS: Automatic mesh                          

Automatic generation of k-mesh.
Space group operators:
 irot       det(A)        alpha          n_x          n_y          n_z        tau_x        tau_y        tau_z
    1     1.000000     0.000000     1.000000     0.000000     0.000000     0.000000     0.000000     0.000000
    2    -1.000000    90.000000     0.000000     0.000000    -1.000000     0.000000     0.000000     0.000000
    3     1.000000   180.000000     0.000000     0.000000     1.000000     0.000000     0.000000     0.000000
    4    -1.000000    90.000000     0.000000     0.000000     1.000000     0.000000     0.000000     0.000000
    5     1.000000   179.999999     0.000000     1.000000     0.000000     0.000000    -0.500000     0.250000
    6    -1.000000   180.000000     0.707107     0.707107     0.000000     0.000000    -0.500000     0.250000
    7     1.000000   180.000000     1.000000     0.000000     0.000000     0.000000    -0.500000     0.250000
    8    -1.000000   180.000000     0.707107    -0.707107     0.000000     0.000000    -0.500000     0.250000
 
 Subroutine IBZKPT returns following result:
 ===========================================
 
 Found     33 irreducible k-points:
 
 Following reciprocal coordinates:
            Coordinates               Weight
  0.000000  0.000000  0.000000      1.000000
  0.250000  0.000000  0.000000      4.000000
  0.500000  0.000000  0.000000      2.000000
  0.250000  0.250000  0.000000      4.000000
  0.500000  0.250000  0.000000      4.000000
  0.500000  0.500000  0.000000      1.000000
  0.000000  0.000000  0.125000      2.000000
  0.250000  0.000000  0.125000      8.000000
  0.500000  0.000000  0.125000      4.000000
  0.250000  0.250000  0.125000      4.000000
  0.500000  0.250000  0.125000      8.000000
 -0.250000  0.250000  0.125000      4.000000
  0.500000  0.500000  0.125000      2.000000
  0.000000  0.000000  0.250000      2.000000
  0.250000  0.000000  0.250000      8.000000
  0.500000  0.000000  0.250000      4.000000
  0.250000  0.250000  0.250000      4.000000
  0.500000  0.250000  0.250000      8.000000
 -0.250000  0.250000  0.250000      4.000000
  0.500000  0.500000  0.250000      2.000000
  0.000000  0.000000  0.375000      2.000000
  0.250000  0.000000  0.375000      8.000000
  0.500000  0.000000  0.375000      4.000000
  0.250000  0.250000  0.375000      4.000000
  0.500000  0.250000  0.375000      8.000000
 -0.250000  0.250000  0.375000      4.000000
  0.500000  0.500000  0.375000      2.000000
  0.000000  0.000000  0.500000      1.000000
  0.250000  0.000000  0.500000      4.000000
  0.500000  0.000000  0.500000      2.000000
  0.250000  0.250000  0.500000      4.000000
  0.500000  0.250000  0.500000      4.000000
  0.500000  0.500000  0.500000      1.000000
 
 Following cartesian coordinates:
            Coordinates               Weight
  0.000000  0.000000  0.000000      1.000000
  0.047539  0.000000  0.000000      4.000000
  0.095079  0.000000  0.000000      2.000000
  0.047539  0.047539  0.000000      4.000000
  0.095079  0.047539  0.000000      4.000000
  0.095079  0.095079  0.000000      1.000000
  0.000000  0.000000  0.012010      2.000000
  0.047539  0.000000  0.012010      8.000000
  0.095079  0.000000  0.012010      4.000000
  0.047539  0.047539  0.012010      4.000000
  0.095079  0.047539  0.012010      8.000000
 -0.047539  0.047539  0.012010      4.000000
  0.095079  0.095079  0.012010      2.000000
  0.000000  0.000000  0.024019      2.000000
  0.047539  0.000000  0.024019      8.000000
  0.095079  0.000000  0.024019      4.000000
  0.047539  0.047539  0.024019      4.000000
  0.095079  0.047539  0.024019      8.000000
 -0.047539  0.047539  0.024019      4.000000
  0.095079  0.095079  0.024019      2.000000
  0.000000  0.000000  0.036029      2.000000
  0.047539  0.000000  0.036029      8.000000
  0.095079  0.000000  0.036029      4.000000
  0.047539  0.047539  0.036029      4.000000
  0.095079  0.047539  0.036029      8.000000
 -0.047539  0.047539  0.036029      4.000000
  0.095079  0.095079  0.036029      2.000000
  0.000000  0.000000  0.048038      1.000000
  0.047539  0.000000  0.048038      4.000000
  0.095079  0.000000  0.048038      2.000000
  0.047539  0.047539  0.048038      4.000000
  0.095079  0.047539  0.048038      4.000000
  0.095079  0.095079  0.048038      1.000000
 
 TETIRR: Found    312 inequivalent tetrahedra from      768


--------------------------------------------------------------------------------------------------------




 Dimension of arrays:
   k-points           NKPTS =     33   k-points in BZ     NKDIM =     33   number of bands    NBANDS=    206
   number of dos      NEDOS =    301   number of ions     NIONS =     16
   non local maximal  LDIM  =      6   non local SUM 2l+1 LMDIM =     18
   total plane-waves  NPLWV = 207360
   max r-space proj   IRMAX =      1   max aug-charges    IRDMAX=  22893
   dimension x,y,z NGX =    48 NGY =   48 NGZ =   90
   dimension x,y,z NGXF=    96 NGYF=   96 NGZF=  180
   support grid    NGXF=    96 NGYF=   96 NGZF=  180
   ions per type =               8   4   4
   NGX,Y,Z   is equivalent  to a cutoff of  15.17, 15.17, 14.38 a.u.
   NGXF,Y,Z  is equivalent  to a cutoff of  30.35, 30.35, 28.75 a.u.

 SYSTEM =  CuFeS2                                  
 POSCAR =  sm_isp_SD0310437-standardized_unitcell  

 Startparameter for this run:
   NWRITE =      2    write-flag & timer
   PREC   = accura    normal or accurate (medium, high low for compatibility)
   ISTART =      0    job   : 0-new  1-cont  2-samecut
   ICHARG =      1    charge: 1-file 2-atom 10-const
   ISPIN  =      1    spin polarized calculation?
   LNONCOLLINEAR =      T non collinear calculations
   LSORBIT =      T    spin-orbit coupling
   INIWAV =      1    electr: 0-lowe 1-rand  2-diag
   LASPH  =      T    aspherical Exc in radial PAW
   METAGGA=      F    non-selfconsistent MetaGGA calc.

 Electronic Relaxation 1
   ENCUT  =  700.0 eV  51.45 Ry    7.17 a.u.  11.34 11.34 22.45*2*pi/ulx,y,z
   ENINI  =  700.0     initial cutoff
   ENAUG  =  758.2 eV  augmentation charge cutoff
   NELM   =    200;   NELMIN=  2; NELMDL=  0     # of ELM steps 
   EDIFF  = 0.1E-07   stopping-criterion for ELM
   LREAL  =      F    real-space projection
   NLSPLINE    = F    spline interpolate recip. space projectors
   LCOMPAT=      F    compatible to vasp.4.4
   GGA_COMPAT  = T    GGA compatible to vasp.4.4-vasp.4.6
   LMAXPAW     = -100 max onsite density
   LMAXMIX     =    4 max onsite mixed and CHGCAR
   VOSKOWN=      0    Vosko Wilk Nusair interpolation
   ROPT   =    0.00000   0.00000   0.00000
 Ionic relaxation
   EDIFFG = -.1E-04   stopping-criterion for IOM
   NSW    =      0    number of steps for IOM
   NBLOCK =      1;   KBLOCK =      1    inner block; outer block 
   IBRION =     -1    ionic relax: 0-MD 1-quasi-New 2-CG
   NFREE  =      0    steps in history (QN), initial steepest desc. (CG)
   ISIF   =      2    stress and relaxation
   IWAVPR =     10    prediction:  0-non 1-charg 2-wave 3-comb
   ISYM   =      2    0-nonsym 1-usesym 2-fastsym
   LCORR  =      T    Harris-Foulkes like correction to forces

   POTIM  = 0.2000    time-step for ionic-motion
   TEIN   =    0.0    initial temperature
   TEBEG  =    0.0;   TEEND  =   0.0 temperature during run
   SMASS  =  -3.00    Nose mass-parameter (am)
   estimated Nose-frequenzy (Omega)   =  0.10E-29 period in steps =****** mass=  -0.632E-27a.u.
   SCALEE = 1.0000    scale energy and forces
   NPACO  =    256;   APACO  = 16.0  distance and # of slots for P.C.
   PSTRESS=    0.0 pullay stress

  Mass of Ions in am
   POMASS =  32.07 63.55 55.85
  Ionic Valenz
   ZVAL   =   6.00 17.00 14.00
  Atomic Wigner-Seitz radii
   RWIGS  =  -1.00 -1.00 -1.00
  virtual crystal weights 
   VCA    =   1.00  1.00  1.00
   NELECT =     172.0000    total number of electrons
   NUPDOWN=      -1.0000    fix difference up-down

 DOS related values:
   EMIN   =  10.00;   EMAX   =-10.00  energy-range for DOS
   EFERMI =   0.00
   ISMEAR =    -5;   SIGMA  =   0.03  broadening in eV -4-tet -1-fermi 0-gaus

 Electronic relaxation 2 (details)
   IALGO  =     38    algorithm
   LDIAG  =      T    sub-space diagonalisation (order eigenvalues)
   LSUBROT=      F    optimize rotation matrix (better conditioning)
   TURBO    =      0    0=normal 1=particle mesh
   IRESTART =      0    0=no restart 2=restart with 2 vectors
   NREBOOT  =      0    no. of reboots
   NMIN     =      0    reboot dimension
   EREF     =   0.00    reference energy to select bands
   IMIX   =      4    mixing-type and parameters
     AMIX     =   0.40;   BMIX     =  1.00
     AMIX_MAG =   1.60;   BMIX_MAG =  1.00
     AMIN     =   0.10
     WC   =   100.;   INIMIX=   1;  MIXPRE=   1;  MAXMIX= -45

 Intra band minimization:
   WEIMIN = 0.0000     energy-eigenvalue tresh-hold
   EBREAK =  0.12E-10  absolut break condition
   DEPER  =   0.30     relativ break condition  

   TIME   =   0.40     timestep for ELM

  volume/ion in A,a.u.               =      17.99       121.40
  Fermi-wavevector in a.u.,A,eV,Ry     =   1.378903  2.605748 25.869741  1.901372
  Thomas-Fermi vector in A             =   2.503921
 
 Write flags
   LWAVE        =      T    write WAVECAR
   LDOWNSAMPLE  =      F    k-point downsampling of WAVECAR
   LCHARG       =      T    write CHGCAR
   LVTOT        =      F    write LOCPOT, total local potential
   LVHAR        =      F    write LOCPOT, Hartree potential only
   LELF         =      F    write electronic localiz. function (ELF)
   LORBIT       =     11    0 simple, 1 ext, 2 COOP (PROOUT), +10 PAW based schemes


 Dipole corrections
   LMONO  =      F    monopole corrections only (constant potential shift)
   LDIPOL =      F    correct potential (dipole corrections)
   IDIPOL =      0    1-x, 2-y, 3-z, 4-all directions 
   EPSILON=  1.0000000 bulk dielectric constant

 LDA+U is selected, type is set to LDAUTYPE =  2
   angular momentum for each species LDAUL =     2    2    2
   U (eV)           for each species LDAUU =   0.0  0.1  4.7
   J (eV)           for each species LDAUJ =   0.0  0.0  0.0
 Exchange correlation treatment:
   GGA     =    PS    GGA type
   LEXCH   =    14    internal setting for exchange type
   VOSKOWN=      0    Vosko Wilk Nusair interpolation
   LHFCALC =     F    Hartree Fock is set to
   LHFONE  =     F    Hartree Fock one center treatment
   AEXX    =    0.0000 exact exchange contribution

 Linear response parameters
   LEPSILON=     F    determine dielectric tensor
   LRPA    =     F    only Hartree local field effects (RPA)
   LNABLA  =     F    use nabla operator in PAW spheres
   LVEL    =     F    velocity operator in full k-point grid
   LINTERFAST=   F  fast interpolation
   KINTER  =     0    interpolate to denser k-point grid
   CSHIFT  =0.1000    complex shift for real part using Kramers Kronig
   OMEGAMAX=  -1.0    maximum frequency
   DEG_THRESHOLD= 0.2000000E-02 threshold for treating states as degnerate
   RTIME   =   -0.100 relaxation time in fs
  (WPLASMAI=    0.000 imaginary part of plasma frequency in eV, 0.658/RTIME)
   DFIELD  = 0.0000000 0.0000000 0.0000000 field for delta impulse in time
 
 Orbital magnetization related:
   ORBITALMAG=     F  switch on orbital magnetization
   LCHIMAG   =     F  perturbation theory with respect to B field
   DQ        =  0.001000  dq finite difference perturbation B field
   LLRAUG    =     F  two centre corrections for induced B field



--------------------------------------------------------------------------------------------------------


 Static calculation
 charge density and potential will be updated during run
 non collinear spin polarized calculation
 Variant of blocked Davidson
 Davidson routine will perform the subspace rotation
 perform sub-space diagonalisation
    after iterative eigenvector-optimisation
 modified Broyden-mixing scheme, WC =      100.0
 initial mixing is a Kerker type mixing with AMIX =  0.4000 and BMIX =      1.0000
 Hartree-type preconditioning will be used
 using additional bands          120
 reciprocal scheme for non local part
 use partial core corrections
 calculate Harris-corrections to forces 
   (improved forces if not selfconsistent)
 use gradient corrections 
 use of overlap-Matrix (Vanderbilt PP)
 Fermi weights with tetrahedron method with Bloechl corrections


--------------------------------------------------------------------------------------------------------


  energy-cutoff  :      700.00
  volume of cell :      287.84
      direct lattice vectors                 reciprocal lattice vectors
     5.258785656  0.000000000  0.000000000     0.190157969  0.000000000  0.000000000
     0.000000000  5.258785656  0.000000000     0.000000000  0.190157969  0.000000000
     0.000000000  0.000000000 10.408334744     0.000000000  0.000000000  0.096076848

  length of vectors
     5.258785656  5.258785656 10.408334744     0.190157969  0.190157969  0.096076848


 
 k-points in units of 2pi/SCALE and weight: Automatic mesh                          
   0.00000000  0.00000000  0.00000000       0.008
   0.04753949  0.00000000  0.00000000       0.031
   0.09507898  0.00000000  0.00000000       0.016
   0.04753949  0.04753949  0.00000000       0.031
   0.09507898  0.04753949  0.00000000       0.031
   0.09507898  0.09507898  0.00000000       0.008
   0.00000000  0.00000000  0.01200961       0.016
   0.04753949  0.00000000  0.01200961       0.062
   0.09507898  0.00000000  0.01200961       0.031
   0.04753949  0.04753949  0.01200961       0.031
   0.09507898  0.04753949  0.01200961       0.062
  -0.04753949  0.04753949  0.01200961       0.031
   0.09507898  0.09507898  0.01200961       0.016
   0.00000000  0.00000000  0.02401921       0.016
   0.04753949  0.00000000  0.02401921       0.062
   0.09507898  0.00000000  0.02401921       0.031
   0.04753949  0.04753949  0.02401921       0.031
   0.09507898  0.04753949  0.02401921       0.062
  -0.04753949  0.04753949  0.02401921       0.031
   0.09507898  0.09507898  0.02401921       0.016
   0.00000000  0.00000000  0.03602882       0.016
   0.04753949  0.00000000  0.03602882       0.062
   0.09507898  0.00000000  0.03602882       0.031
   0.04753949  0.04753949  0.03602882       0.031
   0.09507898  0.04753949  0.03602882       0.062
  -0.04753949  0.04753949  0.03602882       0.031
   0.09507898  0.09507898  0.03602882       0.016
   0.00000000  0.00000000  0.04803842       0.008
   0.04753949  0.00000000  0.04803842       0.031
   0.09507898  0.00000000  0.04803842       0.016
   0.04753949  0.04753949  0.04803842       0.031
   0.09507898  0.04753949  0.04803842       0.031
   0.09507898  0.09507898  0.04803842       0.008
 
 k-points in reciprocal lattice and weights: Automatic mesh                          
   0.00000000  0.00000000  0.00000000       0.008
   0.25000000  0.00000000  0.00000000       0.031
   0.50000000  0.00000000  0.00000000       0.016
   0.25000000  0.25000000  0.00000000       0.031
   0.50000000  0.25000000  0.00000000       0.031
   0.50000000  0.50000000  0.00000000       0.008
   0.00000000  0.00000000  0.12500000       0.016
   0.25000000  0.00000000  0.12500000       0.062
   0.50000000  0.00000000  0.12500000       0.031
   0.25000000  0.25000000  0.12500000       0.031
   0.50000000  0.25000000  0.12500000       0.062
  -0.25000000  0.25000000  0.12500000       0.031
   0.50000000  0.50000000  0.12500000       0.016
   0.00000000  0.00000000  0.25000000       0.016
   0.25000000  0.00000000  0.25000000       0.062
   0.50000000  0.00000000  0.25000000       0.031
   0.25000000  0.25000000  0.25000000       0.031
   0.50000000  0.25000000  0.25000000       0.062
  -0.25000000  0.25000000  0.25000000       0.031
   0.50000000  0.50000000  0.25000000       0.016
   0.00000000  0.00000000  0.37500000       0.016
   0.25000000  0.00000000  0.37500000       0.062
   0.50000000  0.00000000  0.37500000       0.031
   0.25000000  0.25000000  0.37500000       0.031
   0.50000000  0.25000000  0.37500000       0.062
  -0.25000000  0.25000000  0.37500000       0.031
   0.50000000  0.50000000  0.37500000       0.016
   0.00000000  0.00000000  0.50000000       0.008
   0.25000000  0.00000000  0.50000000       0.031
   0.50000000  0.00000000  0.50000000       0.016
   0.25000000  0.25000000  0.50000000       0.031
   0.50000000  0.25000000  0.50000000       0.031
   0.50000000  0.50000000  0.50000000       0.008
 
 position of ions in fractional coordinates (direct lattice) 
   0.25239099  0.25000000  0.12500000
   0.74760904  0.75000000  0.12500000
   0.25000000  0.74760904  0.87500000
   0.75000000  0.25239099  0.87500000
   0.24760901  0.25000000  0.62500000
   0.75239096  0.75000000  0.62500000
   0.75000000  0.24760901  0.37500000
   0.25000000  0.75239096  0.37500000
   0.00000000  0.00000000  0.50000000
   0.50000000  0.00000000  0.25000000
   0.50000000  0.50000000  0.00000000
   0.00000000  0.50000000  0.75000000
   0.00000000  0.00000000  0.00000000
   0.50000000  0.00000000  0.75000000
   0.50000000  0.50000000  0.50000000
   0.00000000  0.50000000  0.25000000
 
 position of ions in cartesian coordinates  (Angst):
   1.32727013  1.31469641  1.30104184
   3.93151568  3.94408924  1.30104184
   1.31469641  3.93151568  9.10729290
   3.94408924  1.32727013  9.10729290
   1.30212269  1.31469641  6.50520922
   3.95666280  3.94408924  6.50520922
   3.94408924  1.30212269  3.90312553
   1.31469641  3.95666280  3.90312553
   0.00000000  0.00000000  5.20416737
   2.62939283  0.00000000  2.60208369
   2.62939283  2.62939283  0.00000000
   0.00000000  2.62939283  7.80625106
   0.00000000  0.00000000  0.00000000
   2.62939283  0.00000000  7.80625106
   2.62939283  2.62939283  5.20416737
   0.00000000  2.62939283  2.60208369
 
 Euler angles ALPHA=     0.0000000  BETA=     0.0000000

 transformation matrix from SAXIS to cartesian coordinates
 ---------------------------------------------------------
     1.0000000 m_x     0.0000000 m_y     0.0000000 m_z
     0.0000000 m_x     1.0000000 m_y     0.0000000 m_z
     0.0000000 m_x     0.0000000 m_y     1.0000000 m_z

 transformation matrix from cartesian coordinates to SAXIS
 ---------------------------------------------------------
     1.0000000 m_x     0.0000000 m_y     0.0000000 m_z
     0.0000000 m_x     1.0000000 m_y     0.0000000 m_z
     0.0000000 m_x     0.0000000 m_y     1.0000000 m_z




--------------------------------------------------------------------------------------------------------


 k-point  1 :   0.0000 0.0000 0.0000  plane waves:   24210
 k-point  2 :   0.2500 0.0000 0.0000  plane waves:   24214
 k-point  3 :   0.5000 0.0000 0.0000  plane waves:   24228
 k-point  4 :   0.2500 0.2500 0.0000  plane waves:   24212
 k-point  5 :   0.5000 0.2500 0.0000  plane waves:   24232
 k-point  6 :   0.5000 0.5000 0.0000  plane waves:   24176
 k-point  7 :   0.0000 0.0000 0.1250  plane waves:   24130
 k-point  8 :   0.2500 0.0000 0.1250  plane waves:   24236
 k-point  9 :   0.5000 0.0000 0.1250  plane waves:   24232
 k-point 10 :   0.2500 0.2500 0.1250  plane waves:   24212
 k-point 11 :   0.5000 0.2500 0.1250  plane waves:   24228
 k-point 12 :  -0.2500 0.2500 0.1250  plane waves:   24212
 k-point 13 :   0.5000 0.5000 0.1250  plane waves:   24208
 k-point 14 :   0.0000 0.0000 0.2500  plane waves:   24258
 k-point 15 :   0.2500 0.0000 0.2500  plane waves:   24270
 k-point 16 :   0.5000 0.0000 0.2500  plane waves:   24272
 k-point 17 :   0.2500 0.2500 0.2500  plane waves:   24208
 k-point 18 :   0.5000 0.2500 0.2500  plane waves:   24208
 k-point 19 :  -0.2500 0.2500 0.2500  plane waves:   24208
 k-point 20 :   0.5000 0.5000 0.2500  plane waves:   24144
 k-point 21 :   0.0000 0.0000 0.3750  plane waves:   24266
 k-point 22 :   0.2500 0.0000 0.3750  plane waves:   24212
 k-point 23 :   0.5000 0.0000 0.3750  plane waves:   24272
 k-point 24 :   0.2500 0.2500 0.3750  plane waves:   24204
 k-point 25 :   0.5000 0.2500 0.3750  plane waves:   24184
 k-point 26 :  -0.2500 0.2500 0.3750  plane waves:   24204
 k-point 27 :   0.5000 0.5000 0.3750  plane waves:   24128
 k-point 28 :   0.0000 0.0000 0.5000  plane waves:   24280
 k-point 29 :   0.2500 0.0000 0.5000  plane waves:   24240
 k-point 30 :   0.5000 0.0000 0.5000  plane waves:   24296
 k-point 31 :   0.2500 0.2500 0.5000  plane waves:   24224
 k-point 32 :   0.5000 0.2500 0.5000  plane waves:   24192
 k-point 33 :   0.5000 0.5000 0.5000  plane waves:   24080

 maximum and minimum number of plane-waves per node :      1404     1302

 maximum number of plane-waves:     24296
 maximum index in each direction: 
   IXMAX=   11   IYMAX=   11   IZMAX=   22
   IXMIN=  -11   IYMIN=  -11   IZMIN=  -22


 parallel 3D FFT for wavefunctions:
    minimum data exchange during FFTs selected (reduces bandwidth)
 parallel 3D FFT for charge:
    minimum data exchange during FFTs selected (reduces bandwidth)


 total amount of memory used by VASP MPI-rank0   226223. kBytes
=======================================================================

   base      :      30000. kBytes
   nonl-proj :       9810. kBytes
   fftplans  :       7182. kBytes
   grid      :      28200. kBytes
   one-center:         62. kBytes
   wavefun   :     150969. kBytes
 
     INWAV:  cpu time    0.0000: real time    0.0000
 Broyden mixing: mesh for mixing (old mesh)
   NGX = 23   NGY = 23   NGZ = 45
  (NGX  = 96   NGY  = 96   NGZ  =180)
  gives a total of  23805 points

 initial charge density was supplied:
 charge density of overlapping atoms calculated
 number of electron     172.0000000 magnetization       0.0000000      0.0000000      0.0000000
 keeping initial charge density in first step


--------------------------------------------------------------------------------------------------------


 Maximum index for augmentation-charges         1686 (set IRDMAX)


--------------------------------------------------------------------------------------------------------


 First call to EWALD:  gamma=   0.268
 Maximum number of real-space cells 3x 3x 2
 Maximum number of reciprocal cells 2x 2x 4

    FEWALD:  cpu time    0.0012: real time    0.0013


--------------------------------------- Iteration      1(   1)  ---------------------------------------


    POTLOK:  cpu time    0.4068: real time    0.5015
    SETDIJ:  cpu time    0.4518: real time    0.4522
     EDDAV:  cpu time   44.5324: real time   44.5432
 BZINTS: Fermi energy: 28.975895;172.000000 electrons
         Band energy: 229.412385;  BLOECHL correction: -0.068051
       DOS:  cpu time    0.0670: real time    0.0672
    --------------------------------------------
      LOOP:  cpu time   45.4580: real time   45.5641

 eigenvalue-minimisations  : 15732
 total energy-change (2. order) : 0.2563851E+04  (-0.1132341E+05)
 number of electron     172.0000000 magnetization       0.0000000      0.0000000     -0.0000000
 augmentation part      172.0000000 magnetization       0.0000000      0.0000000     -0.0000000

 Free energy of the ion-electron system (eV)
  ---------------------------------------------------
  alpha Z        PSCENC =       588.68295422
  Ewald energy   TEWEN  =    -15613.51431849
  -Hartree energ DENC   =    -11082.63351704
  -exchange      EXHF   =         0.00000000
  -V(xc)+E(xc)   XCENC  =       830.02738059
  PAW double counting   =     23648.05828047   -24541.19798182
  entropy T*S    EENTRO =         0.00000000
  eigenvalues    EBANDS =       229.41238534
  atomic energy  EATOM  =     28505.01627691
  Solvation  Ediel_sol  =         0.00000000
  ---------------------------------------------------
  free energy    TOTEN  =      2563.85146018 eV

  energy without entropy =     2563.85146018  energy(sigma->0) =     2563.85146018


--------------------------------------------------------------------------------------------------------




--------------------------------------- Iteration      1(   2)  ---------------------------------------


     EDDAV:  cpu time   39.8677: real time   40.1680
 BZINTS: Fermi energy:  9.985031;172.000000 electrons
         Band energy:***********;  BLOECHL correction: -0.011835
       DOS:  cpu time    0.0767: real time    0.0769
    --------------------------------------------
      LOOP:  cpu time   39.9444: real time   40.2449

 eigenvalue-minimisations  : 13596
 total energy-change (2. order) :-0.2283726E+04  (-0.2214218E+04)
 number of electron     172.0000000 magnetization       0.0000000      0.0000000     -0.0000000
 augmentation part      172.0000000 magnetization       0.0000000      0.0000000     -0.0000000

 Free energy of the ion-electron system (eV)
  ---------------------------------------------------
  alpha Z        PSCENC =       588.68295422
  Ewald energy   TEWEN  =    -15613.51431849
  -Hartree energ DENC   =    -11082.63351704
  -exchange      EXHF   =         0.00000000
  -V(xc)+E(xc)   XCENC  =       830.02738059
  PAW double counting   =     23648.05828047   -24541.19798182
  entropy T*S    EENTRO =         0.00000000
  eigenvalues    EBANDS =     -2054.31387589
  atomic energy  EATOM  =     28505.01627691
  Solvation  Ediel_sol  =         0.00000000
  ---------------------------------------------------
  free energy    TOTEN  =       280.12519896 eV

  energy without entropy =      280.12519896  energy(sigma->0) =      280.12519896


--------------------------------------------------------------------------------------------------------




--------------------------------------- Iteration      1(   3)  ---------------------------------------


     EDDAV:  cpu time   42.4132: real time   42.6844
 BZINTS: Fermi energy:  6.861200;172.000000 electrons
         Band energy:***********;  BLOECHL correction:  0.000000
       DOS:  cpu time    0.0117: real time    0.0119
    --------------------------------------------
      LOOP:  cpu time   42.4249: real time   42.6962

 eigenvalue-minimisations  : 14806
 total energy-change (2. order) :-0.3387167E+03  (-0.3010378E+03)
 number of electron     172.0000000 magnetization       0.0000000      0.0000000     -0.0000000
 augmentation part      172.0000000 magnetization       0.0000000      0.0000000     -0.0000000

 Free energy of the ion-electron system (eV)
  ---------------------------------------------------
  alpha Z        PSCENC =       588.68295422
  Ewald energy   TEWEN  =    -15613.51431849
  -Hartree energ DENC   =    -11082.63351704
  -exchange      EXHF   =         0.00000000
  -V(xc)+E(xc)   XCENC  =       830.02738059
  PAW double counting   =     23648.05828047   -24541.19798182
  entropy T*S    EENTRO =         0.00000000
  eigenvalues    EBANDS =     -2393.03054471
  atomic energy  EATOM  =     28505.01627691
  Solvation  Ediel_sol  =         0.00000000
  ---------------------------------------------------
  free energy    TOTEN  =       -58.59146986 eV

  energy without entropy =      -58.59146986  energy(sigma->0) =      -58.59146986


--------------------------------------------------------------------------------------------------------




--------------------------------------- Iteration      1(   4)  ---------------------------------------


     EDDAV:  cpu time   43.4049: real time   43.7047
 BZINTS: Fermi energy:  6.076278;172.000000 electrons
         Band energy:***********;  BLOECHL correction:  0.000000
       DOS:  cpu time    0.0098: real time    0.0100
    --------------------------------------------
      LOOP:  cpu time   43.4147: real time   43.7147

 eigenvalue-minimisations  : 15232
 total energy-change (2. order) :-0.3439763E+02  (-0.3381889E+02)
 number of electron     172.0000000 magnetization       0.0000000      0.0000000     -0.0000000
 augmentation part      172.0000000 magnetization       0.0000000      0.0000000     -0.0000000

 Free energy of the ion-electron system (eV)
  ---------------------------------------------------
  alpha Z        PSCENC =       588.68295422
  Ewald energy   TEWEN  =    -15613.51431849
  -Hartree energ DENC   =    -11082.63351704
  -exchange      EXHF   =         0.00000000
  -V(xc)+E(xc)   XCENC  =       830.02738059
  PAW double counting   =     23648.05828047   -24541.19798182
  entropy T*S    EENTRO =         0.00000000
  eigenvalues    EBANDS =     -2427.42817207
  atomic energy  EATOM  =     28505.01627691
  Solvation  Ediel_sol  =         0.00000000
  ---------------------------------------------------
  free energy    TOTEN  =       -92.98909723 eV

  energy without entropy =      -92.98909723  energy(sigma->0) =      -92.98909723


--------------------------------------------------------------------------------------------------------




--------------------------------------- Iteration      1(   5)  ---------------------------------------


     EDDAV:  cpu time   46.1388: real time   46.4817
 BZINTS: Fermi energy:  6.044212;172.000000 electrons
         Band energy:***********;  BLOECHL correction:  0.000000
       DOS:  cpu time    0.0098: real time    0.0101
 


 total charge     
 
# of ion       s       p       d       tot
------------------------------------------
    1        1.347   2.734   0.000   4.081
    2        1.348   2.733   0.000   4.081
    3        1.348   2.734   0.000   4.082
    4        1.348   2.734   0.000   4.081
    5        1.348   2.734   0.000   4.081
    6        1.347   2.734   0.000   4.081
    7        1.348   2.734   0.000   4.082
    8        1.348   2.734   0.000   4.081
    9        0.239   6.201   8.599  15.039
   10        0.239   6.201   8.599  15.039
   11        0.239   6.201   8.599  15.039
   12        0.239   6.201   8.599  15.039
   13        0.295   6.309   5.000  11.604
   14        0.295   6.309   5.000  11.604
   15        0.295   6.309   5.000  11.604
   16        0.295   6.309   5.000  11.604
--------------------------------------------------
tot         12.917  71.909  54.396 139.223
 


 magnetization (x)
 
# of ion       s       p       d       tot
------------------------------------------
    1       -0.000   0.000   0.000   0.000
    2        0.000  -0.000   0.000  -0.000
    3       -0.000   0.000   0.000  -0.000
    4        0.000  -0.000   0.000  -0.000
    5        0.000   0.000   0.000   0.000
    6       -0.000   0.000   0.000  -0.000
    7       -0.000  -0.000   0.000  -0.000
    8        0.000  -0.000   0.000  -0.000
    9        0.000  -0.000  -0.000  -0.000
   10        0.000  -0.000  -0.000  -0.000
   11       -0.000  -0.000  -0.000  -0.001
   12        0.000  -0.000  -0.000  -0.000
   13        0.000  -0.000   0.000   0.000
   14       -0.000  -0.000  -0.000  -0.001
   15       -0.000  -0.000  -0.000  -0.000
   16       -0.000  -0.000  -0.000  -0.001
--------------------------------------------------
tot          0.000  -0.001  -0.003  -0.003
 


 magnetization (y)
 
# of ion       s       p       d       tot
------------------------------------------
    1       -0.000  -0.000   0.000  -0.000
    2       -0.000   0.000   0.000   0.000
    3       -0.000   0.000   0.000   0.000
    4       -0.000   0.000   0.000  -0.000
    5       -0.000   0.000   0.000   0.000
    6       -0.000  -0.000   0.000  -0.000
    7       -0.000   0.000   0.000   0.000
    8       -0.000  -0.000   0.000  -0.000
    9        0.000  -0.000   0.000  -0.000
   10        0.000  -0.000  -0.000  -0.000
   11        0.000  -0.000  -0.000  -0.000
   12        0.000  -0.000  -0.000  -0.000
   13        0.000  -0.000   0.000  -0.000
   14        0.000  -0.000  -0.000  -0.000
   15        0.000  -0.000   0.000   0.000
   16        0.000  -0.000  -0.000  -0.000
--------------------------------------------------
tot          0.000  -0.001  -0.001  -0.001
 


 magnetization (z)
 
# of ion       s       p       d       tot
------------------------------------------
    1        0.000  -0.000   0.000  -0.000
    2        0.000  -0.001   0.000  -0.001
    3       -0.000   0.001   0.000   0.000
    4       -0.000   0.001   0.000   0.001
    5        0.000  -0.001   0.000  -0.001
    6        0.000  -0.000   0.000   0.000
    7       -0.000   0.001   0.000   0.001
    8       -0.000   0.001   0.000   0.001
    9        0.000   0.001   0.000   0.001
   10       -0.000  -0.001  -0.000  -0.001
   11        0.000   0.001   0.000   0.001
   12       -0.000  -0.001  -0.000  -0.001
   13        0.017   0.040   3.984   4.041
   14       -0.017  -0.040  -3.983  -4.041
   15        0.017   0.040   3.984   4.041
   16       -0.017  -0.040  -3.984  -4.041
--------------------------------------------------
tot          0.000   0.000  -0.000   0.000
 
    CHARGE:  cpu time    1.7992: real time    1.8008
    MIXING:  cpu time    0.0153: real time    0.0155
    --------------------------------------------
      LOOP:  cpu time   47.9631: real time   48.3082

 eigenvalue-minimisations  : 16504
 total energy-change (2. order) :-0.1285619E+01  (-0.1279034E+01)
 number of electron     172.0000103 magnetization       0.0000000      0.0000000     -0.0000000
 augmentation part       65.2910960 magnetization       0.0000000      0.0000000     -0.0000000

 Broyden mixing:
  rms(total) = 0.37669E+01    rms(broyden)= 0.37668E+01
  rms(prec ) = 0.45108E+01
  weight for this iteration     100.00

 Free energy of the ion-electron system (eV)
  ---------------------------------------------------
  alpha Z        PSCENC =       588.68295422
  Ewald energy   TEWEN  =    -15613.51431849
  -Hartree energ DENC   =    -11082.63351704
  -exchange      EXHF   =         0.00000000
  -V(xc)+E(xc)   XCENC  =       830.02738059
  PAW double counting   =     23648.05828047   -24541.19798182
  entropy T*S    EENTRO =         0.00000000
  eigenvalues    EBANDS =     -2428.71379059
  atomic energy  EATOM  =     28505.01627691
  Solvation  Ediel_sol  =         0.00000000
  ---------------------------------------------------
  free energy    TOTEN  =       -94.27471574 eV

  energy without entropy =      -94.27471574  energy(sigma->0) =      -94.27471574


--------------------------------------------------------------------------------------------------------




--------------------------------------- Iteration      1(   6)  ---------------------------------------


    POTLOK:  cpu time    0.6253: real time    0.7971
    SETDIJ:  cpu time    0.4540: real time    0.4543
     EDDAV:  cpu time   44.9792: real time   44.9876
 BZINTS: Fermi energy:  4.289969;172.000000 electrons
         Band energy:***********;  BLOECHL correction: -0.000201
       DOS:  cpu time    0.0546: real time    0.0550
    CHARGE:  cpu time    1.8065: real time    1.8068
    MIXING:  cpu time    0.0162: real time    0.0162
    --------------------------------------------
      LOOP:  cpu time   47.9358: real time   48.1170

 eigenvalue-minimisations  : 15788
 total energy-change (2. order) : 0.1251340E+02  (-0.1575744E+02)
 number of electron     172.0000111 magnetization       0.0000000     -0.0000000     -0.0000000
 augmentation part       73.6886730 magnetization       0.0000000      0.0000000     -0.0000000

 Broyden mixing:
  rms(total) = 0.54676E+01    rms(broyden)= 0.54676E+01
  rms(prec ) = 0.56474E+01
  weight for this iteration     100.00

 eigenvalues of (default mixing * dielectric matrix)
  average eigenvalue GAMMA=   0.1124
  0.1124

 Free energy of the ion-electron system (eV)
  ---------------------------------------------------
  alpha Z        PSCENC =       588.68295422
  Ewald energy   TEWEN  =    -15613.51431849
  -Hartree energ DENC   =    -10595.51033449
  -exchange      EXHF   =         0.00000000
  -V(xc)+E(xc)   XCENC  =       816.91632377
  PAW double counting   =     24149.54686932   -24989.72382984
  entropy T*S    EENTRO =         0.00000000
  eigenvalues    EBANDS =     -2943.17525572
  atomic energy  EATOM  =     28505.01627691
  Solvation  Ediel_sol  =         0.00000000
  ---------------------------------------------------
  free energy    TOTEN  =       -81.76131431 eV

  energy without entropy =      -81.76131431  energy(sigma->0) =      -81.76131431


--------------------------------------------------------------------------------------------------------




--------------------------------------- Iteration      1(   7)  ---------------------------------------


    POTLOK:  cpu time    0.6256: real time    0.7964
    SETDIJ:  cpu time    0.4532: real time    0.4536
     EDDAV:  cpu time   42.3011: real time   42.3068
 BZINTS: Fermi energy:  4.554348;172.000000 electrons
         Band energy:***********;  BLOECHL correction:  0.000000
       DOS:  cpu time    0.0113: real time    0.0119
    CHARGE:  cpu time    1.7874: real time    1.7877
    MIXING:  cpu time    0.0165: real time    0.0165
    --------------------------------------------
      LOOP:  cpu time   45.1952: real time   45.3729

 eigenvalue-minimisations  : 14450
 total energy-change (2. order) :-0.1293649E+01  (-0.3320368E+01)
 number of electron     172.0000109 magnetization       0.0000000     -0.0000000      0.0000000
 augmentation part       71.9524014 magnetization       0.0000000     -0.0000000      0.0000000

 Broyden mixing:
  rms(total) = 0.23806E+01    rms(broyden)= 0.23806E+01
  rms(prec ) = 0.24437E+01
  weight for this iteration     100.00

 eigenvalues of (default mixing * dielectric matrix)
  average eigenvalue GAMMA=   0.5388
  0.5733  0.5042

 Free energy of the ion-electron system (eV)
  ---------------------------------------------------
  alpha Z        PSCENC =       588.68295422
  Ewald energy   TEWEN  =    -15613.51431849
  -Hartree energ DENC   =    -10689.20383760
  -exchange      EXHF   =         0.00000000
  -V(xc)+E(xc)   XCENC  =       819.20235501
  PAW double counting   =     24891.14503144   -25764.89495760
  entropy T*S    EENTRO =         0.00000000
  eigenvalues    EBANDS =     -2819.48846708
  atomic energy  EATOM  =     28505.01627691
  Solvation  Ediel_sol  =         0.00000000
  ---------------------------------------------------
  free energy    TOTEN  =       -83.05496318 eV

  energy without entropy =      -83.05496318  energy(sigma->0) =      -83.05496318


--------------------------------------------------------------------------------------------------------




--------------------------------------- Iteration      1(   8)  ---------------------------------------


    POTLOK:  cpu time    0.5616: real time    0.7954
    SETDIJ:  cpu time    0.4524: real time    0.4528
     EDDAV:  cpu time   45.7312: real time   45.7371
 BZINTS: Fermi energy:  5.040615;172.000000 electrons
         Band energy:***********;  BLOECHL correction:  0.000000
       DOS:  cpu time    0.0115: real time    0.0119
    CHARGE:  cpu time    1.8232: real time    1.8235
    MIXING:  cpu time    0.0170: real time    0.0171
    --------------------------------------------
      LOOP:  cpu time   48.5969: real time   48.8378

 eigenvalue-minimisations  : 16146
 total energy-change (2. order) : 0.5168926E+00  (-0.8518268E+00)
 number of electron     172.0000108 magnetization       0.0000000     -0.0000000      0.0000000
 augmentation part       70.6148994 magnetization       0.0000000     -0.0000000      0.0000000

 Broyden mixing:
  rms(total) = 0.16817E+01    rms(broyden)= 0.16817E+01
  rms(prec ) = 0.17943E+01
  weight for this iteration     100.00

 eigenvalues of (default mixing * dielectric matrix)
  average eigenvalue GAMMA=   0.8165
  1.3723  0.6688  0.4084

 Free energy of the ion-electron system (eV)
  ---------------------------------------------------
  alpha Z        PSCENC =       588.68295422
  Ewald energy   TEWEN  =    -15613.51431849
  -Hartree energ DENC   =    -10775.71526635
  -exchange      EXHF   =         0.00000000
  -V(xc)+E(xc)   XCENC  =       822.40967363
  PAW double counting   =     26189.25719252   -27090.07852607
  entropy T*S    EENTRO =         0.00000000
  eigenvalues    EBANDS =     -2708.59605697
  atomic energy  EATOM  =     28505.01627691
  Solvation  Ediel_sol  =         0.00000000
  ---------------------------------------------------
  free energy    TOTEN  =       -82.53807060 eV

  energy without entropy =      -82.53807060  energy(sigma->0) =      -82.53807060


--------------------------------------------------------------------------------------------------------




--------------------------------------- Iteration      1(   9)  ---------------------------------------


    POTLOK:  cpu time    0.5304: real time    0.7941
    SETDIJ:  cpu time    0.4515: real time    0.4517
     EDDAV:  cpu time   47.3944: real time   47.4014
 BZINTS: Fermi energy:  4.633311;172.000000 electrons
         Band energy:***********;  BLOECHL correction:  0.000000
       DOS:  cpu time    0.0114: real time    0.0116
    CHARGE:  cpu time    1.8006: real time    1.8009
    MIXING:  cpu time    0.0173: real time    0.0173
    --------------------------------------------
      LOOP:  cpu time   50.2056: real time   50.4770

 eigenvalue-minimisations  : 16778
 total energy-change (2. order) :-0.6024455E+00  (-0.7067398E+00)
 number of electron     172.0000107 magnetization       0.0000000      0.0000000      0.0000000
 augmentation part       70.2436164 magnetization       0.0000000      0.0000000      0.0000000

 Broyden mixing:
  rms(total) = 0.12064E+01    rms(broyden)= 0.12064E+01
  rms(prec ) = 0.14259E+01
  weight for this iteration     100.00

 eigenvalues of (default mixing * dielectric matrix)
  average eigenvalue GAMMA=   0.8997
  2.1846  0.5472  0.5472  0.3196

 Free energy of the ion-electron system (eV)
  ---------------------------------------------------
  alpha Z        PSCENC =       588.68295422
  Ewald energy   TEWEN  =    -15613.51431849
  -Hartree energ DENC   =    -10736.96974628
  -exchange      EXHF   =         0.00000000
  -V(xc)+E(xc)   XCENC  =       820.90029871
  PAW double counting   =     27441.10612982   -28352.21069444
  entropy T*S    EENTRO =         0.00000000
  eigenvalues    EBANDS =     -2736.15141655
  atomic energy  EATOM  =     28505.01627691
  Solvation  Ediel_sol  =         0.00000000
  ---------------------------------------------------
  free energy    TOTEN  =       -83.14051611 eV

  energy without entropy =      -83.14051611  energy(sigma->0) =      -83.14051611


--------------------------------------------------------------------------------------------------------




--------------------------------------- Iteration      1(  10)  ---------------------------------------


    POTLOK:  cpu time    0.4875: real time    0.7986
    SETDIJ:  cpu time    0.4558: real time    0.4560
     EDDAV:  cpu time   43.7465: real time   43.7513
 BZINTS: Fermi energy:  4.781339;172.000000 electrons
         Band energy:***********;  BLOECHL correction:  0.000000
       DOS:  cpu time    0.0096: real time    0.0098
 


 total charge     
 
# of ion       s       p       d       tot
------------------------------------------
    1        1.317   2.439   0.000   3.755
    2        1.317   2.438   0.000   3.754
    3        1.317   2.437   0.000   3.754
    4        1.317   2.437   0.000   3.754
    5        1.317   2.438   0.000   3.755
    6        1.317   2.439   0.000   3.755
    7        1.317   2.437   0.000   3.754
    8        1.317   2.437   0.000   3.754
    9        0.259   6.204   8.943  15.407
   10        0.259   6.204   8.943  15.407
   11        0.259   6.204   8.943  15.407
   12        0.259   6.204   8.943  15.407
   13        0.345   6.348   5.745  12.439
   14        0.345   6.348   5.745  12.438
   15        0.345   6.348   5.745  12.439
   16        0.345   6.348   5.745  12.438
--------------------------------------------------
tot         12.952  69.713  58.753 141.417
 


 magnetization (x)
 
# of ion       s       p       d       tot
------------------------------------------
    1       -0.000   0.000   0.000   0.000
    2       -0.000  -0.000   0.000  -0.000
    3       -0.000  -0.000   0.000  -0.000
    4       -0.000  -0.000   0.000  -0.000
    5       -0.000  -0.000   0.000  -0.000
    6       -0.000   0.000   0.000   0.000
    7       -0.000  -0.000   0.000  -0.000
    8       -0.000  -0.000   0.000  -0.000
    9        0.000  -0.000  -0.001  -0.001
   10        0.000  -0.000  -0.001  -0.001
   11        0.000  -0.000  -0.001  -0.001
   12        0.000  -0.000  -0.001  -0.001
   13        0.000  -0.000   0.000   0.000
   14       -0.000  -0.000   0.000  -0.000
   15        0.000  -0.000   0.000   0.000
   16       -0.000  -0.000   0.000  -0.000
--------------------------------------------------
tot          0.000  -0.001  -0.002  -0.004
 


 magnetization (y)
 
# of ion       s       p       d       tot
------------------------------------------
    1       -0.000  -0.000   0.000  -0.000
    2       -0.000  -0.000   0.000  -0.000
    3       -0.000  -0.000   0.000  -0.000
    4       -0.000  -0.000   0.000  -0.000
    5       -0.000  -0.000   0.000  -0.000
    6       -0.000  -0.000   0.000  -0.000
    7       -0.000  -0.000   0.000  -0.000
    8        0.000  -0.000   0.000  -0.000
    9        0.000  -0.000  -0.001  -0.001
   10        0.000  -0.000  -0.001  -0.001
   11        0.000  -0.000  -0.001  -0.001
   12        0.000  -0.000  -0.001  -0.001
   13        0.000  -0.000   0.000   0.000
   14        0.000  -0.000   0.000   0.000
   15        0.000  -0.000   0.000   0.000
   16        0.000  -0.000   0.000   0.000
--------------------------------------------------
tot          0.000  -0.002  -0.002  -0.004
 


 magnetization (z)
 
# of ion       s       p       d       tot
------------------------------------------
    1        0.000  -0.000   0.000  -0.000
    2        0.000  -0.002   0.000  -0.002
    3       -0.000   0.002   0.000   0.002
    4       -0.000   0.002   0.000   0.001
    5        0.000  -0.002   0.000  -0.002
    6        0.000  -0.000   0.000  -0.000
    7       -0.000   0.002   0.000   0.001
    8       -0.000   0.002   0.000   0.001
    9        0.000   0.000  -0.001  -0.000
   10       -0.000  -0.000   0.001   0.000
   11        0.000   0.000  -0.001  -0.000
   12       -0.000  -0.000   0.001   0.000
   13        0.020   0.052   3.745   3.817
   14       -0.020  -0.052  -3.746  -3.818
   15        0.020   0.052   3.745   3.817
   16       -0.020  -0.052  -3.746  -3.818
--------------------------------------------------
tot         -0.000   0.001  -0.001  -0.000
 
    CHARGE:  cpu time    1.8363: real time    1.8400
    MIXING:  cpu time    0.0176: real time    0.0177
    --------------------------------------------
      LOOP:  cpu time   46.5534: real time   46.8734

 eigenvalue-minimisations  : 15186
 total energy-change (2. order) : 0.8935918E+00  (-0.1967875E+00)
 number of electron     172.0000107 magnetization       0.0000000     -0.0000000      0.0000000
 augmentation part       70.4136096 magnetization       0.0000000     -0.0000000      0.0000000

 Broyden mixing:
  rms(total) = 0.36057E+00    rms(broyden)= 0.36055E+00
  rms(prec ) = 0.39031E+00
  weight for this iteration     100.00

 eigenvalues of (default mixing * dielectric matrix)
  average eigenvalue GAMMA=   0.8794
  2.3268  0.5910  0.5910  0.5541  0.3343

 Free energy of the ion-electron system (eV)
  ---------------------------------------------------
  alpha Z        PSCENC =       588.68295422
  Ewald energy   TEWEN  =    -15613.51431849
  -Hartree energ DENC   =    -10741.34800613
  -exchange      EXHF   =         0.00000000
  -V(xc)+E(xc)   XCENC  =       821.93520871
  PAW double counting   =     28326.02465295   -29248.45954910
  entropy T*S    EENTRO =         0.00000000
  eigenvalues    EBANDS =     -2720.58414337
  atomic energy  EATOM  =     28505.01627691
  Solvation  Ediel_sol  =         0.00000000
  ---------------------------------------------------
  free energy    TOTEN  =       -82.24692429 eV

  energy without entropy =      -82.24692429  energy(sigma->0) =      -82.24692429


--------------------------------------------------------------------------------------------------------




--------------------------------------- Iteration      1(  11)  ---------------------------------------


    POTLOK:  cpu time    0.5186: real time    0.7979
    SETDIJ:  cpu time    0.4520: real time    0.4524
     EDDAV:  cpu time   47.7094: real time   47.7154
 BZINTS: Fermi energy:  5.003083;172.000000 electrons
         Band energy:***********;  BLOECHL correction:  0.000000
       DOS:  cpu time    0.0115: real time    0.0116
    CHARGE:  cpu time    1.8481: real time    1.8483
    MIXING:  cpu time    0.0180: real time    0.0180
    --------------------------------------------
      LOOP:  cpu time   50.5576: real time   50.8436

 eigenvalue-minimisations  : 16904
 total energy-change (2. order) :-0.2766228E-01  (-0.3941845E-01)
 number of electron     172.0000107 magnetization       0.0000000      0.0000000      0.0000000
 augmentation part       70.4744283 magnetization       0.0000000     -0.0000000      0.0000000

 Broyden mixing:
  rms(total) = 0.33352E+00    rms(broyden)= 0.33351E+00
  rms(prec ) = 0.35132E+00
  weight for this iteration     100.00

 eigenvalues of (default mixing * dielectric matrix)
  average eigenvalue GAMMA=   0.7799
  2.3177  0.5614  0.5614  0.3589  0.4399  0.4399

 Free energy of the ion-electron system (eV)
  ---------------------------------------------------
  alpha Z        PSCENC =       588.68295422
  Ewald energy   TEWEN  =    -15613.51431849
  -Hartree energ DENC   =    -10741.35713925
  -exchange      EXHF   =         0.00000000
  -V(xc)+E(xc)   XCENC  =       821.84199106
  PAW double counting   =     28339.57852312   -29263.17339937
  entropy T*S    EENTRO =         0.00000000
  eigenvalues    EBANDS =     -2719.34947479
  atomic energy  EATOM  =     28505.01627691
  Solvation  Ediel_sol  =         0.00000000
  ---------------------------------------------------
  free energy    TOTEN  =       -82.27458657 eV

  energy without entropy =      -82.27458657  energy(sigma->0) =      -82.27458657


--------------------------------------------------------------------------------------------------------




--------------------------------------- Iteration      1(  12)  ---------------------------------------


    POTLOK:  cpu time    0.6044: real time    0.8062
    SETDIJ:  cpu time    0.4526: real time    0.4530
     EDDAV:  cpu time   44.8494: real time   44.8553
 BZINTS: Fermi energy:  4.993184;172.000000 electrons
         Band energy:***********;  BLOECHL correction:  0.000000
       DOS:  cpu time    0.0115: real time    0.0118
    CHARGE:  cpu time    1.8070: real time    1.8072
    MIXING:  cpu time    0.0184: real time    0.0184
    --------------------------------------------
      LOOP:  cpu time   47.7433: real time   47.9519

 eigenvalue-minimisations  : 15450
 total energy-change (2. order) : 0.1237934E-01  (-0.8552143E-02)
 number of electron     172.0000107 magnetization      -0.0000000     -0.0000000      0.0000000
 augmentation part       70.4806961 magnetization      -0.0000000     -0.0000000      0.0000000

 Broyden mixing:
  rms(total) = 0.20733E+00    rms(broyden)= 0.20733E+00
  rms(prec ) = 0.21207E+00
  weight for this iteration     100.00

 eigenvalues of (default mixing * dielectric matrix)
  average eigenvalue GAMMA=   0.8514
  2.2730  0.8458  0.8458  0.3466  0.5482  0.5482  0.5519

 Free energy of the ion-electron system (eV)
  ---------------------------------------------------
  alpha Z        PSCENC =       588.68295422
  Ewald energy   TEWEN  =    -15613.51431849
  -Hartree energ DENC   =    -10738.40125039
  -exchange      EXHF   =         0.00000000
  -V(xc)+E(xc)   XCENC  =       821.72200228
  PAW double counting   =     28275.33323730   -29198.63542704
  entropy T*S    EENTRO =         0.00000000
  eigenvalues    EBANDS =     -2722.46568202
  atomic energy  EATOM  =     28505.01627691
  Solvation  Ediel_sol  =         0.00000000
  ---------------------------------------------------
  free energy    TOTEN  =       -82.26220723 eV

  energy without entropy =      -82.26220723  energy(sigma->0) =      -82.26220723


--------------------------------------------------------------------------------------------------------




--------------------------------------- Iteration      1(  13)  ---------------------------------------


    POTLOK:  cpu time    0.4412: real time    0.7972
    SETDIJ:  cpu time    0.4536: real time    0.4537
     EDDAV:  cpu time   48.1088: real time   48.1161
 BZINTS: Fermi energy:  4.778788;172.000000 electrons
         Band energy:***********;  BLOECHL correction:  0.000000
       DOS:  cpu time    0.0098: real time    0.0104
    CHARGE:  cpu time    1.8137: real time    1.8141
    MIXING:  cpu time    0.0187: real time    0.0188
    --------------------------------------------
      LOOP:  cpu time   50.8458: real time   51.2103

 eigenvalue-minimisations  : 17166
 total energy-change (2. order) :-0.3404613E-02  (-0.7474596E-02)
 number of electron     172.0000107 magnetization      -0.0000000     -0.0000000      0.0000000
 augmentation part       70.5542904 magnetization      -0.0000000     -0.0000000      0.0000000

 Broyden mixing:
  rms(total) = 0.14335E+00    rms(broyden)= 0.14335E+00
  rms(prec ) = 0.14931E+00
  weight for this iteration     100.00

 eigenvalues of (default mixing * dielectric matrix)
  average eigenvalue GAMMA=   0.9153
  1.8672  1.8672  1.0482  0.7039  0.5319  0.5319  0.3448  0.4273

 Free energy of the ion-electron system (eV)
  ---------------------------------------------------
  alpha Z        PSCENC =       588.68295422
  Ewald energy   TEWEN  =    -15613.51431849
  -Hartree energ DENC   =    -10736.96798654
  -exchange      EXHF   =         0.00000000
  -V(xc)+E(xc)   XCENC  =       821.60106054
  PAW double counting   =     28109.79417789   -29032.92356764
  entropy T*S    EENTRO =         0.00000000
  eigenvalues    EBANDS =     -2723.95420873
  atomic energy  EATOM  =     28505.01627691
  Solvation  Ediel_sol  =         0.00000000
  ---------------------------------------------------
  free energy    TOTEN  =       -82.26561184 eV

  energy without entropy =      -82.26561184  energy(sigma->0) =      -82.26561184


--------------------------------------------------------------------------------------------------------




--------------------------------------- Iteration      1(  14)  ---------------------------------------


    POTLOK:  cpu time    0.6681: real time    0.8405
    SETDIJ:  cpu time    0.4602: real time    0.4604
     EDDAV:  cpu time   44.3590: real time   44.3651
 BZINTS: Fermi energy:  4.782920;172.000000 electrons
         Band energy:***********;  BLOECHL correction:  0.000000
       DOS:  cpu time    0.0098: real time    0.0100
    CHARGE:  cpu time    1.8093: real time    1.8095
    MIXING:  cpu time    0.0191: real time    0.0192
    --------------------------------------------
      LOOP:  cpu time   47.3254: real time   47.5047

 eigenvalue-minimisations  : 15352
 total energy-change (2. order) :-0.1833550E-02  (-0.2288895E-02)
 number of electron     172.0000107 magnetization      -0.0000000     -0.0000000      0.0000000
 augmentation part       70.5830061 magnetization      -0.0000000     -0.0000000      0.0000000

 Broyden mixing:
  rms(total) = 0.84837E-01    rms(broyden)= 0.84837E-01
  rms(prec ) = 0.87281E-01
  weight for this iteration     100.00

 eigenvalues of (default mixing * dielectric matrix)
  average eigenvalue GAMMA=   0.9410
  2.1167  2.1167  0.8439  0.8439  0.5799  0.5799  0.3456  0.5845  0.4583

 Free energy of the ion-electron system (eV)
  ---------------------------------------------------
  alpha Z        PSCENC =       588.68295422
  Ewald energy   TEWEN  =    -15613.51431849
  -Hartree energ DENC   =    -10738.37338368
  -exchange      EXHF   =         0.00000000
  -V(xc)+E(xc)   XCENC  =       821.55571486
  PAW double counting   =     28008.68168720   -28931.98389765
  entropy T*S    EENTRO =         0.00000000
  eigenvalues    EBANDS =     -2722.33247877
  atomic energy  EATOM  =     28505.01627691
  Solvation  Ediel_sol  =         0.00000000
  ---------------------------------------------------
  free energy    TOTEN  =       -82.26744539 eV

  energy without entropy =      -82.26744539  energy(sigma->0) =      -82.26744539


--------------------------------------------------------------------------------------------------------




--------------------------------------- Iteration      1(  15)  ---------------------------------------


    POTLOK:  cpu time    0.6221: real time    0.7937
    SETDIJ:  cpu time    0.4662: real time    0.4664
     EDDAV:  cpu time   42.4546: real time   42.4605
 BZINTS: Fermi energy:  5.000549;172.000000 electrons
         Band energy:***********;  BLOECHL correction:  0.000000
       DOS:  cpu time    0.0116: real time    0.0118
 


 total charge     
 
# of ion       s       p       d       tot
------------------------------------------
    1        1.313   2.409   0.000   3.722
    2        1.313   2.408   0.000   3.721
    3        1.313   2.408   0.000   3.721
    4        1.313   2.407   0.000   3.721
    5        1.313   2.408   0.000   3.721
    6        1.313   2.409   0.000   3.722
    7        1.313   2.408   0.000   3.721
    8        1.313   2.407   0.000   3.721
    9        0.260   6.203   8.917  15.379
   10        0.260   6.203   8.917  15.379
   11        0.260   6.203   8.917  15.379
   12        0.260   6.203   8.917  15.379
   13        0.350   6.351   5.824  12.526
   14        0.350   6.351   5.823  12.525
   15        0.350   6.351   5.824  12.526
   16        0.350   6.351   5.823  12.525
--------------------------------------------------
tot         12.947  69.482  58.961 141.389
 


 magnetization (x)
 
# of ion       s       p       d       tot
------------------------------------------
    1        0.000   0.000   0.000   0.000
    2       -0.000  -0.000   0.000  -0.000
    3       -0.000  -0.000   0.000  -0.000
    4       -0.000  -0.000   0.000  -0.000
    5       -0.000  -0.000   0.000  -0.000
    6        0.000   0.000   0.000   0.000
    7       -0.000  -0.000   0.000  -0.000
    8       -0.000  -0.000   0.000  -0.000
    9        0.000  -0.000  -0.001  -0.001
   10        0.000  -0.000  -0.001  -0.001
   11        0.000  -0.000  -0.001  -0.001
   12        0.000  -0.000  -0.001  -0.001
   13        0.000  -0.000   0.000   0.000
   14       -0.000  -0.000   0.000  -0.000
   15        0.000  -0.000   0.000   0.000
   16       -0.000  -0.000   0.000  -0.000
--------------------------------------------------
tot          0.000  -0.001  -0.002  -0.004
 


 magnetization (y)
 
# of ion       s       p       d       tot
------------------------------------------
[...]
     0.0000000     0.0000000     0.0000000     0.0000000     0.0000000     0.0000000     0.0000000

 Ion:    5  E_soc:     -0.0017350
 l=   1
     0.0000000    -0.0002477    -0.0003675
    -0.0002477     0.0000000    -0.0002524
    -0.0003675    -0.0002524     0.0000000
 l=   2
     0.0000000     0.0000000     0.0000000     0.0000000     0.0000000
     0.0000000     0.0000000     0.0000000     0.0000000     0.0000000
     0.0000000     0.0000000     0.0000000     0.0000000     0.0000000
     0.0000000     0.0000000     0.0000000     0.0000000     0.0000000
     0.0000000     0.0000000     0.0000000     0.0000000     0.0000000
 l=   3
     0.0000000     0.0000000     0.0000000     0.0000000     0.0000000     0.0000000     0.0000000
     0.0000000     0.0000000     0.0000000     0.0000000     0.0000000     0.0000000     0.0000000
     0.0000000     0.0000000     0.0000000     0.0000000     0.0000000     0.0000000     0.0000000
     0.0000000     0.0000000     0.0000000     0.0000000     0.0000000     0.0000000     0.0000000
     0.0000000     0.0000000     0.0000000     0.0000000     0.0000000     0.0000000     0.0000000
     0.0000000     0.0000000     0.0000000     0.0000000     0.0000000     0.0000000     0.0000000
     0.0000000     0.0000000     0.0000000     0.0000000     0.0000000     0.0000000     0.0000000

 Ion:    6  E_soc:     -0.0017350
 l=   1
     0.0000000    -0.0002477    -0.0003675
    -0.0002477     0.0000000    -0.0002524
    -0.0003675    -0.0002524     0.0000000
 l=   2
     0.0000000     0.0000000     0.0000000     0.0000000     0.0000000
     0.0000000     0.0000000     0.0000000     0.0000000     0.0000000
     0.0000000     0.0000000     0.0000000     0.0000000     0.0000000
     0.0000000     0.0000000     0.0000000     0.0000000     0.0000000
     0.0000000     0.0000000     0.0000000     0.0000000     0.0000000
 l=   3
     0.0000000     0.0000000     0.0000000     0.0000000     0.0000000     0.0000000     0.0000000
     0.0000000     0.0000000     0.0000000     0.0000000     0.0000000     0.0000000     0.0000000
     0.0000000     0.0000000     0.0000000     0.0000000     0.0000000     0.0000000     0.0000000
     0.0000000     0.0000000     0.0000000     0.0000000     0.0000000     0.0000000     0.0000000
     0.0000000     0.0000000     0.0000000     0.0000000     0.0000000     0.0000000     0.0000000
     0.0000000     0.0000000     0.0000000     0.0000000     0.0000000     0.0000000     0.0000000
     0.0000000     0.0000000     0.0000000     0.0000000     0.0000000     0.0000000     0.0000000

 Ion:    7  E_soc:     -0.0017350
 l=   1
     0.0000000    -0.0002524    -0.0003675
    -0.0002524     0.0000000    -0.0002477
    -0.0003675    -0.0002477     0.0000000
 l=   2
     0.0000000     0.0000000     0.0000000     0.0000000     0.0000000
     0.0000000     0.0000000     0.0000000     0.0000000     0.0000000
     0.0000000     0.0000000     0.0000000     0.0000000     0.0000000
     0.0000000     0.0000000     0.0000000     0.0000000     0.0000000
     0.0000000     0.0000000     0.0000000     0.0000000     0.0000000
 l=   3
     0.0000000     0.0000000     0.0000000     0.0000000     0.0000000     0.0000000     0.0000000
     0.0000000     0.0000000     0.0000000     0.0000000     0.0000000     0.0000000     0.0000000
     0.0000000     0.0000000     0.0000000     0.0000000     0.0000000     0.0000000     0.0000000
     0.0000000     0.0000000     0.0000000     0.0000000     0.0000000     0.0000000     0.0000000
     0.0000000     0.0000000     0.0000000     0.0000000     0.0000000     0.0000000     0.0000000
     0.0000000     0.0000000     0.0000000     0.0000000     0.0000000     0.0000000     0.0000000
     0.0000000     0.0000000     0.0000000     0.0000000     0.0000000     0.0000000     0.0000000

 Ion:    8  E_soc:     -0.0017350
 l=   1
     0.0000000    -0.0002524    -0.0003675
    -0.0002524     0.0000000    -0.0002477
    -0.0003675    -0.0002477     0.0000000
 l=   2
     0.0000000     0.0000000     0.0000000     0.0000000     0.0000000
     0.0000000     0.0000000     0.0000000     0.0000000     0.0000000
     0.0000000     0.0000000     0.0000000     0.0000000     0.0000000
     0.0000000     0.0000000     0.0000000     0.0000000     0.0000000
     0.0000000     0.0000000     0.0000000     0.0000000     0.0000000
 l=   3
     0.0000000     0.0000000     0.0000000     0.0000000     0.0000000     0.0000000     0.0000000
     0.0000000     0.0000000     0.0000000     0.0000000     0.0000000     0.0000000     0.0000000
     0.0000000     0.0000000     0.0000000     0.0000000     0.0000000     0.0000000     0.0000000
     0.0000000     0.0000000     0.0000000     0.0000000     0.0000000     0.0000000     0.0000000
     0.0000000     0.0000000     0.0000000     0.0000000     0.0000000     0.0000000     0.0000000
     0.0000000     0.0000000     0.0000000     0.0000000     0.0000000     0.0000000     0.0000000
     0.0000000     0.0000000     0.0000000     0.0000000     0.0000000     0.0000000     0.0000000

 Ion:    9  E_soc:     -0.0618297
 l=   1
     0.0000000    -0.0085617    -0.0085502
    -0.0085617     0.0000000    -0.0085617
    -0.0085502    -0.0085617     0.0000000
 l=   2
     0.0000000    -0.0004017     0.0000000    -0.0004017    -0.0013465
    -0.0004017     0.0000000    -0.0010619    -0.0002935    -0.0003371
     0.0000000    -0.0010619     0.0000000    -0.0010619     0.0000000
    -0.0004017    -0.0002935    -0.0010619     0.0000000    -0.0003371
    -0.0013465    -0.0003371     0.0000000    -0.0003371     0.0000000
 l=   3
     0.0000000     0.0000000     0.0000000     0.0000000     0.0000000     0.0000000     0.0000000
     0.0000000     0.0000000     0.0000000     0.0000000     0.0000000     0.0000000     0.0000000
     0.0000000     0.0000000     0.0000000     0.0000000     0.0000000     0.0000000     0.0000000
     0.0000000     0.0000000     0.0000000     0.0000000     0.0000000     0.0000000     0.0000000
     0.0000000     0.0000000     0.0000000     0.0000000     0.0000000     0.0000000     0.0000000
     0.0000000     0.0000000     0.0000000     0.0000000     0.0000000     0.0000000     0.0000000
     0.0000000     0.0000000     0.0000000     0.0000000     0.0000000     0.0000000     0.0000000

 Ion:   10  E_soc:     -0.0618297
 l=   1
     0.0000000    -0.0085617    -0.0085502
    -0.0085617     0.0000000    -0.0085617
    -0.0085502    -0.0085617     0.0000000
 l=   2
     0.0000000    -0.0004017     0.0000000    -0.0004017    -0.0013465
    -0.0004017     0.0000000    -0.0010619    -0.0002935    -0.0003371
     0.0000000    -0.0010619     0.0000000    -0.0010619     0.0000000
    -0.0004017    -0.0002935    -0.0010619     0.0000000    -0.0003371
    -0.0013465    -0.0003371     0.0000000    -0.0003371     0.0000000
 l=   3
     0.0000000     0.0000000     0.0000000     0.0000000     0.0000000     0.0000000     0.0000000
     0.0000000     0.0000000     0.0000000     0.0000000     0.0000000     0.0000000     0.0000000
     0.0000000     0.0000000     0.0000000     0.0000000     0.0000000     0.0000000     0.0000000
     0.0000000     0.0000000     0.0000000     0.0000000     0.0000000     0.0000000     0.0000000
     0.0000000     0.0000000     0.0000000     0.0000000     0.0000000     0.0000000     0.0000000
     0.0000000     0.0000000     0.0000000     0.0000000     0.0000000     0.0000000     0.0000000
     0.0000000     0.0000000     0.0000000     0.0000000     0.0000000     0.0000000     0.0000000

 Ion:   11  E_soc:     -0.0618297
 l=   1
     0.0000000    -0.0085617    -0.0085502
    -0.0085617     0.0000000    -0.0085617
    -0.0085502    -0.0085617     0.0000000
 l=   2
     0.0000000    -0.0004017     0.0000000    -0.0004017    -0.0013465
    -0.0004017     0.0000000    -0.0010619    -0.0002935    -0.0003371
     0.0000000    -0.0010619     0.0000000    -0.0010619     0.0000000
    -0.0004017    -0.0002935    -0.0010619     0.0000000    -0.0003371
    -0.0013465    -0.0003371     0.0000000    -0.0003371     0.0000000
 l=   3
     0.0000000     0.0000000     0.0000000     0.0000000     0.0000000     0.0000000     0.0000000
     0.0000000     0.0000000     0.0000000     0.0000000     0.0000000     0.0000000     0.0000000
     0.0000000     0.0000000     0.0000000     0.0000000     0.0000000     0.0000000     0.0000000
     0.0000000     0.0000000     0.0000000     0.0000000     0.0000000     0.0000000     0.0000000
     0.0000000     0.0000000     0.0000000     0.0000000     0.0000000     0.0000000     0.0000000
     0.0000000     0.0000000     0.0000000     0.0000000     0.0000000     0.0000000     0.0000000
     0.0000000     0.0000000     0.0000000     0.0000000     0.0000000     0.0000000     0.0000000

 Ion:   12  E_soc:     -0.0618297
 l=   1
     0.0000000    -0.0085617    -0.0085502
    -0.0085617     0.0000000    -0.0085617
    -0.0085502    -0.0085617     0.0000000
 l=   2
     0.0000000    -0.0004017     0.0000000    -0.0004017    -0.0013465
    -0.0004017     0.0000000    -0.0010619    -0.0002935    -0.0003371
     0.0000000    -0.0010619     0.0000000    -0.0010619     0.0000000
    -0.0004017    -0.0002935    -0.0010619     0.0000000    -0.0003371
    -0.0013465    -0.0003371     0.0000000    -0.0003371     0.0000000
 l=   3
     0.0000000     0.0000000     0.0000000     0.0000000     0.0000000     0.0000000     0.0000000
     0.0000000     0.0000000     0.0000000     0.0000000     0.0000000     0.0000000     0.0000000
     0.0000000     0.0000000     0.0000000     0.0000000     0.0000000     0.0000000     0.0000000
     0.0000000     0.0000000     0.0000000     0.0000000     0.0000000     0.0000000     0.0000000
     0.0000000     0.0000000     0.0000000     0.0000000     0.0000000     0.0000000     0.0000000
     0.0000000     0.0000000     0.0000000     0.0000000     0.0000000     0.0000000     0.0000000
     0.0000000     0.0000000     0.0000000     0.0000000     0.0000000     0.0000000     0.0000000

 Ion:   13  E_soc:     -0.0363754
 l=   1
     0.0000000    -0.0042778    -0.0043113
    -0.0042778     0.0000000    -0.0042778
    -0.0043113    -0.0042778     0.0000000
 l=   2
     0.0000000    -0.0003502     0.0000000    -0.0003502    -0.0008515
    -0.0003502     0.0000000    -0.0013063    -0.0002985    -0.0004288
     0.0000000    -0.0013063     0.0000000    -0.0013063     0.0000000
    -0.0003502    -0.0002985    -0.0013063     0.0000000    -0.0004288
    -0.0008515    -0.0004288     0.0000000    -0.0004288     0.0000000
 l=   3
     0.0000000     0.0000000     0.0000000     0.0000000     0.0000000     0.0000000     0.0000000
     0.0000000     0.0000000     0.0000000     0.0000000     0.0000000     0.0000000     0.0000000
     0.0000000     0.0000000     0.0000000     0.0000000     0.0000000     0.0000000     0.0000000
     0.0000000     0.0000000     0.0000000     0.0000000     0.0000000     0.0000000     0.0000000
     0.0000000     0.0000000     0.0000000     0.0000000     0.0000000     0.0000000     0.0000000
     0.0000000     0.0000000     0.0000000     0.0000000     0.0000000     0.0000000     0.0000000
     0.0000000     0.0000000     0.0000000     0.0000000     0.0000000     0.0000000     0.0000000

 Ion:   14  E_soc:     -0.0363754
 l=   1
     0.0000000    -0.0042778    -0.0043113
    -0.0042778     0.0000000    -0.0042778
    -0.0043113    -0.0042778     0.0000000
 l=   2
     0.0000000    -0.0003502     0.0000000    -0.0003502    -0.0008515
    -0.0003502     0.0000000    -0.0013063    -0.0002985    -0.0004288
     0.0000000    -0.0013063     0.0000000    -0.0013063     0.0000000
    -0.0003502    -0.0002985    -0.0013063     0.0000000    -0.0004288
    -0.0008515    -0.0004288     0.0000000    -0.0004288     0.0000000
 l=   3
     0.0000000     0.0000000     0.0000000     0.0000000     0.0000000     0.0000000     0.0000000
     0.0000000     0.0000000     0.0000000     0.0000000     0.0000000     0.0000000     0.0000000
     0.0000000     0.0000000     0.0000000     0.0000000     0.0000000     0.0000000     0.0000000
     0.0000000     0.0000000     0.0000000     0.0000000     0.0000000     0.0000000     0.0000000
     0.0000000     0.0000000     0.0000000     0.0000000     0.0000000     0.0000000     0.0000000
     0.0000000     0.0000000     0.0000000     0.0000000     0.0000000     0.0000000     0.0000000
     0.0000000     0.0000000     0.0000000     0.0000000     0.0000000     0.0000000     0.0000000

 Ion:   15  E_soc:     -0.0363754
 l=   1
     0.0000000    -0.0042778    -0.0043113
    -0.0042778     0.0000000    -0.0042778
    -0.0043113    -0.0042778     0.0000000
 l=   2
     0.0000000    -0.0003502     0.0000000    -0.0003502    -0.0008515
    -0.0003502     0.0000000    -0.0013063    -0.0002985    -0.0004288
     0.0000000    -0.0013063     0.0000000    -0.0013063     0.0000000
    -0.0003502    -0.0002985    -0.0013063     0.0000000    -0.0004288
    -0.0008515    -0.0004288     0.0000000    -0.0004288     0.0000000
 l=   3
     0.0000000     0.0000000     0.0000000     0.0000000     0.0000000     0.0000000     0.0000000
     0.0000000     0.0000000     0.0000000     0.0000000     0.0000000     0.0000000     0.0000000
     0.0000000     0.0000000     0.0000000     0.0000000     0.0000000     0.0000000     0.0000000
     0.0000000     0.0000000     0.0000000     0.0000000     0.0000000     0.0000000     0.0000000
     0.0000000     0.0000000     0.0000000     0.0000000     0.0000000     0.0000000     0.0000000
     0.0000000     0.0000000     0.0000000     0.0000000     0.0000000     0.0000000     0.0000000
     0.0000000     0.0000000     0.0000000     0.0000000     0.0000000     0.0000000     0.0000000

 Ion:   16  E_soc:     -0.0363754
 l=   1
     0.0000000    -0.0042778    -0.0043113
    -0.0042778     0.0000000    -0.0042778
    -0.0043113    -0.0042778     0.0000000
 l=   2
     0.0000000    -0.0003502     0.0000000    -0.0003502    -0.0008515
    -0.0003502     0.0000000    -0.0013063    -0.0002985    -0.0004288
     0.0000000    -0.0013063     0.0000000    -0.0013063     0.0000000
    -0.0003502    -0.0002985    -0.0013063     0.0000000    -0.0004288
    -0.0008515    -0.0004288     0.0000000    -0.0004288     0.0000000
 l=   3
     0.0000000     0.0000000     0.0000000     0.0000000     0.0000000     0.0000000     0.0000000
     0.0000000     0.0000000     0.0000000     0.0000000     0.0000000     0.0000000     0.0000000
     0.0000000     0.0000000     0.0000000     0.0000000     0.0000000     0.0000000     0.0000000
     0.0000000     0.0000000     0.0000000     0.0000000     0.0000000     0.0000000     0.0000000
     0.0000000     0.0000000     0.0000000     0.0000000     0.0000000     0.0000000     0.0000000
     0.0000000     0.0000000     0.0000000     0.0000000     0.0000000     0.0000000     0.0000000
     0.0000000     0.0000000     0.0000000     0.0000000     0.0000000     0.0000000     0.0000000
 


 total charge     
 
# of ion       s       p       d       tot
------------------------------------------
    1        1.313   2.411   0.000   3.724
    2        1.313   2.410   0.000   3.724
    3        1.313   2.410   0.000   3.723
    4        1.314   2.409   0.000   3.723
    5        1.313   2.410   0.000   3.724
    6        1.313   2.411   0.000   3.724
    7        1.313   2.410   0.000   3.723
    8        1.314   2.409   0.000   3.723
    9        0.260   6.203   8.916  15.379
   10        0.260   6.203   8.916  15.379
   11        0.260   6.203   8.916  15.379
   12        0.260   6.203   8.916  15.379
   13        0.350   6.351   5.822  12.522
   14        0.350   6.351   5.821  12.521
   15        0.350   6.351   5.822  12.522
   16        0.350   6.351   5.821  12.521
--------------------------------------------------
tot         12.946  69.495  58.949 141.390
 


 magnetization (x)
 
# of ion       s       p       d       tot
------------------------------------------
    1       -0.000   0.000   0.000   0.000
    2       -0.000  -0.000   0.000  -0.000
    3       -0.000  -0.000   0.000  -0.000
    4       -0.000  -0.000   0.000  -0.000
    5       -0.000  -0.000   0.000  -0.000
    6       -0.000   0.000   0.000   0.000
    7       -0.000  -0.000   0.000  -0.000
    8       -0.000  -0.000   0.000  -0.000
    9        0.000  -0.000  -0.001  -0.001
   10        0.000  -0.000  -0.001  -0.001
   11        0.000  -0.000  -0.001  -0.001
   12        0.000  -0.000  -0.001  -0.001
   13        0.000  -0.000   0.000   0.000
   14       -0.000  -0.000   0.000  -0.000
   15        0.000  -0.000   0.000   0.000
   16       -0.000  -0.000   0.000  -0.000
--------------------------------------------------
tot          0.000  -0.001  -0.002  -0.004
 


 magnetization (y)
 
# of ion       s       p       d       tot
------------------------------------------
    1       -0.000  -0.000   0.000  -0.000
    2       -0.000  -0.000   0.000  -0.000
    3       -0.000  -0.000   0.000  -0.000
    4        0.000  -0.000   0.000  -0.000
    5       -0.000  -0.000   0.000  -0.000
    6       -0.000  -0.000   0.000  -0.000
    7       -0.000  -0.000   0.000  -0.000
    8        0.000  -0.000   0.000  -0.000
    9        0.000  -0.000  -0.001  -0.001
   10        0.000  -0.000  -0.001  -0.001
   11        0.000  -0.000  -0.001  -0.001
   12        0.000  -0.000  -0.001  -0.001
   13        0.000  -0.000   0.000   0.000
   14        0.000  -0.000   0.000   0.000
   15        0.000  -0.000   0.000   0.000
   16        0.000  -0.000   0.000   0.000
--------------------------------------------------
tot          0.000  -0.002  -0.002  -0.004
 


 magnetization (z)
 
# of ion       s       p       d       tot
------------------------------------------
    1        0.000  -0.000   0.000  -0.000
    2        0.000  -0.002   0.000  -0.002
    3       -0.000   0.002   0.000   0.002
    4       -0.000   0.002   0.000   0.001
    5        0.000  -0.002   0.000  -0.002
    6        0.000  -0.000   0.000  -0.000
    7       -0.000   0.002   0.000   0.002
    8       -0.000   0.002   0.000   0.001
    9        0.000   0.000  -0.001   0.000
   10       -0.000  -0.000   0.001  -0.000
   11        0.000   0.000  -0.001   0.000
   12       -0.000  -0.000   0.001  -0.000
   13        0.020   0.054   3.666   3.740
   14       -0.020  -0.054  -3.667  -3.741
   15        0.020   0.054   3.666   3.740
   16       -0.020  -0.054  -3.667  -3.741
--------------------------------------------------
tot          0.000   0.001  -0.002  -0.000
 
 BZINTS: Fermi energy:  4.998439;172.000000 electrons
         Band energy:***********;  BLOECHL correction:  0.000000
 BZINTS: Fermi energy:  4.998439;172.000000 electrons
         Band energy:***********;  BLOECHL correction:  0.000000
 BZINTS: Fermi energy:  4.998439;172.000000 electrons
         Band energy:***********;  BLOECHL correction:  0.000000
 BZINTS: Fermi energy:  4.998439;172.000000 electrons
         Band energy:***********;  BLOECHL correction:  0.000000

 total amount of memory used by VASP MPI-rank0   226223. kBytes
=======================================================================

   base      :      30000. kBytes
   nonl-proj :       9810. kBytes
   fftplans  :       7182. kBytes
   grid      :      28200. kBytes
   one-center:         62. kBytes
   wavefun   :     150969. kBytes
 
  
  
 General timing and accounting informations for this job:
 ========================================================
  
                  Total CPU time used (sec):     2873.282
                            User time (sec):     2853.066
                          System time (sec):       20.216
                         Elapsed time (sec):     3027.382
  
                   Maximum memory used (kb):      417936.
                   Average memory used (kb):           0.
  
                          Minor page faults:       714442
                          Major page faults:            0
                 Voluntary context switches:      3441763
