       N       E                     dE             d eps       ncg     rms          rms(c)
DAV:   1     0.619314867618E+04    0.61931E+04   -0.50366E+05 12288   0.194E+03
DAV:   2    -0.964267016796E+02   -0.62896E+04   -0.61579E+04 13312   0.440E+02
DAV:   3    -0.371475416689E+03   -0.27505E+03   -0.27392E+03 17664   0.100E+02
DAV:   4    -0.375306911927E+03   -0.38315E+01   -0.38313E+01 13824   0.121E+01
DAV:   5    -0.375410944703E+03   -0.10403E+00   -0.10403E+00 17152   0.201E+00    0.751E+01
DAV:   6    -0.334017729428E+03    0.41393E+02   -0.59351E+02 12288   0.817E+01    0.100E+02
DAV:   7    -0.328466953980E+03    0.55508E+01   -0.11774E+02 12288   0.278E+01    0.437E+01
DAV:   8    -0.328689774446E+03   -0.22282E+00   -0.39199E+01 15360   0.215E+01    0.332E+01
DAV:   9    -0.330333148516E+03   -0.16434E+01   -0.10839E+02 14848   0.248E+01    0.237E+01
DAV:  10    -0.326651657287E+03    0.36815E+01   -0.21092E+01 16128   0.156E+01    0.279E+00
DAV:  11    -0.326765019117E+03   -0.11336E+00   -0.13247E+00 19456   0.199E+00    0.354E+00
DAV:  12    -0.326759532189E+03    0.54869E-02   -0.47499E-01 14592   0.176E+00    0.133E+00
DAV:  13    -0.326769384436E+03   -0.98522E-02   -0.50172E-02 16128   0.375E-01    0.897E-01
DAV:  14    -0.326783269279E+03   -0.13885E-01   -0.83430E-02 17152   0.439E-01    0.441E-01
DAV:  15    -0.326783131152E+03    0.13813E-03   -0.62960E-03 13056   0.199E-01    0.200E-01
DAV:  16    -0.326783557283E+03   -0.42613E-03   -0.86151E-04 18432   0.397E-02    0.135E-01
DAV:  17    -0.326784527803E+03   -0.97052E-03   -0.56983E-03 13824   0.808E-02    0.801E-02
DAV:  18    -0.326784599772E+03   -0.71969E-04   -0.27173E-04 15360   0.251E-02    0.622E-02
DAV:  19    -0.326784598198E+03    0.15744E-05   -0.77298E-05 17920   0.173E-02    0.383E-02
DAV:  20    -0.326784605568E+03   -0.73702E-05   -0.86012E-05 18688   0.145E-02    0.218E-02
DAV:  21    -0.326784606551E+03   -0.98367E-06   -0.14159E-05 15104   0.512E-03    0.150E-02
DAV:  22    -0.326784606436E+03    0.11588E-06   -0.11298E-06 15360   0.186E-03    0.127E-02
DAV:  23    -0.326784606773E+03   -0.33715E-06   -0.61137E-07 15616   0.116E-03    0.581E-03
DAV:  24    -0.326784606585E+03    0.18800E-06   -0.15843E-06 18176   0.227E-03    0.255E-03
DAV:  25    -0.326784606589E+03   -0.44092E-08   -0.16510E-07 14080   0.753E-04    0.177E-03
DAV:  26    -0.326784606594E+03   -0.51950E-08   -0.47807E-08 11008   0.369E-04
   1 F= -.32678461E+03 E0= -.32678461E+03  d E =0.000000E+00  mag=     0.0000
