 vasp.5.4.4.18Apr17-6-g9f103f2a35 (build Oct 20 2023 21:10:59) complex          
  
 executed on                 FRAM date 2024.03.19  14:58:51
 running on  256 total cores
 distrk:  each k-point on  256 cores,    1 groups
 distr:  one band on NCORES_PER_BAND=   1 cores,  256 groups


--------------------------------------------------------------------------------------------------------


 INCAR:
 POTCAR:    PAW_PBE S 06Sep2000                   
 POTCAR:     PAW_PBE Cu_pv 06Sep2000              
 POTCAR:     PAW_PBE Fe_pv 02Aug2007              

 ----------------------------------------------------------------------------- 
|                                                                             |
|           W    W    AA    RRRRR   N    N  II  N    N   GGGG   !!!           |
|           W    W   A  A   R    R  NN   N  II  NN   N  G    G  !!!           |
|           W    W  A    A  R    R  N N  N  II  N N  N  G       !!!           |
|           W WW W  AAAAAA  RRRRR   N  N N  II  N  N N  G  GGG   !            |
|           WW  WW  A    A  R   R   N   NN  II  N   NN  G    G                |
|           W    W  A    A  R    R  N    N  II  N    N   GGGG   !!!           |
|                                                                             |
|      For optimal performance we recommend to set                            |
|        NCORE= 4 - approx SQRT( number of cores)                             |
|      NCORE specifies how many cores store one orbital (NPAR=cpu/NCORE).     |
|      This setting can  greatly improve the performance of VASP for DFT.     |
|      The default,   NCORE=1            might be grossly inefficient         |
|      on modern multi-core architectures or massively parallel machines.     |
|      Do your own testing !!!!                                               |
|      Unfortunately you need to use the default for GW and RPA calculations. |
|      (for HF NCORE is supported but not extensively tested yet)             |
|                                                                             |
 ----------------------------------------------------------------------------- 

 POTCAR:    PAW_PBE S 06Sep2000                   
   SHA256 =  0fc7481fb0695f01bdc6462160264c5c84044ae9ec85a907d398b887a2bc3132 S/
   COPYR  = (c) Copyright 06Sep2000 Georg Kresse                                
   COPYR  = This file is part of the software VASP. Any use, copying, and all ot
   COPYR  = If you do not have a valid VASP license, you may not use, copy or di
   VRHFIN =S : s2p4                                                             
   LEXCH  = PE                                                                  
   EATOM  =   276.8230 eV,   20.3459 Ry                                         
                                                                                
   TITEL  = PAW_PBE S 06Sep2000                                                 
   LULTRA =        F    use ultrasoft PP ?                                      
   IUNSCR =        1    unscreen: 0-lin 1-nonlin 2-no                           
   RPACOR =    1.500    partial core radius                                     
   POMASS =   32.066; ZVAL   =    6.000    mass and valenz                      
   RCORE  =    1.900    outmost cutoff radius                                   
   RWIGS  =    2.200; RWIGS  =    1.164    wigner-seitz radius (au A)           
   ENMAX  =  258.689; ENMIN  =  194.016 eV                                      
   ICORE  =        2    local potential                                         
   LCOR   =        T    correct aug charges                                     
   LPAW   =        T    paw PP                                                  
   EAUG   =  335.092                                                            
   DEXC   =    0.000                                                            
   RMAX   =    1.942    core radius for proj-oper                               
   RAUG   =    1.300    factor for augmentation sphere                          
   RDEP   =    1.954    radius for radial grids                                 
   RDEPT  =    1.744    core radius for aug-charge                              
                                                                                
   Atomic configuration                                                         
    6 entries                                                                   
     n  l   j            E        occ.                                          
     1  0  0.50     -2405.8406   2.0000                                         
     2  0  0.50      -211.7007   2.0000                                         
     2  1  1.50      -156.4958   6.0000                                         
     3  0  0.50       -17.2562   2.0000                                         
     3  1  0.50        -7.0085   4.0000                                         
     3  2  1.50        -6.8029   0.0000                                         
   Description                                                                  
     l       E           TYP  RCUT    TYP  RCUT                                 
     0    -17.2561641     23  1.900                                             
     0    -15.8743224     23  1.900                                             
     1     -7.0085400     23  1.900                                             
     1     -2.7779785     23  1.900                                             
     2     -6.8029130     23  1.900                                             
  local pseudopotential read in
  partial core-charges read in
  partial kinetic energy density read in
  atomic valenz-charges read in
  non local Contribution for L=           0  read in
    real space projection operators read in
  non local Contribution for L=           0  read in
    real space projection operators read in
  non local Contribution for L=           1  read in
    real space projection operators read in
  non local Contribution for L=           1  read in
    real space projection operators read in
    PAW grid and wavefunctions read in
 
   number of l-projection  operators is LMAX  =           4
   number of lm-projection operators is LMMAX =           8
 
 POTCAR:     PAW_PBE Cu_pv 06Sep2000              
   SHA256 =  cb7b504e2ea725fe1f25c85a9ac77d4012ce94cd394135b722c4e25ec297f1cb Cu
   COPYR  = (c) Copyright 06Sep2000 Georg Kresse                                
   COPYR  = This file is part of the software VASP. Any use, copying, and all ot
   COPYR  = If you do not have a valid VASP license, you may not use, copy or di
   VRHFIN =Cu: d10 p1                                                           
   LEXCH  = PE                                                                  
   EATOM  =  4120.1201 eV,  302.8203 Ry                                         
                                                                                
   TITEL  = PAW_PBE Cu_pv 06Sep2000                                             
   LULTRA =        F    use ultrasoft PP ?                                      
   IUNSCR =        1    unscreen: 0-lin 1-nonlin 2-no                           
   RPACOR =    1.500    partial core radius                                     
   POMASS =   63.546; ZVAL   =   17.000    mass and valenz                      
   RCORE  =    2.000    outmost cutoff radius                                   
   RWIGS  =    2.000; RWIGS  =    1.058    wigner-seitz radius (au A)           
   ENMAX  =  368.648; ENMIN  =  276.486 eV                                      
   RCLOC  =    1.304    cutoff for local pot                                    
   LCOR   =        T    correct aug charges                                     
   LPAW   =        T    paw PP                                                  
   EAUG   =  758.233                                                            
   DEXC   =    0.000                                                            
   RMAX   =    2.046    core radius for proj-oper                               
   RAUG   =    1.300    factor for augmentation sphere                          
   RDEP   =    2.025    radius for radial grids                                 
   RDEPT  =    1.558    core radius for aug-charge                              
                                                                                
   Atomic configuration                                                         
    8 entries                                                                   
     n  l   j            E        occ.                                          
     1  0  0.50     -8850.2467   2.0000                                         
     2  0  0.50     -1062.3498   2.0000                                         
     2  1  1.50      -916.8226   6.0000                                         
     3  0  0.50      -114.6929   2.0000                                         
     3  1  1.50       -72.1325   6.0000                                         
     3  2  2.50        -5.0394  10.0000                                         
     4  0  0.50        -4.6097   1.0000                                         
     4  3  2.50        -1.3606   0.0000                                         
   Description                                                                  
     l       E           TYP  RCUT    TYP  RCUT                                 
     1    -72.1324777     23  1.700                                             
     1     -1.3605826     23  1.700                                             
     2     -5.0393776     23  2.000                                             
     2     -6.3999602     23  2.000                                             
     0     -4.6097062     23  1.800                                             
     0     14.1620818     23  1.800                                             
  local pseudopotential read in
  partial core-charges read in
  partial kinetic energy density read in
  atomic valenz-charges read in
  non local Contribution for L=           1  read in
    real space projection operators read in
  non local Contribution for L=           1  read in
    real space projection operators read in
  non local Contribution for L=           2  read in
    real space projection operators read in
  non local Contribution for L=           2  read in
    real space projection operators read in
  non local Contribution for L=           0  read in
    real space projection operators read in
  non local Contribution for L=           0  read in
    real space projection operators read in
    PAW grid and wavefunctions read in
 
   number of l-projection  operators is LMAX  =           6
   number of lm-projection operators is LMMAX =          18
 
 POTCAR:     PAW_PBE Fe_pv 02Aug2007              
   SHA256 =  5d22e414b1f82158bf2c7ecb8b97b28fd0923e48cadc1c3bf74d524558f5dd32 Fe
   COPYR  = (c) Copyright 02Aug2007 Georg Kresse                                
   COPYR  = This file is part of the software VASP. Any use, copying, and all ot
   COPYR  = If you do not have a valid VASP license, you may not use, copy or di
   VRHFIN =Fe:  3pd7s1                                                          
   LEXCH  = PE                                                                  
   EATOM  =  2457.4239 eV,  180.6156 Ry                                         
                                                                                
   TITEL  = PAW_PBE Fe_pv 02Aug2007                                             
   LULTRA =        F    use ultrasoft PP ?                                      
   IUNSCR =        1    unscreen: 0-lin 1-nonlin 2-no                           
   RPACOR =    1.750    partial core radius                                     
   POMASS =   55.847; ZVAL   =   14.000    mass and valenz                      
   RCORE  =    2.200    outmost cutoff radius                                   
   RWIGS  =    2.200; RWIGS  =    1.164    wigner-seitz radius (au A)           
   ENMAX  =  293.238; ENMIN  =  219.928 eV                                      
   ICORE  =        3    local potential                                         
   LCOR   =        T    correct aug charges                                     
   LPAW   =        T    paw PP                                                  
   EAUG   =  578.342                                                            
   DEXC   =    0.000                                                            
   RMAX   =    2.249    core radius for proj-oper                               
   RAUG   =    1.300    factor for augmentation sphere                          
   RDEP   =    2.296    radius for radial grids                                 
   RDEPT  =    1.766    core radius for aug-charge                              
                                                                                
   Atomic configuration                                                         
    8 entries                                                                   
     n  l   j            E        occ.                                          
     1  0  0.50     -6993.8440   2.0000                                         
     2  0  0.50      -814.6047   2.0000                                         
     2  1  1.50      -693.3689   6.0000                                         
     3  0  0.50       -89.4732   2.0000                                         
     3  1  1.50       -55.6373   6.0000                                         
     3  2  2.50        -3.8151   7.0000                                         
     4  0  0.50        -4.2551   1.0000                                         
     4  3  2.50        -1.3606   0.0000                                         
   Description                                                                  
     l       E           TYP  RCUT    TYP  RCUT                                 
     1    -55.6372668     23  2.000                                             
     1     -5.4423304     23  2.000                                             
     2     -3.8151096     23  2.200                                             
     2     -5.1756922     23  2.200                                             
     0     -4.2550951     23  2.200                                             
     0     27.2116520     23  2.200                                             
     3     -1.3605826     23  2.200                                             
  local pseudopotential read in
  partial core-charges read in
  partial kinetic energy density read in
  atomic valenz-charges read in
  non local Contribution for L=           1  read in
    real space projection operators read in
  non local Contribution for L=           1  read in
    real space projection operators read in
  non local Contribution for L=           2  read in
    real space projection operators read in
  non local Contribution for L=           2  read in
    real space projection operators read in
  non local Contribution for L=           0  read in
    real space projection operators read in
  non local Contribution for L=           0  read in
    real space projection operators read in
    PAW grid and wavefunctions read in
 
   number of l-projection  operators is LMAX  =           6
   number of lm-projection operators is LMMAX =          18
 

 ----------------------------------------------------------------------------- 
|                                                                             |
|  ADVICE TO THIS USER RUNNING 'VASP/VAMP'   (HEAR YOUR MASTER'S VOICE ...):  |
|                                                                             |
|      You have a (more or less) 'large supercell' and for larger cells       |
|      it might be more efficient to use real space projection opertators     |
|      So try LREAL= Auto  in the INCAR   file.                               |
|      Mind:          For very  accurate calculation you might also keep the  |
|      reciprocal projection scheme          (i.e. LREAL=.FALSE.)             |
|                                                                             |
 ----------------------------------------------------------------------------- 


 ----------------------------------------------------------------------------- 
|                                                                             |
|  ADVICE TO THIS USER RUNNING 'VASP/VAMP'   (HEAR YOUR MASTER'S VOICE ...):  |
|                                                                             |
|      You enforced a specific xc-type in the INCAR file,                     |
|      a different type was found on the POTCAR file                          |
|          I HOPE YOU KNOW, WHAT YOU ARE  DOING                               |
|                                                                             |
 ----------------------------------------------------------------------------- 

  PAW_PBE S 06Sep2000                   :
 energy of atom  1       EATOM= -276.8230
 kinetic energy error for atom=    0.0007 (will be added to EATOM!!)
   PAW_PBE Cu_pv 06Sep2000              :
 energy of atom  2       EATOM=-4120.1201
 kinetic energy error for atom=    0.0094 (will be added to EATOM!!)
   PAW_PBE Fe_pv 02Aug2007              :
 energy of atom  3       EATOM=-2457.4239
 kinetic energy error for atom=    0.0025 (will be added to EATOM!!)
 
 
 POSCAR: generated by phonopy                    
  positions in direct lattice
  velocities in cartesian coordinates
 exchange correlation table for  LEXCH =       14
   RHO(1)=    0.500       N(1)  =     2000
   RHO(2)=  100.500       N(2)  =     4000
 


--------------------------------------------------------------------------------------------------------


 ion  position               nearest neighbor table
   1  0.126  0.125  0.125-  37 2.26  41 2.26  49 2.28  61 2.28
   2  0.626  0.125  0.125-  38 2.26  42 2.26  50 2.28  62 2.28
   3  0.126  0.625  0.125-  39 2.26  43 2.26  51 2.28  63 2.28
   4  0.626  0.625  0.125-  40 2.26  44 2.26  52 2.28  64 2.28
   5  0.374  0.375  0.125-  39 2.26  41 2.26  52 2.28  62 2.28
   6  0.874  0.375  0.125-  40 2.26  42 2.26  51 2.28  61 2.28
   7  0.374  0.875  0.125-  37 2.26  43 2.26  50 2.28  64 2.28
   8  0.874  0.875  0.125-  38 2.26  44 2.26  49 2.28  63 2.28
   9  0.125  0.374  0.875-  41 2.26  45 2.26  51 2.28  55 2.28
  10  0.625  0.374  0.875-  42 2.26  46 2.26  52 2.28  56 2.28
  11  0.125  0.874  0.875-  43 2.26  47 2.26  49 2.28  53 2.28
  12  0.625  0.874  0.875-  44 2.26  48 2.26  50 2.28  54 2.28
  13  0.375  0.126  0.875-  41 2.26  46 2.26  50 2.28  53 2.28
  14  0.875  0.126  0.875-  42 2.26  45 2.26  49 2.28  54 2.28
  15  0.375  0.626  0.875-  43 2.26  48 2.26  52 2.28  55 2.28
  16  0.875  0.626  0.875-  44 2.26  47 2.26  51 2.28  56 2.28
  17  0.124  0.125  0.625-  33 2.26  45 2.26  53 2.28  57 2.28
  18  0.624  0.125  0.625-  34 2.26  46 2.26  54 2.28  58 2.28
  19  0.124  0.625  0.625-  35 2.26  47 2.26  55 2.28  59 2.28
  20  0.624  0.625  0.625-  36 2.26  48 2.26  56 2.28  60 2.28
  21  0.376  0.375  0.625-  36 2.26  46 2.26  55 2.28  57 2.28
  22  0.876  0.375  0.625-  35 2.26  45 2.26  56 2.28  58 2.28
  23  0.376  0.875  0.625-  34 2.26  48 2.26  53 2.28  59 2.28
  24  0.876  0.875  0.625-  33 2.26  47 2.26  54 2.28  60 2.28
  25  0.375  0.124  0.375-  34 2.26  37 2.26  57 2.28  62 2.28
  26  0.875  0.124  0.375-  33 2.26  38 2.26  58 2.28  61 2.28
  27  0.375  0.624  0.375-  36 2.26  39 2.26  59 2.28  64 2.28
  28  0.875  0.624  0.375-  35 2.26  40 2.26  60 2.28  63 2.28
  29  0.125  0.376  0.375-  35 2.26  39 2.26  57 2.28  61 2.28
  30  0.625  0.376  0.375-  36 2.26  40 2.26  58 2.28  62 2.28
  31  0.125  0.876  0.375-  33 2.26  37 2.26  59 2.28  63 2.28
  32  0.625  0.876  0.375-  34 2.26  38 2.26  60 2.28  64 2.28
  33  0.000  0.000  0.500-  17 2.26  26 2.26  24 2.26  31 2.26
  34  0.500  0.000  0.500-  18 2.26  25 2.26  23 2.26  32 2.26
  35  0.000  0.500  0.500-  19 2.26  28 2.26  29 2.26  22 2.26
  36  0.500  0.500  0.500-  20 2.26  27 2.26  21 2.26  30 2.26
  37  0.250  0.000  0.250-   1 2.26  25 2.26   7 2.26  31 2.26
  38  0.750  0.000  0.250-  26 2.26   2 2.26   8 2.26  32 2.26
  39  0.250  0.500  0.250-   3 2.26  27 2.26   5 2.26  29 2.26
  40  0.750  0.500  0.250-  28 2.26   4 2.26  30 2.26   6 2.26
  41  0.250  0.250  0.000-   1 2.26  13 2.26   9 2.26   5 2.26
  42  0.750  0.250  0.000-  14 2.26   2 2.26  10 2.26   6 2.26
  43  0.250  0.750  0.000-   3 2.26  15 2.26   7 2.26  11 2.26
  44  0.750  0.750  0.000-   4 2.26  16 2.26  12 2.26   8 2.26
  45  0.000  0.250  0.750-  14 2.26  17 2.26   9 2.26  22 2.26
  46  0.500  0.250  0.750-  13 2.26  18 2.26  10 2.26  21 2.26
  47  0.000  0.750  0.750-  19 2.26  16 2.26  11 2.26  24 2.26
  48  0.500  0.750  0.750-  20 2.26  15 2.26  23 2.26  12 2.26
  49  0.000  0.000  0.000-   8 2.28  11 2.28   1 2.28  14 2.28
  50  0.500  0.000  0.000-  12 2.28   7 2.28   2 2.28  13 2.28
  51  0.000  0.500  0.000-   6 2.28   9 2.28  16 2.28   3 2.28
  52  0.500  0.500  0.000-   5 2.28  10 2.28   4 2.28  15 2.28
  53  0.250  0.000  0.750-  11 2.28  23 2.28  17 2.28  13 2.28
  54  0.750  0.000  0.750-  12 2.28  24 2.28  18 2.28  14 2.28
  55  0.250  0.500  0.750-   9 2.28  21 2.28  15 2.28  19 2.28
  56  0.750  0.500  0.750-  22 2.28  10 2.28  16 2.28  20 2.28
  57  0.250  0.250  0.500-  21 2.28  29 2.28  25 2.28  17 2.28
  58  0.750  0.250  0.500-  22 2.28  30 2.28  26 2.28  18 2.28
  59  0.250  0.750  0.500-  31 2.28  23 2.28  27 2.28  19 2.28
  60  0.750  0.750  0.500-  24 2.28  32 2.28  28 2.28  20 2.28
  61  0.000  0.250  0.250-   6 2.28  29 2.28  26 2.28   1 2.28
  62  0.500  0.250  0.250-   5 2.28  30 2.28   2 2.28  25 2.28
  63  0.000  0.750  0.250-   8 2.28  31 2.28  28 2.28   3 2.28
  64  0.500  0.750  0.250-  32 2.28   7 2.28   4 2.28  27 2.28
 
  LATTYP: Found a simple tetragonal cell.
 ALAT       =    10.5159522730
 C/A-ratio  =     0.9900440709
  
  Lattice vectors:
  
 A1 = (  10.5159522730,   0.0000000000,   0.0000000000)
 A2 = (   0.0000000000,  10.5159522730,   0.0000000000)
 A3 = (   0.0000000000,   0.0000000000,  10.4112561979)


Analysis of symmetry for initial positions (statically):
=====================================================================
 Subroutine PRICEL returns following result:
 
  LATTYP: Found a body centered tetragonal cell.
 ALAT       =     5.2579761365
 C/A-ratio  =     1.9800881418
  
  Lattice vectors:
  
 A1 = (   2.6289880682,  -2.6289880682,   5.2056280989)
 A2 = (  -2.6289880682,   2.6289880682,   5.2056280989)
 A3 = (  -2.6289880682,  -2.6289880682,  -5.2056280989)
 
   8 primitive cells build up your supercell.
 

 Routine SETGRP: Setting up the symmetry group for a 
 simple tetragonal supercell.


 Subroutine GETGRP returns: Found  8 space group operations
 (whereof  4 operations were pure point group operations)
 out of a pool of 16 trial point group operations.


The static configuration has the point symmetry S_4 .
 The point group associated with its full space group is D_2d.


Analysis of symmetry for dynamics (positions and initial velocities):
=====================================================================
 Subroutine PRICEL returns following result:
 
  LATTYP: Found a body centered tetragonal cell.
 ALAT       =     5.2579761365
 C/A-ratio  =     1.9800881418
  
  Lattice vectors:
  
 A1 = (   2.6289880682,  -2.6289880682,   5.2056280989)
 A2 = (  -2.6289880682,   2.6289880682,   5.2056280989)
 A3 = (  -2.6289880682,  -2.6289880682,  -5.2056280989)
 
   8 primitive cells build up your supercell.
 

 Routine SETGRP: Setting up the symmetry group for a 
 simple tetragonal supercell.


 Subroutine GETGRP returns: Found  8 space group operations
 (whereof  4 operations were pure point group operations)
 out of a pool of 16 trial point group operations.


The dynamic configuration has the point symmetry S_4 .
 The point group associated with its full space group is D_2d.


Analysis of structural, dynamic, and magnetic symmetry:
=====================================================================
 Subroutine PRICEL returns following result:
 
  LATTYP: Found a body centered tetragonal cell.
 ALAT       =     5.2579761365
 C/A-ratio  =     1.9800881418
  
  Lattice vectors:
  
 A1 = (   2.6289880682,  -2.6289880682,   5.2056280989)
 A2 = (  -2.6289880682,   2.6289880682,   5.2056280989)
 A3 = (  -2.6289880682,  -2.6289880682,  -5.2056280989)
 
   8 primitive cells build up your supercell.
 

 Routine SETGRP: Setting up the symmetry group for a 
 simple tetragonal supercell.


 Subroutine GETGRP returns: Found  8 space group operations
 (whereof  4 operations were pure point group operations)
 out of a pool of 16 trial point group operations.


The magnetic configuration has the point symmetry S_4 .
 The point group associated with its full space group is D_2d.


 Subroutine INISYM returns: Found  8 space group operations
 (whereof  4 operations are pure point group operations),
 and found     8 'primitive' translations

 
 
 KPOINTS: Automatic mesh                          

Automatic generation of k-mesh.
Space group operators:
 irot       det(A)        alpha          n_x          n_y          n_z        tau_x        tau_y        tau_z
    1     1.000000     0.000001     1.000000     0.000000     0.000000     0.000000     0.000000     0.000000
    2    -1.000000    90.000000     0.000000     0.000000    -1.000000     0.000000     0.000000     0.000000
    3     1.000000   180.000000     0.000000     0.000000     1.000000     0.000000     0.000000     0.000000
    4    -1.000000    90.000000     0.000000     0.000000     1.000000     0.000000     0.000000     0.000000
    5     1.000000   179.999999     0.000000     1.000000     0.000000     0.000000    -0.250000     0.250000
    6    -1.000000   179.999999     0.707107     0.707107     0.000000     0.000000    -0.250000     0.250000
    7     1.000000   179.999999     1.000000     0.000000     0.000000     0.000000    -0.250000     0.250000
    8    -1.000000   179.999999     0.707107    -0.707107     0.000000     0.000000    -0.250000     0.250000
 
 Subroutine IBZKPT returns following result:
 ===========================================
 
 Found     18 irreducible k-points:
 
 Following reciprocal coordinates:
            Coordinates               Weight
  0.000000  0.000000  0.000000      1.000000
  0.250000  0.000000  0.000000      4.000000
  0.500000  0.000000  0.000000      2.000000
  0.250000  0.250000  0.000000      4.000000
  0.500000  0.250000  0.000000      4.000000
  0.500000  0.500000  0.000000      1.000000
  0.000000  0.000000  0.250000      2.000000
  0.250000  0.000000  0.250000      8.000000
  0.500000  0.000000  0.250000      4.000000
  0.250000  0.250000  0.250000      8.000000
  0.500000  0.250000  0.250000      8.000000
  0.500000  0.500000  0.250000      2.000000
  0.000000  0.000000  0.500000      1.000000
  0.250000  0.000000  0.500000      4.000000
  0.500000  0.000000  0.500000      2.000000
  0.250000  0.250000  0.500000      4.000000
  0.500000  0.250000  0.500000      4.000000
  0.500000  0.500000  0.500000      1.000000
 
 Following cartesian coordinates:
            Coordinates               Weight
  0.000000  0.000000  0.000000      1.000000
  0.023773  0.000000  0.000000      4.000000
  0.047547  0.000000  0.000000      2.000000
  0.023773  0.023773  0.000000      4.000000
  0.047547  0.023773  0.000000      4.000000
  0.047547  0.047547  0.000000      1.000000
  0.000000  0.000000  0.024012      2.000000
  0.023773  0.000000  0.024012      8.000000
  0.047547  0.000000  0.024012      4.000000
  0.023773  0.023773  0.024012      8.000000
  0.047547  0.023773  0.024012      8.000000
  0.047547  0.047547  0.024012      2.000000
  0.000000  0.000000  0.048025      1.000000
  0.023773  0.000000  0.048025      4.000000
  0.047547  0.000000  0.048025      2.000000
  0.023773  0.023773  0.048025      4.000000
  0.047547  0.023773  0.048025      4.000000
  0.047547  0.047547  0.048025      1.000000
 
 TETIRR: Found     96 inequivalent tetrahedra from      384
 
 Subroutine IBZKPT_HF returns following result:
 ==============================================
 
 Found     64 k-points in 1st BZ
 the following     64 k-points will be used (e.g. in the exchange kernel)
 Following reciprocal coordinates:   # in IRBZ
  0.000000  0.000000  0.000000    0.01562500   1 t-inv F
  0.250000  0.000000  0.000000    0.01562500   2 t-inv F
  0.500000  0.000000  0.000000    0.01562500   3 t-inv F
  0.250000  0.250000  0.000000    0.01562500   4 t-inv F
  0.500000  0.250000  0.000000    0.01562500   5 t-inv F
  0.500000  0.500000  0.000000    0.01562500   6 t-inv F
  0.000000  0.000000  0.250000    0.01562500   7 t-inv F
  0.250000  0.000000  0.250000    0.01562500   8 t-inv F
  0.500000  0.000000  0.250000    0.01562500   9 t-inv F
  0.250000  0.250000  0.250000    0.01562500  10 t-inv F
  0.500000  0.250000  0.250000    0.01562500  11 t-inv F
  0.500000  0.500000  0.250000    0.01562500  12 t-inv F
  0.000000  0.000000  0.500000    0.01562500  13 t-inv F
  0.250000  0.000000  0.500000    0.01562500  14 t-inv F
  0.500000  0.000000  0.500000    0.01562500  15 t-inv F
  0.250000  0.250000  0.500000    0.01562500  16 t-inv F
  0.500000  0.250000  0.500000    0.01562500  17 t-inv F
  0.500000  0.500000  0.500000    0.01562500  18 t-inv F
  0.000000 -0.250000  0.000000    0.01562500   2 t-inv F
 -0.250000  0.000000  0.000000    0.01562500   2 t-inv F
  0.000000  0.250000  0.000000    0.01562500   2 t-inv F
  0.000000 -0.500000  0.000000    0.01562500   3 t-inv F
  0.250000 -0.250000  0.000000    0.01562500   4 t-inv F
 -0.250000 -0.250000  0.000000    0.01562500   4 t-inv F
 -0.250000  0.250000  0.000000    0.01562500   4 t-inv F
  0.250000 -0.500000  0.000000    0.01562500   5 t-inv F
 -0.500000 -0.250000  0.000000    0.01562500   5 t-inv F
 -0.250000  0.500000  0.000000    0.01562500   5 t-inv F
  0.000000  0.000000 -0.250000    0.01562500   7 t-inv F
  0.000000 -0.250000 -0.250000    0.01562500   8 t-inv F
 -0.250000  0.000000  0.250000    0.01562500   8 t-inv F
  0.000000  0.250000 -0.250000    0.01562500   8 t-inv F
 -0.250000  0.000000 -0.250000    0.01562500   8 t-inv F spinflp
  0.000000 -0.250000  0.250000    0.01562500   8 t-inv F spinflp
  0.250000  0.000000 -0.250000    0.01562500   8 t-inv F spinflp
  0.000000  0.250000  0.250000    0.01562500   8 t-inv F spinflp
  0.000000 -0.500000 -0.250000    0.01562500   9 t-inv F
 -0.500000  0.000000 -0.250000    0.01562500   9 t-inv F spinflp
  0.000000 -0.500000  0.250000    0.01562500   9 t-inv F spinflp
  0.250000 -0.250000 -0.250000    0.01562500  10 t-inv F
 -0.250000 -0.250000  0.250000    0.01562500  10 t-inv F
 -0.250000  0.250000 -0.250000    0.01562500  10 t-inv F
  0.250000 -0.500000 -0.250000    0.01562500  11 t-inv F
 -0.500000 -0.250000  0.250000    0.01562500  11 t-inv F
 -0.250000  0.500000 -0.250000    0.01562500  11 t-inv F
 -0.500000  0.250000 -0.250000    0.01562500  11 t-inv F spinflp
 -0.250000 -0.500000  0.250000    0.01562500  11 t-inv F spinflp
  0.500000 -0.250000 -0.250000    0.01562500  11 t-inv F spinflp
  0.250000  0.500000  0.250000    0.01562500  11 t-inv F spinflp
  0.500000 -0.500000 -0.250000    0.01562500  12 t-inv F
  0.000000 -0.250000 -0.500000    0.01562500  14 t-inv F
 -0.250000  0.000000  0.500000    0.01562500  14 t-inv F
  0.000000  0.250000 -0.500000    0.01562500  14 t-inv F
  0.000000 -0.500000 -0.500000    0.01562500  15 t-inv F
  0.250000 -0.250000 -0.500000    0.01562500  16 t-inv F
 -0.250000 -0.250000  0.500000    0.01562500  16 t-inv F
 -0.250000  0.250000 -0.500000    0.01562500  16 t-inv F
  0.250000 -0.500000 -0.500000    0.01562500  17 t-inv F
 -0.500000 -0.250000  0.500000    0.01562500  17 t-inv F
 -0.250000  0.500000 -0.500000    0.01562500  17 t-inv F
 -0.250000 -0.250000 -0.250000    0.01562500  10 t-inv T
 -0.250000  0.250000  0.250000    0.01562500  10 t-inv T
  0.250000  0.250000 -0.250000    0.01562500  10 t-inv T
  0.250000 -0.250000  0.250000    0.01562500  10 t-inv T


--------------------------------------------------------------------------------------------------------




 Dimension of arrays:
   k-points           NKPTS =     18   k-points in BZ     NKDIM =     18   number of bands    NBANDS=    512
   number of dos      NEDOS =    301   number of ions     NIONS =     64
   non local maximal  LDIM  =      6   non local SUM 2l+1 LMDIM =     18
   total plane-waves  NPLWV = 829440
   max r-space proj   IRMAX =      1   max aug-charges    IRDMAX=  22894
   dimension x,y,z NGX =    96 NGY =   96 NGZ =   90
   dimension x,y,z NGXF=   192 NGYF=  192 NGZF=  180
   support grid    NGXF=   192 NGYF=  192 NGZF=  180
   ions per type =              32  16  16
   NGX,Y,Z   is equivalent  to a cutoff of  15.18, 15.18, 14.37 a.u.
   NGXF,Y,Z  is equivalent  to a cutoff of  30.35, 30.35, 28.74 a.u.

 SYSTEM =  CuFeS2                                  
 POSCAR =  generated by phonopy                    

 Startparameter for this run:
   NWRITE =      2    write-flag & timer
   PREC   = accura    normal or accurate (medium, high low for compatibility)
   ISTART =      0    job   : 0-new  1-cont  2-samecut
   ICHARG =      1    charge: 1-file 2-atom 10-const
   ISPIN  =      2    spin polarized calculation?
   LNONCOLLINEAR =      F non collinear calculations
   LSORBIT =      F    spin-orbit coupling
   INIWAV =      1    electr: 0-lowe 1-rand  2-diag
   LASPH  =      F    aspherical Exc in radial PAW
   METAGGA=      F    non-selfconsistent MetaGGA calc.

 Electronic Relaxation 1
   ENCUT  =  700.0 eV  51.45 Ry    7.17 a.u.  22.69 22.69 22.46*2*pi/ulx,y,z
   ENINI  =  700.0     initial cutoff
   ENAUG  =  758.2 eV  augmentation charge cutoff
   NELM   =    500;   NELMIN=  2; NELMDL=  0     # of ELM steps 
   EDIFF  = 0.1E-07   stopping-criterion for ELM
   LREAL  =      F    real-space projection
   NLSPLINE    = F    spline interpolate recip. space projectors
   LCOMPAT=      F    compatible to vasp.4.4
   GGA_COMPAT  = T    GGA compatible to vasp.4.4-vasp.4.6
   LMAXPAW     = -100 max onsite density
   LMAXMIX     =    4 max onsite mixed and CHGCAR
   VOSKOWN=      0    Vosko Wilk Nusair interpolation
   ROPT   =    0.00000   0.00000   0.00000
 Ionic relaxation
   EDIFFG = -.1E-04   stopping-criterion for IOM
   NSW    =      0    number of steps for IOM
   NBLOCK =      1;   KBLOCK =      1    inner block; outer block 
   IBRION =     -1    ionic relax: 0-MD 1-quasi-New 2-CG
   NFREE  =      0    steps in history (QN), initial steepest desc. (CG)
   ISIF   =      2    stress and relaxation
   IWAVPR =     10    prediction:  0-non 1-charg 2-wave 3-comb
   ISYM   =      2    0-nonsym 1-usesym 2-fastsym
   LCORR  =      T    Harris-Foulkes like correction to forces

   POTIM  = 0.5000    time-step for ionic-motion
   TEIN   =    0.0    initial temperature
   TEBEG  =    0.0;   TEEND  =   0.0 temperature during run
   SMASS  =  -3.00    Nose mass-parameter (am)
   estimated Nose-frequenzy (Omega)   =  0.10E-29 period in steps =****** mass=  -0.253E-26a.u.
   SCALEE = 1.0000    scale energy and forces
   NPACO  =    256;   APACO  = 16.0  distance and # of slots for P.C.
   PSTRESS=    0.0 pullay stress

  Mass of Ions in am
   POMASS =  32.07 63.55 55.85
  Ionic Valenz
   ZVAL   =   6.00 17.00 14.00
  Atomic Wigner-Seitz radii
   RWIGS  =  -1.00 -1.00 -1.00
  virtual crystal weights 
   VCA    =   1.00  1.00  1.00
   NELECT =     688.0000    total number of electrons
   NUPDOWN=      -1.0000    fix difference up-down

 DOS related values:
   EMIN   =  10.00;   EMAX   =-10.00  energy-range for DOS
   EFERMI =   0.00
   ISMEAR =    -5;   SIGMA  =   0.03  broadening in eV -4-tet -1-fermi 0-gaus

 Electronic relaxation 2 (details)
   IALGO  =     38    algorithm
   LDIAG  =      T    sub-space diagonalisation (order eigenvalues)
   LSUBROT=      F    optimize rotation matrix (better conditioning)
   TURBO    =      0    0=normal 1=particle mesh
   IRESTART =      0    0=no restart 2=restart with 2 vectors
   NREBOOT  =      0    no. of reboots
   NMIN     =      0    reboot dimension
   EREF     =   0.00    reference energy to select bands
   IMIX   =      4    mixing-type and parameters
     AMIX     =   0.40;   BMIX     =  1.00
     AMIX_MAG =   1.60;   BMIX_MAG =  1.00
     AMIN     =   0.10
     WC   =   100.;   INIMIX=   1;  MIXPRE=   1;  MAXMIX= -45

 Intra band minimization:
   WEIMIN = 0.0000     energy-eigenvalue tresh-hold
   EBREAK =  0.49E-11  absolut break condition
   DEPER  =   0.30     relativ break condition  

   TIME   =   0.40     timestep for ELM

  volume/ion in A,a.u.               =      17.99       121.40
  Fermi-wavevector in a.u.,A,eV,Ry     =   1.378915  2.605772 25.870211  1.901407
  Thomas-Fermi vector in A             =   2.503933
 
 Write flags
   LWAVE        =      T    write WAVECAR
   LDOWNSAMPLE  =      F    k-point downsampling of WAVECAR
   LCHARG       =      T    write CHGCAR
   LVTOT        =      F    write LOCPOT, total local potential
   LVHAR        =      F    write LOCPOT, Hartree potential only
   LELF         =      F    write electronic localiz. function (ELF)
   LORBIT       =     11    0 simple, 1 ext, 2 COOP (PROOUT), +10 PAW based schemes


 Dipole corrections
   LMONO  =      F    monopole corrections only (constant potential shift)
   LDIPOL =      F    correct potential (dipole corrections)
   IDIPOL =      0    1-x, 2-y, 3-z, 4-all directions 
   EPSILON=  1.0000000 bulk dielectric constant

 LDA+U is selected, type is set to LDAUTYPE =  2
   angular momentum for each species LDAUL =     2    2    2
   U (eV)           for each species LDAUU =   0.0  0.1  4.7
   J (eV)           for each species LDAUJ =   0.0  0.0  0.0
 Exchange correlation treatment:
   GGA     =    PS    GGA type
   LEXCH   =    14    internal setting for exchange type
   VOSKOWN=      0    Vosko Wilk Nusair interpolation
   LHFCALC =     F    Hartree Fock is set to
   LHFONE  =     F    Hartree Fock one center treatment
   AEXX    =    0.0000 exact exchange contribution

 Linear response parameters
   LEPSILON=     T    determine dielectric tensor
   LRPA    =     F    only Hartree local field effects (RPA)
   LNABLA  =     F    use nabla operator in PAW spheres
   LVEL    =     F    velocity operator in full k-point grid
   LINTERFAST=   F  fast interpolation
   KINTER  =     0    interpolate to denser k-point grid
   CSHIFT  =0.1000    complex shift for real part using Kramers Kronig
   OMEGAMAX=  -1.0    maximum frequency
   DEG_THRESHOLD= 0.2000000E-02 threshold for treating states as degnerate
   RTIME   =   -0.100 relaxation time in fs
  (WPLASMAI=    0.000 imaginary part of plasma frequency in eV, 0.658/RTIME)
   DFIELD  = 0.0000000 0.0000000 0.0000000 field for delta impulse in time
 
 Orbital magnetization related:
   ORBITALMAG=     F  switch on orbital magnetization
   LCHIMAG   =     F  perturbation theory with respect to B field
   DQ        =  0.001000  dq finite difference perturbation B field
   LLRAUG    =     F  two centre corrections for induced B field

 PEAD related settings:
   LPEAD      =     T    switch on PEAD
   IPEAD      =     4    finite difference order for dpsi/dk
   LCALCPOL   =     T    calculate macroscopic polarization
   LCALCEPS   =     F    calculate dielectric tensor
   EFIELD_PEAD=    0.0000    0.0000    0.0000
   SKIP_EDOTP =     F
   LRPA       =     F
   SKIP_SCF   =     F


--------------------------------------------------------------------------------------------------------


 Static calculation
 charge density and potential will be updated during run
 spin polarized calculation
 Variant of blocked Davidson
 Davidson routine will perform the subspace rotation
 perform sub-space diagonalisation
    after iterative eigenvector-optimisation
 modified Broyden-mixing scheme, WC =      100.0
 initial mixing is a Kerker type mixing with AMIX =  0.4000 and BMIX =      1.0000
 Hartree-type preconditioning will be used
 using additional bands          168
 reciprocal scheme for non local part
 use partial core corrections
 calculate Harris-corrections to forces 
   (improved forces if not selfconsistent)
 use gradient corrections 
 use of overlap-Matrix (Vanderbilt PP)
 Fermi weights with tetrahedron method with Bloechl corrections


--------------------------------------------------------------------------------------------------------


  energy-cutoff  :      700.00
  volume of cell :     1151.33
      direct lattice vectors                 reciprocal lattice vectors
    10.515952273  0.000000000  0.000000000     0.095093623  0.000000000  0.000000000
     0.000000000 10.515952273  0.000000000     0.000000000  0.095093623  0.000000000
     0.000000000  0.000000000 10.411256198     0.000000000  0.000000000  0.096049889

  length of vectors
    10.515952273 10.515952273 10.411256198     0.095093623  0.095093623  0.096049889


 
 k-points in units of 2pi/SCALE and weight: Automatic mesh                          
   0.00000000  0.00000000  0.00000000       0.016
   0.02377341  0.00000000  0.00000000       0.062
   0.04754681  0.00000000  0.00000000       0.031
   0.02377341  0.02377341  0.00000000       0.062
   0.04754681  0.02377341  0.00000000       0.062
   0.04754681  0.04754681  0.00000000       0.016
   0.00000000  0.00000000  0.02401247       0.031
   0.02377341  0.00000000  0.02401247       0.125
   0.04754681  0.00000000  0.02401247       0.062
   0.02377341  0.02377341  0.02401247       0.125
   0.04754681  0.02377341  0.02401247       0.125
   0.04754681  0.04754681  0.02401247       0.031
   0.00000000  0.00000000  0.04802494       0.016
   0.02377341  0.00000000  0.04802494       0.062
   0.04754681  0.00000000  0.04802494       0.031
   0.02377341  0.02377341  0.04802494       0.062
   0.04754681  0.02377341  0.04802494       0.062
   0.04754681  0.04754681  0.04802494       0.016
 
 k-points in reciprocal lattice and weights: Automatic mesh                          
   0.00000000  0.00000000  0.00000000       0.016
   0.25000000  0.00000000  0.00000000       0.062
   0.50000000  0.00000000  0.00000000       0.031
   0.25000000  0.25000000  0.00000000       0.062
   0.50000000  0.25000000  0.00000000       0.062
   0.50000000  0.50000000  0.00000000       0.016
   0.00000000  0.00000000  0.25000000       0.031
   0.25000000  0.00000000  0.25000000       0.125
   0.50000000  0.00000000  0.25000000       0.062
   0.25000000  0.25000000  0.25000000       0.125
   0.50000000  0.25000000  0.25000000       0.125
   0.50000000  0.50000000  0.25000000       0.031
   0.00000000  0.00000000  0.50000000       0.016
   0.25000000  0.00000000  0.50000000       0.062
   0.50000000  0.00000000  0.50000000       0.031
   0.25000000  0.25000000  0.50000000       0.062
   0.50000000  0.25000000  0.50000000       0.062
   0.50000000  0.50000000  0.50000000       0.016
 
 position of ions in fractional coordinates (direct lattice) 
   0.12616568  0.12500000  0.12500000
   0.62616568  0.12500000  0.12500000
   0.12616568  0.62500000  0.12500000
   0.62616568  0.62500000  0.12500000
   0.37383433  0.37500000  0.12500000
   0.87383433  0.37500000  0.12500000
   0.37383433  0.87500000  0.12500000
   0.87383433  0.87500000  0.12500000
   0.12500000  0.37383433  0.87500000
   0.62500000  0.37383433  0.87500000
   0.12500000  0.87383433  0.87500000
   0.62500000  0.87383433  0.87500000
   0.37500000  0.12616568  0.87500000
   0.87500000  0.12616568  0.87500000
   0.37500000  0.62616568  0.87500000
   0.87500000  0.62616568  0.87500000
   0.12383432  0.12500000  0.62500000
   0.62383432  0.12500000  0.62500000
   0.12383432  0.62500000  0.62500000
   0.62383432  0.62500000  0.62500000
   0.37616567  0.37500000  0.62500000
   0.87616567  0.37500000  0.62500000
   0.37616567  0.87500000  0.62500000
   0.87616567  0.87500000  0.62500000
   0.37500000  0.12383432  0.37500000
   0.87500000  0.12383432  0.37500000
   0.37500000  0.62383432  0.37500000
   0.87500000  0.62383432  0.37500000
   0.12500000  0.37616567  0.37500000
   0.62500000  0.37616567  0.37500000
   0.12500000  0.87616567  0.37500000
   0.62500000  0.87616567  0.37500000
   0.00000000  0.00000000  0.50000000
   0.50000000  0.00000000  0.50000000
   0.00000000  0.50000000  0.50000000
   0.50000000  0.50000000  0.50000000
   0.25000000  0.00000000  0.25000000
   0.75000000  0.00000000  0.25000000
   0.25000000  0.50000000  0.25000000
   0.75000000  0.50000000  0.25000000
   0.25000000  0.25000000  0.00000000
   0.75000000  0.25000000  0.00000000
   0.25000000  0.75000000  0.00000000
   0.75000000  0.75000000  0.00000000
   0.00000000  0.25000000  0.75000000
   0.50000000  0.25000000  0.75000000
   0.00000000  0.75000000  0.75000000
   0.50000000  0.75000000  0.75000000
   0.00000000  0.00000000  0.00000000
   0.50000000  0.00000000  0.00000000
   0.00000000  0.50000000  0.00000000
   0.50000000  0.50000000  0.00000000
   0.25000000  0.00000000  0.75000000
   0.75000000  0.00000000  0.75000000
   0.25000000  0.50000000  0.75000000
   0.75000000  0.50000000  0.75000000
   0.25000000  0.25000000  0.50000000
   0.75000000  0.25000000  0.50000000
   0.25000000  0.75000000  0.50000000
   0.75000000  0.75000000  0.50000000
   0.00000000  0.25000000  0.25000000
   0.50000000  0.25000000  0.25000000
   0.00000000  0.75000000  0.25000000
   0.50000000  0.75000000  0.25000000
 
 position of ions in cartesian coordinates  (Angst):
   1.32675228  1.31449403  1.30140702
   6.58472841  1.31449403  1.30140702
   1.32675228  6.57247017  1.30140702
   6.58472841  6.57247017  1.30140702
   3.93122402  3.94348210  1.30140702
   9.18920016  3.94348210  1.30140702
   3.93122402  9.20145824  1.30140702
   9.18920016  9.20145824  1.30140702
   1.31449403  3.93122402  9.10984917
   6.57247017  3.93122402  9.10984917
   1.31449403  9.18920016  9.10984917
   6.57247017  9.18920016  9.10984917
   3.94348210  1.32675228  9.10984917
   9.20145824  1.32675228  9.10984917
   3.94348210  6.58472841  9.10984917
   9.20145824  6.58472841  9.10984917
   1.30223579  1.31449403  6.50703512
   6.56021193  1.31449403  6.50703512
   1.30223579  6.57247017  6.50703512
   6.56021193  6.57247017  6.50703512
   3.95574019  3.94348210  6.50703512
   9.21371632  3.94348210  6.50703512
   3.95574019  9.20145824  6.50703512
   9.21371632  9.20145824  6.50703512
   3.94348210  1.30223579  3.90422107
   9.20145824  1.30223579  3.90422107
   3.94348210  6.56021193  3.90422107
   9.20145824  6.56021193  3.90422107
   1.31449403  3.95574019  3.90422107
   6.57247017  3.95574019  3.90422107
   1.31449403  9.21371632  3.90422107
   6.57247017  9.21371632  3.90422107
   0.00000000  0.00000000  5.20562810
   5.25797614  0.00000000  5.20562810
   0.00000000  5.25797614  5.20562810
   5.25797614  5.25797614  5.20562810
   2.62898807  0.00000000  2.60281405
   7.88696420  0.00000000  2.60281405
   2.62898807  5.25797614  2.60281405
   7.88696420  5.25797614  2.60281405
   2.62898807  2.62898807  0.00000000
   7.88696420  2.62898807  0.00000000
   2.62898807  7.88696420  0.00000000
   7.88696420  7.88696420  0.00000000
   0.00000000  2.62898807  7.80844215
   5.25797614  2.62898807  7.80844215
   0.00000000  7.88696420  7.80844215
   5.25797614  7.88696420  7.80844215
   0.00000000  0.00000000  0.00000000
   5.25797614  0.00000000  0.00000000
   0.00000000  5.25797614  0.00000000
   5.25797614  5.25797614  0.00000000
   2.62898807  0.00000000  7.80844215
   7.88696420  0.00000000  7.80844215
   2.62898807  5.25797614  7.80844215
   7.88696420  5.25797614  7.80844215
   2.62898807  2.62898807  5.20562810
   7.88696420  2.62898807  5.20562810
   2.62898807  7.88696420  5.20562810
   7.88696420  7.88696420  5.20562810
   0.00000000  2.62898807  2.60281405
   5.25797614  2.62898807  2.60281405
   0.00000000  7.88696420  2.60281405
   5.25797614  7.88696420  2.60281405
 


--------------------------------------------------------------------------------------------------------


 k-point  1 :   0.0000 0.0000 0.0000  plane waves:   48421
 k-point  2 :   0.2500 0.0000 0.0000  plane waves:   48443
 k-point  3 :   0.5000 0.0000 0.0000  plane waves:   48446
 k-point  4 :   0.2500 0.2500 0.0000  plane waves:   48406
 k-point  5 :   0.5000 0.2500 0.0000  plane waves:   48436
 k-point  6 :   0.5000 0.5000 0.0000  plane waves:   48424
 k-point  7 :   0.0000 0.0000 0.2500  plane waves:   48461
 k-point  8 :   0.2500 0.0000 0.2500  plane waves:   48433
 k-point  9 :   0.5000 0.0000 0.2500  plane waves:   48458
 k-point 10 :   0.2500 0.2500 0.2500  plane waves:   48402
 k-point 11 :   0.5000 0.2500 0.2500  plane waves:   48420
 k-point 12 :   0.5000 0.5000 0.2500  plane waves:   48416
 k-point 13 :   0.0000 0.0000 0.5000  plane waves:   48468
 k-point 14 :   0.2500 0.0000 0.5000  plane waves:   48412
 k-point 15 :   0.5000 0.0000 0.5000  plane waves:   48416
 k-point 16 :   0.2500 0.2500 0.5000  plane waves:   48394
 k-point 17 :   0.5000 0.2500 0.5000  plane waves:   48352
 k-point 18 :   0.5000 0.5000 0.5000  plane waves:   48400

 maximum and minimum number of plane-waves per node :     48468    48352

 maximum number of plane-waves:     48468
 maximum index in each direction: 
   IXMAX=   22   IYMAX=   22   IZMAX=   22
   IXMIN=  -23   IYMIN=  -23   IZMIN=  -22


 serial   3D FFT for wavefunctions
 parallel 3D FFT for charge:
    minimum data exchange during FFTs selected (reduces bandwidth)


 total amount of memory used by VASP MPI-rank0   584779. kBytes
=======================================================================

   base      :      30000. kBytes
   nonl-proj :     428032. kBytes
   fftplans  :       8932. kBytes
   grid      :      58613. kBytes
   one-center:       1990. kBytes
   wavefun   :      57212. kBytes
 
     INWAV:  cpu time    0.0001: real time    0.0002
 Broyden mixing: mesh for mixing (old mesh)
   NGX = 45   NGY = 45   NGZ = 45
  (NGX  =192   NGY  =192   NGZ  =180)
  gives a total of  91125 points

 initial charge density was supplied:
 charge density of overlapping atoms calculated
 number of electron     688.0000000 magnetization       0.0000000
 keeping initial charge density in first step


--------------------------------------------------------------------------------------------------------


 Maximum index for augmentation-charges          899 (set IRDMAX)


--------------------------------------------------------------------------------------------------------


 First call to EWALD:  gamma=   0.169
 Maximum number of real-space cells 3x 3x 3
 Maximum number of reciprocal cells 3x 3x 3

    FEWALD:  cpu time    0.0029: real time    0.0034


--------------------------------------- Iteration      1(   1)  ---------------------------------------


    POTLOK:  cpu time    0.3628: real time    0.4086
    SETDIJ:  cpu time    0.0175: real time    0.0178
     EDDAV:  cpu time  187.8827: real time  189.9365
 BZINTS: Fermi energy: 16.801013;688.000000 electrons
         Band energy:***********;  BLOECHL correction: -0.008521
       DOS:  cpu time    0.1419: real time    0.1426
    --------------------------------------------
      LOOP:  cpu time  188.4049: real time  190.5054

 eigenvalue-minimisations  : 36864
 total energy-change (2. order) : 0.6202317E+04  (-0.5039442E+05)
 number of electron     688.0000000 magnetization       0.0000000
 augmentation part      688.0000000 magnetization       0.0000000

 Free energy of the ion-electron system (eV)
  ---------------------------------------------------
  alpha Z        PSCENC =      2354.79598897
  Ewald energy   TEWEN  =    -62455.03403952
  -Hartree energ DENC   =    -44329.76546570
  -exchange      EXHF   =         0.00000000
  -V(xc)+E(xc)   XCENC  =      3320.11620082
  PAW double counting   =     94592.23312189   -98164.79192727
  entropy T*S    EENTRO =         0.00000000
  eigenvalues    EBANDS =     -3135.30238005
  atomic energy  EATOM  =    114020.06510763
  Solvation  Ediel_sol  =         0.00000000
  ---------------------------------------------------
  free energy    TOTEN  =      6202.31660676 eV

  energy without entropy =     6202.31660676  energy(sigma->0) =     6202.31660676


--------------------------------------------------------------------------------------------------------




--------------------------------------- Iteration      1(   2)  ---------------------------------------


     EDDAV:  cpu time  201.1199: real time  202.6756
 BZINTS: Fermi energy:  6.567023;688.000000 electrons
         Band energy:***********;  BLOECHL correction:  0.000000
       DOS:  cpu time    0.0226: real time    0.0227
    --------------------------------------------
      LOOP:  cpu time  201.1425: real time  202.6983

 eigenvalue-minimisations  : 38144
 total energy-change (2. order) :-0.6287239E+04  (-0.6156408E+04)
 number of electron     688.0000000 magnetization       0.0000000
 augmentation part      688.0000000 magnetization       0.0000000

 Free energy of the ion-electron system (eV)
  ---------------------------------------------------
  alpha Z        PSCENC =      2354.79598897
  Ewald energy   TEWEN  =    -62455.03403952
  -Hartree energ DENC   =    -44329.76546570
  -exchange      EXHF   =         0.00000000
  -V(xc)+E(xc)   XCENC  =      3320.11620082
  PAW double counting   =     94592.23312189   -98164.79192727
  entropy T*S    EENTRO =         0.00000000
  eigenvalues    EBANDS =     -9422.54117590
  atomic energy  EATOM  =    114020.06510763
  Solvation  Ediel_sol  =         0.00000000
  ---------------------------------------------------
  free energy    TOTEN  =       -84.92218909 eV

  energy without entropy =      -84.92218909  energy(sigma->0) =      -84.92218909


--------------------------------------------------------------------------------------------------------




--------------------------------------- Iteration      1(   3)  ---------------------------------------


     EDDAV:  cpu time  384.4476: real time  387.0608
 BZINTS: Fermi energy:  6.179239;688.000000 electrons
         Band energy:***********;  BLOECHL correction:  0.000000
       DOS:  cpu time    0.0220: real time    0.0222
    --------------------------------------------
      LOOP:  cpu time  384.4696: real time  387.0830

 eigenvalue-minimisations  : 54016
 total energy-change (2. order) :-0.2874545E+03  (-0.2860660E+03)
 number of electron     688.0000000 magnetization       0.0000000
 augmentation part      688.0000000 magnetization       0.0000000

 Free energy of the ion-electron system (eV)
  ---------------------------------------------------
  alpha Z        PSCENC =      2354.79598897
  Ewald energy   TEWEN  =    -62455.03403952
  -Hartree energ DENC   =    -44329.76546570
  -exchange      EXHF   =         0.00000000
  -V(xc)+E(xc)   XCENC  =      3320.11620082
  PAW double counting   =     94592.23312189   -98164.79192727
  entropy T*S    EENTRO =         0.00000000
  eigenvalues    EBANDS =     -9709.99569602
  atomic energy  EATOM  =    114020.06510763
  Solvation  Ediel_sol  =         0.00000000
  ---------------------------------------------------
  free energy    TOTEN  =      -372.37670921 eV

  energy without entropy =     -372.37670921  energy(sigma->0) =     -372.37670921


--------------------------------------------------------------------------------------------------------




--------------------------------------- Iteration      1(   4)  ---------------------------------------


     EDDAV:  cpu time  211.9143: real time  213.5348
 BZINTS: Fermi energy:  6.047871;688.000000 electrons
         Band energy:***********;  BLOECHL correction:  0.000000
       DOS:  cpu time    0.0220: real time    0.0221
    --------------------------------------------
      LOOP:  cpu time  211.9362: real time  213.5568

 eigenvalue-minimisations  : 38912
 total energy-change (2. order) :-0.3965413E+01  (-0.3965197E+01)
 number of electron     688.0000000 magnetization       0.0000000
 augmentation part      688.0000000 magnetization       0.0000000

 Free energy of the ion-electron system (eV)
  ---------------------------------------------------
  alpha Z        PSCENC =      2354.79598897
  Ewald energy   TEWEN  =    -62455.03403952
  -Hartree energ DENC   =    -44329.76546570
  -exchange      EXHF   =         0.00000000
  -V(xc)+E(xc)   XCENC  =      3320.11620082
  PAW double counting   =     94592.23312189   -98164.79192727
  entropy T*S    EENTRO =         0.00000000
  eigenvalues    EBANDS =     -9713.96110943
  atomic energy  EATOM  =    114020.06510763
  Solvation  Ediel_sol  =         0.00000000
  ---------------------------------------------------
  free energy    TOTEN  =      -376.34212263 eV

  energy without entropy =     -376.34212263  energy(sigma->0) =     -376.34212263


--------------------------------------------------------------------------------------------------------




--------------------------------------- Iteration      1(   5)  ---------------------------------------


     EDDAV:  cpu time  380.9182: real time  383.5000
 BZINTS: Fermi energy:  6.082828;688.000000 electrons
         Band energy:***********;  BLOECHL correction:  0.000000
       DOS:  cpu time    0.0188: real time    0.0188
    CHARGE:  cpu time    3.0137: real time    3.0359
    MIXING:  cpu time    0.0078: real time    0.0079
    --------------------------------------------
      LOOP:  cpu time  383.9585: real time  386.5627

 eigenvalue-minimisations  : 52992
 total energy-change (2. order) :-0.1038991E+00  (-0.1038983E+00)
 number of electron     688.0000419 magnetization       0.0000000
 augmentation part      261.0343807 magnetization       0.0000000

 Broyden mixing:
  rms(total) = 0.74963E+01    rms(broyden)= 0.74962E+01
  rms(prec ) = 0.89733E+01
  weight for this iteration     100.00

 Free energy of the ion-electron system (eV)
  ---------------------------------------------------
  alpha Z        PSCENC =      2354.79598897
  Ewald energy   TEWEN  =    -62455.03403952
  -Hartree energ DENC   =    -44329.76546570
  -exchange      EXHF   =         0.00000000
  -V(xc)+E(xc)   XCENC  =      3320.11620082
  PAW double counting   =     94592.23312189   -98164.79192727
  entropy T*S    EENTRO =         0.00000000
  eigenvalues    EBANDS =     -9714.06500852
  atomic energy  EATOM  =    114020.06510763
  Solvation  Ediel_sol  =         0.00000000
  ---------------------------------------------------
  free energy    TOTEN  =      -376.44602171 eV

  energy without entropy =     -376.44602171  energy(sigma->0) =     -376.44602171


--------------------------------------------------------------------------------------------------------




--------------------------------------- Iteration      1(   6)  ---------------------------------------


    POTLOK:  cpu time    0.2119: real time    0.2154
    SETDIJ:  cpu time    0.0154: real time    0.0154
     EDDAV:  cpu time  191.7017: real time  193.1937
 BZINTS: Fermi energy:  4.287396;688.000000 electrons
         Band energy:***********;  BLOECHL correction: -0.000000
       DOS:  cpu time    0.0544: real time    0.0547
    CHARGE:  cpu time    3.0072: real time    3.0262
    MIXING:  cpu time    0.0035: real time    0.0985
    --------------------------------------------
      LOOP:  cpu time  194.9942: real time  196.6040

 eigenvalue-minimisations  : 36864
 total energy-change (2. order) : 0.4157601E+02  (-0.5900624E+02)
 number of electron     688.0000453 magnetization      -0.0000000
 augmentation part      296.1527581 magnetization      -0.0000000

 Broyden mixing:
  rms(total) = 0.99891E+01    rms(broyden)= 0.99891E+01
  rms(prec ) = 0.10428E+02
  weight for this iteration     100.00

 eigenvalues of (default mixing * dielectric matrix)
  average eigenvalue GAMMA=   0.1669
  0.1669

 Free energy of the ion-electron system (eV)
  ---------------------------------------------------
  alpha Z        PSCENC =      2354.79598897
  Ewald energy   TEWEN  =    -62455.03403952
  -Hartree energ DENC   =    -42374.32427260
  -exchange      EXHF   =         0.00000000
  -V(xc)+E(xc)   XCENC  =      3267.55171406
  PAW double counting   =     96416.31884842   -99775.66207787
  entropy T*S    EENTRO =         0.00000000
  eigenvalues    EBANDS =    -11788.58127586
  atomic energy  EATOM  =    114020.06510763
  Solvation  Ediel_sol  =         0.00000000
  ---------------------------------------------------
  free energy    TOTEN  =      -334.87000678 eV

  energy without entropy =     -334.87000678  energy(sigma->0) =     -334.87000678


--------------------------------------------------------------------------------------------------------




--------------------------------------- Iteration      1(   7)  ---------------------------------------


    POTLOK:  cpu time    0.2143: real time    0.2158
    SETDIJ:  cpu time    0.0154: real time    0.0155
     EDDAV:  cpu time  190.2885: real time  191.7738
 BZINTS: Fermi energy:  4.546684;688.000000 electrons
         Band energy:***********;  BLOECHL correction:  0.000000
       DOS:  cpu time    0.0220: real time    0.0221
    CHARGE:  cpu time    3.0146: real time    3.0336
    MIXING:  cpu time    0.0029: real time    0.0395
    --------------------------------------------
      LOOP:  cpu time  193.5577: real time  195.1003

 eigenvalue-minimisations  : 36864
 total energy-change (2. order) : 0.4970401E+01  (-0.1083247E+02)
 number of electron     688.0000440 magnetization      -0.0000000
 augmentation part      286.1200460 magnetization      -0.0000000

 Broyden mixing:
  rms(total) = 0.43624E+01    rms(broyden)= 0.43624E+01
  rms(prec ) = 0.44362E+01
  weight for this iteration     100.00

 eigenvalues of (default mixing * dielectric matrix)
  average eigenvalue GAMMA=   0.6168
  0.7612  0.4725

 Free energy of the ion-electron system (eV)
  ---------------------------------------------------
  alpha Z        PSCENC =      2354.79598897
  Ewald energy   TEWEN  =    -62455.03403952
  -Hartree energ DENC   =    -42854.38031812
  -exchange      EXHF   =         0.00000000
  -V(xc)+E(xc)   XCENC  =      3278.96702055
  PAW double counting   =     99826.39660611  -103342.27595711
  entropy T*S    EENTRO =         0.00000000
  eigenvalues    EBANDS =    -11158.43401391
  atomic energy  EATOM  =    114020.06510763
  Solvation  Ediel_sol  =         0.00000000
  ---------------------------------------------------
  free energy    TOTEN  =      -329.89960541 eV

  energy without entropy =     -329.89960541  energy(sigma->0) =     -329.89960541


--------------------------------------------------------------------------------------------------------




--------------------------------------- Iteration      1(   8)  ---------------------------------------


    POTLOK:  cpu time    0.2140: real time    0.2156
    SETDIJ:  cpu time    0.0157: real time    0.0158
     EDDAV:  cpu time  306.4052: real time  308.5704
 BZINTS: Fermi energy:  5.137609;688.000000 electrons
         Band energy:***********;  BLOECHL correction:  0.000000
       DOS:  cpu time    0.0187: real time    0.0188
    CHARGE:  cpu time    3.0063: real time    3.0255
    MIXING:  cpu time    0.0026: real time    0.0026
    --------------------------------------------
      LOOP:  cpu time  309.6625: real time  311.8485

 eigenvalue-minimisations  : 46848
 total energy-change (2. order) : 0.2555646E+00  (-0.3330911E+01)
 number of electron     688.0000437 magnetization      -0.0000000
 augmentation part      281.4636791 magnetization      -0.0000000

 Broyden mixing:
  rms(total) = 0.31364E+01    rms(broyden)= 0.31364E+01
  rms(prec ) = 0.33709E+01
  weight for this iteration     100.00

 eigenvalues of (default mixing * dielectric matrix)
  average eigenvalue GAMMA=   0.8933
  1.6015  0.6200  0.4583

 Free energy of the ion-electron system (eV)
  ---------------------------------------------------
  alpha Z        PSCENC =      2354.79598897
  Ewald energy   TEWEN  =    -62455.03403952
  -Hartree energ DENC   =    -43111.92296075
  -exchange      EXHF   =         0.00000000
  -V(xc)+E(xc)   XCENC  =      3291.03966966
  PAW double counting   =    105323.08454937  -108938.82408539
  entropy T*S    EENTRO =         0.00000000
  eigenvalues    EBANDS =    -10812.84827076
  atomic energy  EATOM  =    114020.06510763
  Solvation  Ediel_sol  =         0.00000000
  ---------------------------------------------------
  free energy    TOTEN  =      -329.64404079 eV

  energy without entropy =     -329.64404079  energy(sigma->0) =     -329.64404079


--------------------------------------------------------------------------------------------------------




--------------------------------------- Iteration      1(   9)  ---------------------------------------


    POTLOK:  cpu time    0.2129: real time    0.2162
    SETDIJ:  cpu time    0.0152: real time    0.0153
     EDDAV:  cpu time  267.2292: real time  269.1763
 BZINTS: Fermi energy:  4.540703;688.000000 electrons
         Band energy:***********;  BLOECHL correction:  0.000000
       DOS:  cpu time    0.0222: real time    0.0223
    CHARGE:  cpu time    3.0093: real time    3.0280
    MIXING:  cpu time    0.0032: real time    0.0453
    --------------------------------------------
      LOOP:  cpu time  270.4920: real time  272.5035

 eigenvalue-minimisations  : 44800
 total energy-change (2. order) :-0.1937630E+01  (-0.9270673E+01)
 number of electron     688.0000435 magnetization       0.0000000
 augmentation part      282.1108203 magnetization       0.0000000

 Broyden mixing:
  rms(total) = 0.23131E+01    rms(broyden)= 0.23130E+01
  rms(prec ) = 0.27536E+01
  weight for this iteration     100.00

 eigenvalues of (default mixing * dielectric matrix)
  average eigenvalue GAMMA=   0.9818
  2.3971  0.5957  0.5957  0.3389

 Free energy of the ion-electron system (eV)
  ---------------------------------------------------
  alpha Z        PSCENC =      2354.79598897
  Ewald energy   TEWEN  =    -62455.03403952
  -Hartree energ DENC   =    -42899.49424358
  -exchange      EXHF   =         0.00000000
  -V(xc)+E(xc)   XCENC  =      3284.01311593
  PAW double counting   =    109918.51494945  -113572.40507448
  entropy T*S    EENTRO =         0.00000000
  eigenvalues    EBANDS =    -10982.03747562
  atomic energy  EATOM  =    114020.06510763
  Solvation  Ediel_sol  =         0.00000000
  ---------------------------------------------------
  free energy    TOTEN  =      -331.58167123 eV

  energy without entropy =     -331.58167123  energy(sigma->0) =     -331.58167123


--------------------------------------------------------------------------------------------------------




--------------------------------------- Iteration      1(  10)  ---------------------------------------


    POTLOK:  cpu time    0.2109: real time    0.2157
    SETDIJ:  cpu time    0.0155: real time    0.0156
     EDDAV:  cpu time  309.4032: real time  311.5844
 BZINTS: Fermi energy:  4.990447;688.000000 electrons
         Band energy:***********;  BLOECHL correction:  0.000000
       DOS:  cpu time    0.0219: real time    0.0220
    CHARGE:  cpu time    3.0051: real time    3.0242
    MIXING:  cpu time    0.0028: real time    0.0028
    --------------------------------------------
      LOOP:  cpu time  312.6595: real time  314.8648

 eigenvalue-minimisations  : 48128
 total energy-change (2. order) : 0.3583629E+01  (-0.2164364E+01)
 number of electron     688.0000434 magnetization       0.0000000
 augmentation part      282.3856029 magnetization       0.0000000

 Broyden mixing:
  rms(total) = 0.28551E+00    rms(broyden)= 0.28544E+00
  rms(prec ) = 0.30200E+00
  weight for this iteration     100.00

 eigenvalues of (default mixing * dielectric matrix)
  average eigenvalue GAMMA=   0.9176
  2.3645  0.7579  0.5693  0.5693  0.3271

 Free energy of the ion-electron system (eV)
  ---------------------------------------------------
  alpha Z        PSCENC =      2354.79598897
  Ewald energy   TEWEN  =    -62455.03403952
  -Hartree energ DENC   =    -42932.02552182
  -exchange      EXHF   =         0.00000000
  -V(xc)+E(xc)   XCENC  =      3287.37471200
  PAW double counting   =    113302.28415306  -116999.72216496
  entropy T*S    EENTRO =         0.00000000
  eigenvalues    EBANDS =    -10905.73627764
  atomic energy  EATOM  =    114020.06510763
  Solvation  Ediel_sol  =         0.00000000
  ---------------------------------------------------
  free energy    TOTEN  =      -327.99804228 eV

  energy without entropy =     -327.99804228  energy(sigma->0) =     -327.99804228


--------------------------------------------------------------------------------------------------------




--------------------------------------- Iteration      1(  11)  ---------------------------------------


    POTLOK:  cpu time    0.2141: real time    0.2154
    SETDIJ:  cpu time    0.0156: real time    0.0157
     EDDAV:  cpu time  320.2873: real time  322.5317
 BZINTS: Fermi energy:  5.000857;688.000000 electrons
         Band energy:***********;  BLOECHL correction:  0.000000
       DOS:  cpu time    0.0221: real time    0.0222
    CHARGE:  cpu time    3.0089: real time    3.0278
    MIXING:  cpu time    0.0030: real time    0.0030
    --------------------------------------------
      LOOP:  cpu time  323.5510: real time  325.8158

 eigenvalue-minimisations  : 48640
 total energy-change (2. order) :-0.1271593E+00  (-0.1072223E+00)
 number of electron     688.0000434 magnetization      -0.0000000
 augmentation part      282.3512177 magnetization      -0.0000000

 Broyden mixing:
  rms(total) = 0.35207E+00    rms(broyden)= 0.35205E+00
  rms(prec ) = 0.38795E+00
  weight for this iteration     100.00

 eigenvalues of (default mixing * dielectric matrix)
  average eigenvalue GAMMA=   0.9026
  2.2601  0.7436  0.7436  0.7330  0.5917  0.3437

 Free energy of the ion-electron system (eV)
  ---------------------------------------------------
  alpha Z        PSCENC =      2354.79598897
  Ewald energy   TEWEN  =    -62455.03403952
  -Hartree energ DENC   =    -42948.15017993
  -exchange      EXHF   =         0.00000000
  -V(xc)+E(xc)   XCENC  =      3287.03825668
  PAW double counting   =    113091.04694088  -116788.50571475
  entropy T*S    EENTRO =         0.00000000
  eigenvalues    EBANDS =    -10889.38156155
  atomic energy  EATOM  =    114020.06510763
  Solvation  Ediel_sol  =         0.00000000
  ---------------------------------------------------
  free energy    TOTEN  =      -328.12520160 eV

  energy without entropy =     -328.12520160  energy(sigma->0) =     -328.12520160


--------------------------------------------------------------------------------------------------------




--------------------------------------- Iteration      1(  12)  ---------------------------------------


    POTLOK:  cpu time    0.2148: real time    0.2161
    SETDIJ:  cpu time    0.0154: real time    0.0155
     EDDAV:  cpu time  331.1506: real time  333.4590
 BZINTS: Fermi energy:  4.983239;688.000000 electrons
         Band energy:***********;  BLOECHL correction:  0.000000
       DOS:  cpu time    0.0220: real time    0.0221
    CHARGE:  cpu time    3.0099: real time    3.0292
    MIXING:  cpu time    0.0030: real time    0.0030
    --------------------------------------------
      LOOP:  cpu time  334.4157: real time  336.7449

 eigenvalue-minimisations  : 49408
 total energy-change (2. order) : 0.1259462E-01  (-0.4747802E-01)
 number of electron     688.0000434 magnetization      -0.0000000
 augmentation part      282.2526611 magnetization      -0.0000000

 Broyden mixing:
  rms(total) = 0.13515E+00    rms(broyden)= 0.13515E+00
  rms(prec ) = 0.14916E+00
  weight for this iteration     100.00

 eigenvalues of (default mixing * dielectric matrix)
  average eigenvalue GAMMA=   0.9374
  2.2792  1.0641  1.0641  0.6138  0.6138  0.5832  0.3438

 Free energy of the ion-electron system (eV)
  ---------------------------------------------------
  alpha Z        PSCENC =      2354.79598897
  Ewald energy   TEWEN  =    -62455.03403952
  -Hartree energ DENC   =    -42946.98130201
  -exchange      EXHF   =         0.00000000
  -V(xc)+E(xc)   XCENC  =      3286.56238222
  PAW double counting   =    112701.88198746  -116396.46865000
  entropy T*S    EENTRO =         0.00000000
  eigenvalues    EBANDS =    -10892.93408172
  atomic energy  EATOM  =    114020.06510763
  Solvation  Ediel_sol  =         0.00000000
  ---------------------------------------------------
  free energy    TOTEN  =      -328.11260697 eV

  energy without entropy =     -328.11260697  energy(sigma->0) =     -328.11260697


--------------------------------------------------------------------------------------------------------




--------------------------------------- Iteration      1(  13)  ---------------------------------------


    POTLOK:  cpu time    0.2158: real time    0.2171
    SETDIJ:  cpu time    0.0153: real time    0.0154
     EDDAV:  cpu time  279.8347: real time  281.8375
 BZINTS: Fermi energy:  4.986786;688.000000 electrons
         Band energy:***********;  BLOECHL correction:  0.000000
       DOS:  cpu time    0.0220: real time    0.0221
    CHARGE:  cpu time    3.0071: real time    3.0264
    MIXING:  cpu time    0.0032: real time    0.0032
    --------------------------------------------
      LOOP:  cpu time  283.0982: real time  285.1217

 eigenvalue-minimisations  : 45056
 total energy-change (2. order) :-0.4542938E-02  (-0.5063211E-02)
 number of electron     688.0000433 magnetization       0.0000000
 augmentation part      282.2527601 magnetization       0.0000000

 Broyden mixing:
  rms(total) = 0.94154E-01    rms(broyden)= 0.94152E-01
  rms(prec ) = 0.95633E-01
  weight for this iteration     100.00

 eigenvalues of (default mixing * dielectric matrix)
  average eigenvalue GAMMA=   1.1244
  2.5399  2.5399  0.3439  0.8442  0.8442  0.6470  0.6470  0.5891

 Free energy of the ion-electron system (eV)
  ---------------------------------------------------
  alpha Z        PSCENC =      2354.79598897
  Ewald energy   TEWEN  =    -62455.03403952
  -Hartree energ DENC   =    -42953.65419244
  -exchange      EXHF   =         0.00000000
  -V(xc)+E(xc)   XCENC  =      3286.63262361
  PAW double counting   =    112442.44860660  -116136.92742463
  entropy T*S    EENTRO =         0.00000000
  eigenvalues    EBANDS =    -10886.44382013
  atomic energy  EATOM  =    114020.06510763
  Solvation  Ediel_sol  =         0.00000000
  ---------------------------------------------------
  free energy    TOTEN  =      -328.11714991 eV

  energy without entropy =     -328.11714991  energy(sigma->0) =     -328.11714991


--------------------------------------------------------------------------------------------------------




--------------------------------------- Iteration      1(  14)  ---------------------------------------


    POTLOK:  cpu time    0.2138: real time    0.2152
    SETDIJ:  cpu time    0.0155: real time    0.0156
     EDDAV:  cpu time  377.4646: real time  380.3034
 BZINTS: Fermi energy:  4.989213;688.000000 electrons
         Band energy:***********;  BLOECHL correction:  0.000000
       DOS:  cpu time    0.0231: real time    0.0247
    CHARGE:  cpu time    3.0222: real time    3.0449
    MIXING:  cpu time    0.0099: real time    0.1647
    --------------------------------------------
      LOOP:  cpu time  380.7493: real time  383.7687

 eigenvalue-minimisations  : 52992
 total energy-change (2. order) :-0.9395578E-02  (-0.4698953E-02)
 number of electron     688.0000433 magnetization      -0.0000000
 augmentation part      282.2121604 magnetization      -0.0000000

 Broyden mixing:
  rms(total) = 0.39540E-01    rms(broyden)= 0.39534E-01
  rms(prec ) = 0.44223E-01
  weight for this iteration     100.00

 eigenvalues of (default mixing * dielectric matrix)
  average eigenvalue GAMMA=   1.0505
  2.3531  2.3531  0.9398  0.9398  0.3438  0.6393  0.6393  0.5731  0.6731

 Free energy of the ion-electron system (eV)
  ---------------------------------------------------
  alpha Z        PSCENC =      2354.79598897
  Ewald energy   TEWEN  =    -62455.03403952
  -Hartree energ DENC   =    -42961.85126798
  -exchange      EXHF   =         0.00000000
  -V(xc)+E(xc)   XCENC  =      3286.43741925
  PAW double counting   =    112150.99599294  -115845.10677444
  entropy T*S    EENTRO =         0.00000000
  eigenvalues    EBANDS =    -10878.42897233
  atomic energy  EATOM  =    114020.06510763
  Solvation  Ediel_sol  =         0.00000000
  ---------------------------------------------------
  free energy    TOTEN  =      -328.12654549 eV

  energy without entropy =     -328.12654549  energy(sigma->0) =     -328.12654549


--------------------------------------------------------------------------------------------------------




--------------------------------------- Iteration      1(  15)  ---------------------------------------


    POTLOK:  cpu time    0.2154: real time    0.2178
    SETDIJ:  cpu time    0.0170: real time    0.0172
     EDDAV:  cpu time  229.5319: real time  231.2442
 BZINTS: Fermi energy:  4.987489;688.000000 electrons
         Band energy:***********;  BLOECHL correction:  0.000000
       DOS:  cpu time    0.0220: real time    0.0221
    CHARGE:  cpu time    3.0122: real time    3.0308
    MIXING:  cpu time    0.0041: real time    0.0041
    --------------------------------------------
      LOOP:  cpu time  232.8024: real time  234.5361

 eigenvalue-minimisations  : 40192
 total energy-change (2. order) : 0.4121189E-03  (-0.5653802E-03)
 number of electron     688.0000433 magnetization      -0.0000000
 augmentation part      282.2185337 magnetization      -0.0000000

 Broyden mixing:
  rms(total) = 0.16090E-01    rms(broyden)= 0.16089E-01
  rms(prec ) = 0.16720E-01
  weight for this iteration     100.00

 eigenvalues of (default mixing * dielectric matrix)
  average eigenvalue GAMMA=   0.9729
  2.3105  2.3105  0.9403  0.9403  0.6353  0.6353  0.6832  0.5630  0.3436  0.3674

 Free energy of the ion-electron system (eV)
  ---------------------------------------------------
  alpha Z        PSCENC =      2354.79598897
  Ewald energy   TEWEN  =    -62455.03403952
  -Hartree energ DENC   =    -42959.98706100
  -exchange      EXHF   =         0.00000000
  -V(xc)+E(xc)   XCENC  =      3286.41294470
  PAW double counting   =    112248.41760992  -115942.76717348
  entropy T*S    EENTRO =         0.00000000
  eigenvalues    EBANDS =    -10880.02951059
  atomic energy  EATOM  =    114020.06510763
  Solvation  Ediel_sol  =         0.00000000
  ---------------------------------------------------
  free energy    TOTEN  =      -328.12613337 eV

  energy without entropy =     -328.12613337  energy(sigma->0) =     -328.12613337


--------------------------------------------------------------------------------------------------------




--------------------------------------- Iteration      1(  16)  ---------------------------------------


    POTLOK:  cpu time    0.2105: real time    0.2117
    SETDIJ:  cpu time    0.0151: real time    0.0152
     EDDAV:  cpu time  369.7027: real time  372.2203
 BZINTS: Fermi energy:  4.987388;688.000000 electrons
         Band energy:***********;  BLOECHL correction:  0.000000
       DOS:  cpu time    0.0220: real time    0.0221
    CHARGE:  cpu time    3.0311: real time    3.0502
    MIXING:  cpu time    0.0038: real time    0.0303
    --------------------------------------------
      LOOP:  cpu time  372.9852: real time  375.5497

 eigenvalue-minimisations  : 51712
 total energy-change (2. order) :-0.1031860E-03  (-0.4172279E-04)
 number of electron     688.0000433 magnetization      -0.0000000
 augmentation part      282.2213905 magnetization      -0.0000000

 Broyden mixing:
[...]
 
   8 primitive cells build up your supercell.
 

 Routine SETGRP: Setting up the symmetry group for a 
 simple tetragonal supercell.


 Subroutine GETGRP returns: Found  8 space group operations
 (whereof  4 operations were pure point group operations)
 out of a pool of 16 trial point group operations.


The static configuration has the point symmetry S_4 .
 The point group associated with its full space group is D_2d.


Analysis of symmetry for dynamics (positions and initial velocities):
=====================================================================
 Subroutine PRICEL returns following result:
 
  LATTYP: Found a body centered tetragonal cell.
 ALAT       =     5.2579761365
 C/A-ratio  =     1.9800881418
  
  Lattice vectors:
  
 A1 = (   2.6289880682,  -2.6289880682,   5.2056280989)
 A2 = (  -2.6289880682,   2.6289880682,   5.2056280989)
 A3 = (  -2.6289880682,  -2.6289880682,  -5.2056280989)
 
   8 primitive cells build up your supercell.
 

 Routine SETGRP: Setting up the symmetry group for a 
 simple tetragonal supercell.


 Subroutine GETGRP returns: Found  8 space group operations
 (whereof  4 operations were pure point group operations)
 out of a pool of 16 trial point group operations.


The dynamic configuration has the point symmetry S_4 .
 The point group associated with its full space group is D_2d.


Analysis of structural, dynamic, and magnetic symmetry:
=====================================================================
 Subroutine PRICEL returns following result:
 
  LATTYP: Found a body centered tetragonal cell.
 ALAT       =     5.2579761365
 C/A-ratio  =     1.9800881418
  
  Lattice vectors:
  
 A1 = (   2.6289880682,  -2.6289880682,   5.2056280989)
 A2 = (  -2.6289880682,   2.6289880682,   5.2056280989)
 A3 = (  -2.6289880682,  -2.6289880682,  -5.2056280989)
 
   8 primitive cells build up your supercell.
 

 Routine SETGRP: Setting up the symmetry group for a 
 simple tetragonal supercell.


 Subroutine GETGRP returns: Found  8 space group operations
 (whereof  4 operations were pure point group operations)
 out of a pool of 16 trial point group operations.


The magnetic configuration has the point symmetry S_4 .
 The point group associated with its full space group is D_2d.


 Subroutine INISYM returns: Found  8 space group operations
 (whereof  4 operations are pure point group operations),
 and found     8 'primitive' translations



--------------------------------------------------------------------------------------------------------




 MACROSCOPIC STATIC DIELECTRIC TENSOR (including local field effects in DFT)
 ------------------------------------------------------
          16.081383     0.000000    -0.000000
           0.000000    16.081383     0.000000
           0.000000     0.000000    15.470704
 ------------------------------------------------------


 PIEZOELECTRIC TENSOR (including local field effects)  for field in x, y, z        (e  Angst)
          XX          YY          ZZ          XY          YZ          ZX
  --------------------------------------------------------------------------------
  x    -0.13306     0.16833    -0.04133     0.00000   -55.86794     0.00000
  y     0.16837    -0.13281    -0.04173     0.00000     0.00000   -55.83276
  z     0.00025     0.00025    -0.00159   -57.13916     0.00000     0.00000

 PIEZOELECTRIC TENSOR (including local field effects)  for field in x, y, z        (C/m^2)
          XX          YY          ZZ          XY          YZ          ZX
  --------------------------------------------------------------------------------
  x     0.00000     0.00000     0.00000     0.00000    -0.77745     0.00000
  y     0.00000     0.00000     0.00000     0.00000     0.00000    -0.77696
  z     0.00000     0.00000     0.00000    -0.79514     0.00000     0.00000
 
 BORN EFFECTIVE CHARGES (including local field effects) (in e, cummulative output)
 ---------------------------------------------------------------------------------
 ion    1
    1    -1.64081     0.00000     0.00000
    2    -0.00008    -1.77489    -1.18165
    3     0.00003    -1.14413    -1.66948
 ion    2
    1    -1.64081     0.00000     0.00000
    2    -0.00008    -1.77489    -1.18165
    3     0.00003    -1.14413    -1.66948
 ion    3
    1    -1.64081     0.00000     0.00000
    2    -0.00008    -1.77489    -1.18165
    3     0.00003    -1.14413    -1.66948
 ion    4
    1    -1.64081     0.00000     0.00000
    2    -0.00008    -1.77489    -1.18165
    3     0.00003    -1.14413    -1.66948
 ion    5
    1    -1.64059     0.00000     0.00000
    2     0.00008    -1.77489     1.18165
    3    -0.00003     1.14413    -1.66948
 ion    6
    1    -1.64059     0.00000     0.00000
    2     0.00008    -1.77489     1.18165
    3    -0.00003     1.14413    -1.66948
 ion    7
    1    -1.64059     0.00000     0.00000
    2     0.00008    -1.77489     1.18165
    3    -0.00003     1.14413    -1.66948
 ion    8
    1    -1.64059     0.00000     0.00000
    2     0.00008    -1.77489     1.18165
    3    -0.00003     1.14413    -1.66948
 ion    9
    1    -1.77489     0.00008     1.18165
    2     0.00000    -1.64060    -0.00000
    3     1.14413    -0.00003    -1.66948
 ion   10
    1    -1.77489     0.00008     1.18165
    2     0.00000    -1.64060    -0.00000
    3     1.14413    -0.00003    -1.66948
 ion   11
    1    -1.77489     0.00008     1.18165
    2     0.00000    -1.64060    -0.00000
    3     1.14413    -0.00003    -1.66948
 ion   12
    1    -1.77489     0.00008     1.18165
    2     0.00000    -1.64060    -0.00000
    3     1.14413    -0.00003    -1.66948
 ion   13
    1    -1.77489    -0.00008    -1.18165
    2     0.00000    -1.64081    -0.00000
    3    -1.14413     0.00003    -1.66948
 ion   14
    1    -1.77489    -0.00008    -1.18165
    2     0.00000    -1.64081    -0.00000
    3    -1.14413     0.00003    -1.66948
 ion   15
    1    -1.77489    -0.00008    -1.18165
    2     0.00000    -1.64081    -0.00000
    3    -1.14413     0.00003    -1.66948
 ion   16
    1    -1.77489    -0.00008    -1.18165
    2     0.00000    -1.64081    -0.00000
    3    -1.14413     0.00003    -1.66948
 ion   17
    1    -1.64059     0.00000     0.00000
    2     0.00008    -1.77489     1.18165
    3    -0.00003     1.14413    -1.66948
 ion   18
    1    -1.64059     0.00000     0.00000
    2     0.00008    -1.77489     1.18165
    3    -0.00003     1.14413    -1.66948
 ion   19
    1    -1.64059     0.00000     0.00000
    2     0.00008    -1.77489     1.18165
    3    -0.00003     1.14413    -1.66948
 ion   20
    1    -1.64059     0.00000     0.00000
    2     0.00008    -1.77489     1.18165
    3    -0.00003     1.14413    -1.66948
 ion   21
    1    -1.64081     0.00000     0.00000
    2    -0.00008    -1.77489    -1.18165
    3     0.00003    -1.14413    -1.66948
 ion   22
    1    -1.64081     0.00000     0.00000
    2    -0.00008    -1.77489    -1.18165
    3     0.00003    -1.14413    -1.66948
 ion   23
    1    -1.64081     0.00000     0.00000
    2    -0.00008    -1.77489    -1.18165
    3     0.00003    -1.14413    -1.66948
 ion   24
    1    -1.64081     0.00000     0.00000
    2    -0.00008    -1.77489    -1.18165
    3     0.00003    -1.14413    -1.66948
 ion   25
    1    -1.77489     0.00008     1.18165
    2     0.00000    -1.64060    -0.00000
    3     1.14413    -0.00003    -1.66948
 ion   26
    1    -1.77489     0.00008     1.18165
    2     0.00000    -1.64060    -0.00000
    3     1.14413    -0.00003    -1.66948
 ion   27
    1    -1.77489     0.00008     1.18165
    2     0.00000    -1.64060    -0.00000
    3     1.14413    -0.00003    -1.66948
 ion   28
    1    -1.77489     0.00008     1.18165
    2     0.00000    -1.64060    -0.00000
    3     1.14413    -0.00003    -1.66948
 ion   29
    1    -1.77489    -0.00008    -1.18165
    2     0.00000    -1.64081    -0.00000
    3    -1.14413     0.00003    -1.66948
 ion   30
    1    -1.77489    -0.00008    -1.18165
    2     0.00000    -1.64081    -0.00000
    3    -1.14413     0.00003    -1.66948
 ion   31
    1    -1.77489    -0.00008    -1.18165
    2     0.00000    -1.64081    -0.00000
    3    -1.14413     0.00003    -1.66948
 ion   32
    1    -1.77489    -0.00008    -1.18165
    2     0.00000    -1.64081    -0.00000
    3    -1.14413     0.00003    -1.66948
 ion   33
    1     0.62492    -0.24588    -0.00001
    2     0.24588     0.62492     0.00001
    3    -0.00000    -0.00000     0.48475
 ion   34
    1     0.62492    -0.24588    -0.00001
    2     0.24588     0.62492     0.00001
    3    -0.00000    -0.00000     0.48475
 ion   35
    1     0.62492    -0.24588    -0.00001
    2     0.24588     0.62492     0.00001
    3    -0.00000    -0.00000     0.48475
 ion   36
    1     0.62492    -0.24588    -0.00001
    2     0.24588     0.62492     0.00001
    3    -0.00000    -0.00000     0.48475
 ion   37
    1     0.62492     0.24588     0.00001
    2    -0.24588     0.62492    -0.00001
    3    -0.00000    -0.00000     0.48475
 ion   38
    1     0.62492     0.24588     0.00001
    2    -0.24588     0.62492    -0.00001
    3    -0.00000    -0.00000     0.48475
 ion   39
    1     0.62492     0.24588     0.00001
    2    -0.24588     0.62492    -0.00001
    3    -0.00000    -0.00000     0.48475
 ion   40
    1     0.62492     0.24588     0.00001
    2    -0.24588     0.62492    -0.00001
    3    -0.00000    -0.00000     0.48475
 ion   41
    1     0.62492    -0.24588    -0.00001
    2     0.24588     0.62492     0.00001
    3    -0.00000    -0.00000     0.48475
 ion   42
    1     0.62492    -0.24588    -0.00001
    2     0.24588     0.62492     0.00001
    3    -0.00000    -0.00000     0.48475
 ion   43
    1     0.62492    -0.24588    -0.00001
    2     0.24588     0.62492     0.00001
    3    -0.00000    -0.00000     0.48475
 ion   44
    1     0.62492    -0.24588    -0.00001
    2     0.24588     0.62492     0.00001
    3    -0.00000    -0.00000     0.48475
 ion   45
    1     0.62492     0.24588     0.00001
    2    -0.24588     0.62492    -0.00001
    3    -0.00000    -0.00000     0.48475
 ion   46
    1     0.62492     0.24588     0.00001
    2    -0.24588     0.62492    -0.00001
    3    -0.00000    -0.00000     0.48475
 ion   47
    1     0.62492     0.24588     0.00001
    2    -0.24588     0.62492    -0.00001
    3    -0.00000    -0.00000     0.48475
 ion   48
    1     0.62492     0.24588     0.00001
    2    -0.24588     0.62492    -0.00001
    3    -0.00000    -0.00000     0.48475
 ion   49
    1     2.79067     0.11227     0.00003
    2    -0.11228     2.79067    -0.00003
    3    -0.00000    -0.00000     2.85421
 ion   50
    1     2.79067     0.11227     0.00003
    2    -0.11228     2.79067    -0.00003
    3    -0.00000    -0.00000     2.85421
 ion   51
    1     2.79067     0.11227     0.00003
    2    -0.11228     2.79067    -0.00003
    3    -0.00000    -0.00000     2.85421
 ion   52
    1     2.79067     0.11227     0.00003
    2    -0.11228     2.79067    -0.00003
    3    -0.00000    -0.00000     2.85421
 ion   53
    1     2.79067    -0.11227    -0.00003
    2     0.11228     2.79067     0.00003
    3    -0.00000    -0.00000     2.85421
 ion   54
    1     2.79067    -0.11227    -0.00003
    2     0.11228     2.79067     0.00003
    3    -0.00000    -0.00000     2.85421
 ion   55
    1     2.79067    -0.11227    -0.00003
    2     0.11228     2.79067     0.00003
    3    -0.00000    -0.00000     2.85421
 ion   56
    1     2.79067    -0.11227    -0.00003
    2     0.11228     2.79067     0.00003
    3    -0.00000    -0.00000     2.85421
 ion   57
    1     2.79067     0.11227     0.00003
    2    -0.11228     2.79067    -0.00003
    3    -0.00000    -0.00000     2.85421
 ion   58
    1     2.79067     0.11227     0.00003
    2    -0.11228     2.79067    -0.00003
    3    -0.00000    -0.00000     2.85421
 ion   59
    1     2.79067     0.11227     0.00003
    2    -0.11228     2.79067    -0.00003
    3    -0.00000    -0.00000     2.85421
 ion   60
    1     2.79067     0.11227     0.00003
    2    -0.11228     2.79067    -0.00003
    3    -0.00000    -0.00000     2.85421
 ion   61
    1     2.79067    -0.11227    -0.00003
    2     0.11228     2.79067     0.00003
    3    -0.00000    -0.00000     2.85421
 ion   62
    1     2.79067    -0.11227    -0.00003
    2     0.11228     2.79067     0.00003
    3    -0.00000    -0.00000     2.85421
 ion   63
    1     2.79067    -0.11227    -0.00003
    2     0.11228     2.79067     0.00003
    3    -0.00000    -0.00000     2.85421
 ion   64
    1     2.79067    -0.11227    -0.00003
    2     0.11228     2.79067     0.00003
    3    -0.00000    -0.00000     2.85421


--------------------------------------------------------------------------------------------------------


 writing wavefunctions
     LOOP+:  cpu time41708.3227: real time42124.0993
    4ORBIT:  cpu time    0.0000: real time    0.0000
 


 total charge     
 
# of ion       s       p       d       tot
------------------------------------------
    1        1.313   2.410   0.000   3.724
    2        1.313   2.410   0.000   3.724
    3        1.313   2.410   0.000   3.724
    4        1.313   2.410   0.000   3.724
    5        1.313   2.410   0.000   3.723
    6        1.313   2.410   0.000   3.723
    7        1.313   2.410   0.000   3.723
    8        1.313   2.410   0.000   3.723
    9        1.313   2.410   0.000   3.724
   10        1.313   2.410   0.000   3.724
   11        1.313   2.410   0.000   3.724
   12        1.313   2.410   0.000   3.724
   13        1.313   2.410   0.000   3.724
   14        1.313   2.410   0.000   3.724
   15        1.313   2.410   0.000   3.724
   16        1.313   2.410   0.000   3.724
   17        1.313   2.410   0.000   3.723
   18        1.313   2.410   0.000   3.723
   19        1.313   2.410   0.000   3.723
   20        1.313   2.410   0.000   3.723
   21        1.313   2.410   0.000   3.724
   22        1.313   2.410   0.000   3.724
   23        1.313   2.410   0.000   3.724
   24        1.313   2.410   0.000   3.724
   25        1.313   2.410   0.000   3.724
   26        1.313   2.410   0.000   3.724
   27        1.313   2.410   0.000   3.724
   28        1.313   2.410   0.000   3.724
   29        1.313   2.410   0.000   3.724
   30        1.313   2.410   0.000   3.724
   31        1.313   2.410   0.000   3.724
   32        1.313   2.410   0.000   3.724
   33        0.260   6.202   8.917  15.378
   34        0.260   6.202   8.917  15.378
   35        0.260   6.202   8.917  15.378
   36        0.260   6.202   8.917  15.378
   37        0.260   6.202   8.917  15.378
   38        0.260   6.202   8.917  15.378
   39        0.260   6.202   8.917  15.378
   40        0.260   6.202   8.917  15.378
   41        0.260   6.202   8.917  15.378
   42        0.260   6.202   8.917  15.378
   43        0.260   6.202   8.917  15.378
   44        0.260   6.202   8.917  15.378
   45        0.260   6.202   8.917  15.378
   46        0.260   6.202   8.917  15.378
   47        0.260   6.202   8.917  15.378
   48        0.260   6.202   8.917  15.378
   49        0.350   6.351   5.819  12.521
   50        0.350   6.351   5.819  12.521
   51        0.350   6.351   5.819  12.521
   52        0.350   6.351   5.819  12.521
   53        0.350   6.351   5.819  12.521
   54        0.350   6.351   5.819  12.521
   55        0.350   6.351   5.819  12.521
   56        0.350   6.351   5.819  12.521
   57        0.350   6.351   5.819  12.521
   58        0.350   6.351   5.819  12.521
   59        0.350   6.351   5.819  12.521
   60        0.350   6.351   5.819  12.521
   61        0.350   6.351   5.819  12.521
   62        0.350   6.351   5.819  12.521
   63        0.350   6.351   5.819  12.521
   64        0.350   6.351   5.819  12.521
--------------------------------------------------
tot         51.789 277.974 235.775 565.538
 


 magnetization (x)
 
# of ion       s       p       d       tot
------------------------------------------
    1        0.000  -0.000   0.000  -0.000
    2        0.000  -0.000   0.000  -0.000
    3        0.000  -0.000   0.000  -0.000
    4        0.000  -0.000   0.000  -0.000
    5        0.000  -0.000   0.000  -0.000
    6        0.000  -0.000   0.000  -0.000
    7        0.000  -0.000   0.000  -0.000
    8        0.000  -0.000   0.000  -0.000
    9       -0.000   0.000   0.000   0.000
   10       -0.000   0.000   0.000   0.000
   11       -0.000   0.000   0.000   0.000
   12       -0.000   0.000   0.000   0.000
   13       -0.000   0.000   0.000   0.000
   14       -0.000   0.000   0.000   0.000
   15       -0.000   0.000   0.000   0.000
   16       -0.000   0.000   0.000   0.000
   17        0.000  -0.000   0.000  -0.000
   18        0.000  -0.000   0.000  -0.000
   19        0.000  -0.000   0.000  -0.000
   20        0.000  -0.000   0.000  -0.000
   21        0.000  -0.000   0.000  -0.000
   22        0.000  -0.000   0.000  -0.000
   23        0.000  -0.000   0.000  -0.000
   24        0.000  -0.000   0.000  -0.000
   25       -0.000   0.000   0.000   0.000
   26       -0.000   0.000   0.000   0.000
   27       -0.000   0.000   0.000   0.000
   28       -0.000   0.000   0.000   0.000
   29       -0.000   0.000   0.000   0.000
   30       -0.000   0.000   0.000   0.000
   31       -0.000   0.000   0.000   0.000
   32       -0.000   0.000   0.000   0.000
   33        0.000   0.000  -0.001   0.000
   34        0.000   0.000  -0.001   0.000
   35        0.000   0.000  -0.001   0.000
   36        0.000   0.000  -0.001   0.000
   37       -0.000  -0.000   0.001  -0.000
   38       -0.000  -0.000   0.001  -0.000
   39       -0.000  -0.000   0.001  -0.000
   40       -0.000  -0.000   0.001  -0.000
   41        0.000   0.000  -0.001   0.000
   42        0.000   0.000  -0.001   0.000
   43        0.000   0.000  -0.001   0.000
   44        0.000   0.000  -0.001   0.000
   45       -0.000  -0.000   0.001  -0.000
   46       -0.000  -0.000   0.001  -0.000
   47       -0.000  -0.000   0.001  -0.000
   48       -0.000  -0.000   0.001  -0.000
   49        0.020   0.054   3.671   3.745
   50        0.020   0.054   3.671   3.745
   51        0.020   0.054   3.671   3.745
   52        0.020   0.054   3.671   3.745
   53       -0.020  -0.054  -3.671  -3.745
   54       -0.020  -0.054  -3.671  -3.745
   55       -0.020  -0.054  -3.671  -3.745
   56       -0.020  -0.054  -3.671  -3.745
   57        0.020   0.054   3.671   3.745
   58        0.020   0.054   3.671   3.745
   59        0.020   0.054   3.671   3.745
   60        0.020   0.054   3.671   3.745
   61       -0.020  -0.054  -3.671  -3.745
   62       -0.020  -0.054  -3.671  -3.745
   63       -0.020  -0.054  -3.671  -3.745
   64       -0.020  -0.054  -3.671  -3.745
--------------------------------------------------
tot          0.000  -0.000   0.000   0.000
 
 BZINTS: Fermi energy:  4.987864;688.000000 electrons
         Band energy:***********;  BLOECHL correction:  0.000000

 total amount of memory used by VASP MPI-rank0   584779. kBytes
=======================================================================

   base      :      30000. kBytes
   nonl-proj :     428032. kBytes
   fftplans  :       8932. kBytes
   grid      :      58613. kBytes
   one-center:       1990. kBytes
   wavefun   :      57212. kBytes
 
  
  
 General timing and accounting informations for this job:
 ========================================================
  
                  Total CPU time used (sec):    41805.242
                            User time (sec):    41713.931
                          System time (sec):       91.310
                         Elapsed time (sec):    42223.211
  
                   Maximum memory used (kb):     1799784.
                   Average memory used (kb):           0.
  
                          Minor page faults:      6316859
                          Major page faults:         8466
                 Voluntary context switches:        10574
