       N       E                     dE             d eps       ncg     rms          rms(c)
DAV:   1     0.604770641954E+04    0.60477E+04   -0.51662E+05 16384   0.197E+03
DAV:   2    -0.772932715659E+02   -0.61250E+04   -0.60157E+04 17664   0.446E+02
DAV:   3    -0.327528805332E+03   -0.25024E+03   -0.24929E+03 23040   0.979E+01
DAV:   4    -0.330955339901E+03   -0.34265E+01   -0.34264E+01 18944   0.116E+01
DAV:   5    -0.331057773031E+03   -0.10243E+00   -0.10243E+00 22016   0.196E+00    0.168E+01
DAV:   6    -0.327609230904E+03    0.34485E+01   -0.48554E+00 26112   0.794E+00    0.951E+00
DAV:   7    -0.326805290392E+03    0.80394E+00   -0.46238E+00 19968   0.657E+00    0.689E+00
DAV:   8    -0.326583464956E+03    0.22183E+00   -0.55163E+00 23808   0.664E+00    0.695E+00
DAV:   9    -0.326414597475E+03    0.16887E+00   -0.15430E+00 20736   0.334E+00    0.182E+00
DAV:  10    -0.326416750045E+03   -0.21526E-02   -0.75792E-02 23040   0.558E-01    0.106E+00
DAV:  11    -0.326419725134E+03   -0.29751E-02   -0.23547E-02 20736   0.354E-01    0.492E-01
DAV:  12    -0.326422170734E+03   -0.24456E-02   -0.78058E-03 21504   0.138E-01    0.187E-01
DAV:  13    -0.326422534240E+03   -0.36351E-03   -0.10687E-03 20224   0.658E-02    0.125E-01
DAV:  14    -0.326422778827E+03   -0.24459E-03   -0.70220E-04 23808   0.408E-02    0.625E-02
DAV:  15    -0.326422912285E+03   -0.13346E-03   -0.38933E-04 19968   0.208E-02    0.329E-02
DAV:  16    -0.326422949382E+03   -0.37098E-04   -0.10481E-04 21760   0.138E-02    0.212E-02
DAV:  17    -0.326422975756E+03   -0.26374E-04   -0.11284E-04 19968   0.104E-02    0.131E-02
DAV:  18    -0.326422983386E+03   -0.76301E-05   -0.54413E-05 20992   0.792E-03    0.597E-03
DAV:  19    -0.326422984295E+03   -0.90904E-06   -0.58508E-06 23808   0.274E-03    0.431E-03
DAV:  20    -0.326422984570E+03   -0.27468E-06   -0.17839E-06 22272   0.157E-03    0.175E-03
DAV:  21    -0.326422984673E+03   -0.10303E-06   -0.45498E-07 20992   0.803E-04    0.105E-03
DAV:  22    -0.326422984733E+03   -0.59939E-07   -0.12160E-07 27136   0.401E-04    0.644E-04
DAV:  23    -0.326422984760E+03   -0.27328E-07   -0.35310E-08 14080   0.214E-04    0.281E-04
DAV:  24    -0.326422984774E+03   -0.13431E-07   -0.17192E-08 14336   0.139E-04    0.195E-04
DAV:  25    -0.326422984776E+03   -0.22701E-08   -0.67496E-09 12544   0.901E-05
   1 F= -.32642298E+03 E0= -.32642298E+03  d E =0.000000E+00  mag=     0.0000
