 vasp.5.4.4.18Apr17-6-g9f103f2a35 (build Oct 30 2023 17:30:16) complex          
  
 executed on             LinuxIFC date 2024.06.30  04:53:28
 running on  256 total cores
 distrk:  each k-point on  256 cores,    1 groups
 distr:  one band on NCORES_PER_BAND=   1 cores,  256 groups


--------------------------------------------------------------------------------------------------------


 INCAR:
 POTCAR:    PAW_PBE S 06Sep2000                   
 POTCAR:     PAW_PBE Cu_pv 06Sep2000              
 POTCAR:     PAW_PBE Fe_pv 02Aug2007              

 ----------------------------------------------------------------------------- 
|                                                                             |
|           W    W    AA    RRRRR   N    N  II  N    N   GGGG   !!!           |
|           W    W   A  A   R    R  NN   N  II  NN   N  G    G  !!!           |
|           W    W  A    A  R    R  N N  N  II  N N  N  G       !!!           |
|           W WW W  AAAAAA  RRRRR   N  N N  II  N  N N  G  GGG   !            |
|           WW  WW  A    A  R   R   N   NN  II  N   NN  G    G                |
|           W    W  A    A  R    R  N    N  II  N    N   GGGG   !!!           |
|                                                                             |
|      For optimal performance we recommend to set                            |
|        NCORE= 4 - approx SQRT( number of cores)                             |
|      NCORE specifies how many cores store one orbital (NPAR=cpu/NCORE).     |
|      This setting can  greatly improve the performance of VASP for DFT.     |
|      The default,   NCORE=1            might be grossly inefficient         |
|      on modern multi-core architectures or massively parallel machines.     |
|      Do your own testing !!!!                                               |
|      Unfortunately you need to use the default for GW and RPA calculations. |
|      (for HF NCORE is supported but not extensively tested yet)             |
|                                                                             |
 ----------------------------------------------------------------------------- 

 POTCAR:    PAW_PBE S 06Sep2000                   
   SHA256 =  0fc7481fb0695f01bdc6462160264c5c84044ae9ec85a907d398b887a2bc3132 S/
   COPYR  = (c) Copyright 06Sep2000 Georg Kresse                                
   COPYR  = This file is part of the software VASP. Any use, copying, and all ot
   COPYR  = If you do not have a valid VASP license, you may not use, copy or di
   VRHFIN =S : s2p4                                                             
   LEXCH  = PE                                                                  
   EATOM  =   276.8230 eV,   20.3459 Ry                                         
                                                                                
   TITEL  = PAW_PBE S 06Sep2000                                                 
   LULTRA =        F    use ultrasoft PP ?                                      
   IUNSCR =        1    unscreen: 0-lin 1-nonlin 2-no                           
   RPACOR =    1.500    partial core radius                                     
   POMASS =   32.066; ZVAL   =    6.000    mass and valenz                      
   RCORE  =    1.900    outmost cutoff radius                                   
   RWIGS  =    2.200; RWIGS  =    1.164    wigner-seitz radius (au A)           
   ENMAX  =  258.689; ENMIN  =  194.016 eV                                      
   ICORE  =        2    local potential                                         
   LCOR   =        T    correct aug charges                                     
   LPAW   =        T    paw PP                                                  
   EAUG   =  335.092                                                            
   DEXC   =    0.000                                                            
   RMAX   =    1.942    core radius for proj-oper                               
   RAUG   =    1.300    factor for augmentation sphere                          
   RDEP   =    1.954    radius for radial grids                                 
   RDEPT  =    1.744    core radius for aug-charge                              
                                                                                
   Atomic configuration                                                         
    6 entries                                                                   
     n  l   j            E        occ.                                          
     1  0  0.50     -2405.8406   2.0000                                         
     2  0  0.50      -211.7007   2.0000                                         
     2  1  1.50      -156.4958   6.0000                                         
     3  0  0.50       -17.2562   2.0000                                         
     3  1  0.50        -7.0085   4.0000                                         
     3  2  1.50        -6.8029   0.0000                                         
   Description                                                                  
     l       E           TYP  RCUT    TYP  RCUT                                 
     0    -17.2561641     23  1.900                                             
     0    -15.8743224     23  1.900                                             
     1     -7.0085400     23  1.900                                             
     1     -2.7779785     23  1.900                                             
     2     -6.8029130     23  1.900                                             
  local pseudopotential read in
  partial core-charges read in
  partial kinetic energy density read in
  atomic valenz-charges read in
  non local Contribution for L=           0  read in
    real space projection operators read in
  non local Contribution for L=           0  read in
    real space projection operators read in
  non local Contribution for L=           1  read in
    real space projection operators read in
  non local Contribution for L=           1  read in
    real space projection operators read in
    PAW grid and wavefunctions read in
 
   number of l-projection  operators is LMAX  =           4
   number of lm-projection operators is LMMAX =           8
 
 POTCAR:     PAW_PBE Cu_pv 06Sep2000              
   SHA256 =  cb7b504e2ea725fe1f25c85a9ac77d4012ce94cd394135b722c4e25ec297f1cb Cu
   COPYR  = (c) Copyright 06Sep2000 Georg Kresse                                
   COPYR  = This file is part of the software VASP. Any use, copying, and all ot
   COPYR  = If you do not have a valid VASP license, you may not use, copy or di
   VRHFIN =Cu: d10 p1                                                           
   LEXCH  = PE                                                                  
   EATOM  =  4120.1201 eV,  302.8203 Ry                                         
                                                                                
   TITEL  = PAW_PBE Cu_pv 06Sep2000                                             
   LULTRA =        F    use ultrasoft PP ?                                      
   IUNSCR =        1    unscreen: 0-lin 1-nonlin 2-no                           
   RPACOR =    1.500    partial core radius                                     
   POMASS =   63.546; ZVAL   =   17.000    mass and valenz                      
   RCORE  =    2.000    outmost cutoff radius                                   
   RWIGS  =    2.000; RWIGS  =    1.058    wigner-seitz radius (au A)           
   ENMAX  =  368.648; ENMIN  =  276.486 eV                                      
   RCLOC  =    1.304    cutoff for local pot                                    
   LCOR   =        T    correct aug charges                                     
   LPAW   =        T    paw PP                                                  
   EAUG   =  758.233                                                            
   DEXC   =    0.000                                                            
   RMAX   =    2.046    core radius for proj-oper                               
   RAUG   =    1.300    factor for augmentation sphere                          
   RDEP   =    2.025    radius for radial grids                                 
   RDEPT  =    1.558    core radius for aug-charge                              
                                                                                
   Atomic configuration                                                         
    8 entries                                                                   
     n  l   j            E        occ.                                          
     1  0  0.50     -8850.2467   2.0000                                         
     2  0  0.50     -1062.3498   2.0000                                         
     2  1  1.50      -916.8226   6.0000                                         
     3  0  0.50      -114.6929   2.0000                                         
     3  1  1.50       -72.1325   6.0000                                         
     3  2  2.50        -5.0394  10.0000                                         
     4  0  0.50        -4.6097   1.0000                                         
     4  3  2.50        -1.3606   0.0000                                         
   Description                                                                  
     l       E           TYP  RCUT    TYP  RCUT                                 
     1    -72.1324777     23  1.700                                             
     1     -1.3605826     23  1.700                                             
     2     -5.0393776     23  2.000                                             
     2     -6.3999602     23  2.000                                             
     0     -4.6097062     23  1.800                                             
     0     14.1620818     23  1.800                                             
  local pseudopotential read in
  partial core-charges read in
  partial kinetic energy density read in
  atomic valenz-charges read in
  non local Contribution for L=           1  read in
    real space projection operators read in
  non local Contribution for L=           1  read in
    real space projection operators read in
  non local Contribution for L=           2  read in
    real space projection operators read in
  non local Contribution for L=           2  read in
    real space projection operators read in
  non local Contribution for L=           0  read in
    real space projection operators read in
  non local Contribution for L=           0  read in
    real space projection operators read in
    PAW grid and wavefunctions read in
 
   number of l-projection  operators is LMAX  =           6
   number of lm-projection operators is LMMAX =          18
 
 POTCAR:     PAW_PBE Fe_pv 02Aug2007              
   SHA256 =  5d22e414b1f82158bf2c7ecb8b97b28fd0923e48cadc1c3bf74d524558f5dd32 Fe
   COPYR  = (c) Copyright 02Aug2007 Georg Kresse                                
   COPYR  = This file is part of the software VASP. Any use, copying, and all ot
   COPYR  = If you do not have a valid VASP license, you may not use, copy or di
   VRHFIN =Fe:  3pd7s1                                                          
   LEXCH  = PE                                                                  
   EATOM  =  2457.4239 eV,  180.6156 Ry                                         
                                                                                
   TITEL  = PAW_PBE Fe_pv 02Aug2007                                             
   LULTRA =        F    use ultrasoft PP ?                                      
   IUNSCR =        1    unscreen: 0-lin 1-nonlin 2-no                           
   RPACOR =    1.750    partial core radius                                     
   POMASS =   55.847; ZVAL   =   14.000    mass and valenz                      
   RCORE  =    2.200    outmost cutoff radius                                   
   RWIGS  =    2.200; RWIGS  =    1.164    wigner-seitz radius (au A)           
   ENMAX  =  293.238; ENMIN  =  219.928 eV                                      
   ICORE  =        3    local potential                                         
   LCOR   =        T    correct aug charges                                     
   LPAW   =        T    paw PP                                                  
   EAUG   =  578.342                                                            
   DEXC   =    0.000                                                            
   RMAX   =    2.249    core radius for proj-oper                               
   RAUG   =    1.300    factor for augmentation sphere                          
   RDEP   =    2.296    radius for radial grids                                 
   RDEPT  =    1.766    core radius for aug-charge                              
                                                                                
   Atomic configuration                                                         
    8 entries                                                                   
     n  l   j            E        occ.                                          
     1  0  0.50     -6993.8440   2.0000                                         
     2  0  0.50      -814.6047   2.0000                                         
     2  1  1.50      -693.3689   6.0000                                         
     3  0  0.50       -89.4732   2.0000                                         
     3  1  1.50       -55.6373   6.0000                                         
     3  2  2.50        -3.8151   7.0000                                         
     4  0  0.50        -4.2551   1.0000                                         
     4  3  2.50        -1.3606   0.0000                                         
   Description                                                                  
     l       E           TYP  RCUT    TYP  RCUT                                 
     1    -55.6372668     23  2.000                                             
     1     -5.4423304     23  2.000                                             
     2     -3.8151096     23  2.200                                             
     2     -5.1756922     23  2.200                                             
     0     -4.2550951     23  2.200                                             
     0     27.2116520     23  2.200                                             
     3     -1.3605826     23  2.200                                             
  local pseudopotential read in
  partial core-charges read in
  partial kinetic energy density read in
  atomic valenz-charges read in
  non local Contribution for L=           1  read in
    real space projection operators read in
  non local Contribution for L=           1  read in
    real space projection operators read in
  non local Contribution for L=           2  read in
    real space projection operators read in
  non local Contribution for L=           2  read in
    real space projection operators read in
  non local Contribution for L=           0  read in
    real space projection operators read in
  non local Contribution for L=           0  read in
    real space projection operators read in
    PAW grid and wavefunctions read in
 
   number of l-projection  operators is LMAX  =           6
   number of lm-projection operators is LMMAX =          18
 

 ----------------------------------------------------------------------------- 
|                                                                             |
|  ADVICE TO THIS USER RUNNING 'VASP/VAMP'   (HEAR YOUR MASTER'S VOICE ...):  |
|                                                                             |
|      You have a (more or less) 'large supercell' and for larger cells       |
|      it might be more efficient to use real space projection opertators     |
|      So try LREAL= Auto  in the INCAR   file.                               |
|      Mind:          For very  accurate calculation you might also keep the  |
|      reciprocal projection scheme          (i.e. LREAL=.FALSE.)             |
|                                                                             |
 ----------------------------------------------------------------------------- 


 ----------------------------------------------------------------------------- 
|                                                                             |
|  ADVICE TO THIS USER RUNNING 'VASP/VAMP'   (HEAR YOUR MASTER'S VOICE ...):  |
|                                                                             |
|      You enforced a specific xc-type in the INCAR file,                     |
|      a different type was found on the POTCAR file                          |
|          I HOPE YOU KNOW, WHAT YOU ARE  DOING                               |
|                                                                             |
 ----------------------------------------------------------------------------- 

  PAW_PBE S 06Sep2000                   :
 energy of atom  1       EATOM= -276.8230
 kinetic energy error for atom=    0.0007 (will be added to EATOM!!)
   PAW_PBE Cu_pv 06Sep2000              :
 energy of atom  2       EATOM=-4120.1201
 kinetic energy error for atom=    0.0094 (will be added to EATOM!!)
   PAW_PBE Fe_pv 02Aug2007              :
 energy of atom  3       EATOM=-2457.4239
 kinetic energy error for atom=    0.0025 (will be added to EATOM!!)
 
 
 POSCAR: Fe16 Cu16 S32                           
  positions in direct lattice
  No initial velocities read in
 exchange correlation table for  LEXCH =       14
   RHO(1)=    0.500       N(1)  =     2000
   RHO(2)=  100.500       N(2)  =     4000
 


--------------------------------------------------------------------------------------------------------


 ion  position               nearest neighbor table
   1  0.127  0.117  0.126-  41 2.25  61 2.26  37 2.28  49 2.30
   2  0.627  0.117  0.126-  42 2.25  62 2.26  38 2.28  50 2.30
   3  0.127  0.617  0.126-  43 2.25  63 2.26  39 2.28  51 2.30
   4  0.627  0.617  0.126-  44 2.25  64 2.26  40 2.28  52 2.30
   5  0.373  0.367  0.124-  39 2.25  52 2.26  41 2.28  62 2.30
   6  0.873  0.367  0.124-  40 2.25  51 2.26  42 2.28  61 2.30
   7  0.373  0.867  0.124-  37 2.25  50 2.26  43 2.28  64 2.30
   8  0.873  0.867  0.124-  38 2.25  49 2.26  44 2.28  63 2.30
   9  0.125  0.370  0.875-  51 2.27  55 2.27  41 2.27  45 2.27
  10  0.625  0.370  0.875-  52 2.27  56 2.27  42 2.27  46 2.27
  11  0.125  0.870  0.875-  49 2.27  53 2.27  43 2.27  47 2.27
  12  0.625  0.870  0.875-  50 2.27  54 2.27  44 2.27  48 2.27
  13  0.375  0.121  0.875-  41 2.26  46 2.26  50 2.30  53 2.30
  14  0.875  0.121  0.875-  42 2.26  45 2.26  49 2.30  54 2.30
  15  0.375  0.621  0.875-  43 2.26  48 2.26  52 2.30  55 2.30
  16  0.875  0.621  0.875-  44 2.26  47 2.26  51 2.30  56 2.30
  17  0.123  0.117  0.624-  45 2.25  57 2.26  33 2.28  53 2.30
  18  0.623  0.117  0.624-  46 2.25  58 2.26  34 2.28  54 2.30
  19  0.123  0.617  0.624-  47 2.25  59 2.26  35 2.28  55 2.30
  20  0.623  0.617  0.624-  48 2.25  60 2.26  36 2.28  56 2.30
  21  0.377  0.367  0.626-  36 2.25  55 2.26  46 2.28  57 2.30
  22  0.877  0.367  0.626-  35 2.25  56 2.26  45 2.28  58 2.30
  23  0.377  0.867  0.626-  34 2.25  53 2.26  48 2.28  59 2.30
  24  0.877  0.867  0.626-  33 2.25  54 2.26  47 2.28  60 2.30
  25  0.375  0.120  0.375-  57 2.27  62 2.27  34 2.27  37 2.27
  26  0.875  0.120  0.375-  58 2.27  61 2.27  33 2.27  38 2.27
  27  0.375  0.620  0.375-  59 2.27  64 2.27  36 2.27  39 2.27
  28  0.875  0.620  0.375-  60 2.27  63 2.27  35 2.27  40 2.27
  29  0.125  0.371  0.375-  35 2.26  39 2.26  57 2.30  61 2.30
  30  0.625  0.371  0.375-  36 2.26  40 2.26  58 2.30  62 2.30
  31  0.125  0.871  0.375-  33 2.26  37 2.26  59 2.30  63 2.30
  32  0.625  0.871  0.375-  34 2.26  38 2.26  60 2.30  64 2.30
  33  0.997  0.007  0.500-  24 2.25  31 2.26  26 2.27  17 2.28
  34  0.497  0.007  0.500-  23 2.25  32 2.26  25 2.27  18 2.28
  35  0.997  0.507  0.500-  22 2.25  29 2.26  28 2.27  19 2.28
  36  0.497  0.507  0.500-  21 2.25  30 2.26  27 2.27  20 2.28
  37  0.253  0.007  0.250-   7 2.25  31 2.26  25 2.27   1 2.28
  38  0.753  0.007  0.250-   8 2.25  32 2.26  26 2.27   2 2.28
  39  0.253  0.507  0.250-   5 2.25  29 2.26  27 2.27   3 2.28
  40  0.753  0.507  0.250-   6 2.25  30 2.26  28 2.27   4 2.28
  41  0.247  0.257  0.000-   1 2.25  13 2.26   9 2.27   5 2.28
  42  0.747  0.257  0.000-   2 2.25  14 2.26  10 2.27   6 2.28
  43  0.247  0.757  0.000-   3 2.25  15 2.26  11 2.27   7 2.28
  44  0.747  0.757  0.000-   4 2.25  16 2.26  12 2.27   8 2.28
  45  0.003  0.257  0.750-  17 2.25  14 2.26   9 2.27  22 2.28
  46  0.503  0.257  0.750-  18 2.25  13 2.26  10 2.27  21 2.28
  47  0.003  0.757  0.750-  19 2.25  16 2.26  11 2.27  24 2.28
  48  0.503  0.757  0.750-  20 2.25  15 2.26  12 2.27  23 2.28
  49  0.998  0.006  0.001-   8 2.26  11 2.27  14 2.30   1 2.30
  50  0.498  0.006  0.001-   7 2.26  12 2.27  13 2.30   2 2.30
  51  0.998  0.506  0.001-   6 2.26   9 2.27  16 2.30   3 2.30
  52  0.498  0.506  0.001-   5 2.26  10 2.27  15 2.30   4 2.30
  53  0.252  0.006  0.749-  23 2.26  11 2.27  13 2.30  17 2.30
  54  0.752  0.006  0.749-  24 2.26  12 2.27  14 2.30  18 2.30
  55  0.252  0.506  0.749-  21 2.26   9 2.27  15 2.30  19 2.30
  56  0.752  0.506  0.749-  22 2.26  10 2.27  16 2.30  20 2.30
  57  0.248  0.256  0.501-  17 2.26  25 2.27  29 2.30  21 2.30
  58  0.748  0.256  0.501-  18 2.26  26 2.27  30 2.30  22 2.30
  59  0.248  0.756  0.501-  19 2.26  27 2.27  31 2.30  23 2.30
  60  0.748  0.756  0.501-  20 2.26  28 2.27  32 2.30  24 2.30
  61  0.002  0.256  0.249-   1 2.26  26 2.27  29 2.30   6 2.30
  62  0.502  0.256  0.249-   2 2.26  25 2.27  30 2.30   5 2.30
  63  0.002  0.756  0.249-   3 2.26  28 2.27  31 2.30   8 2.30
  64  0.502  0.756  0.249-   4 2.26  27 2.27  32 2.30   7 2.30
 
  LATTYP: Found a simple monoclinic cell.
 ALAT       =    15.6899269001
 B/A-ratio  =     0.6715552639
 C/A-ratio  =     1.5591419043
 COS(beta)  =    -0.9592058739
  
  Lattice vectors:
  
 A1 = ( -11.1434580000,   0.0000000000, -11.0452320000)
 A2 = (   0.0000000000, -10.5366530000,   0.0000000000)
 A3 = (  11.7969190000,   0.0000000000,  21.4304080000)


Analysis of symmetry for initial positions (statically):
=====================================================================
 Subroutine PRICEL returns following result:
 
  LATTYP: Found a base centered monoclinic cell.
 ALAT       =    11.0538779582
 B/A-ratio  =     0.4766043663
 C/A-ratio  =     0.9413632413
 COS(beta)  =    -0.7959859956
  
  Lattice vectors:
  
 A1 = (  -2.2957687500,  -2.6341632500,   5.0275740000)
 A2 = (  -2.2957687500,   2.6341632500,   5.0275740000)
 A3 = (  -0.6534610000,   0.0000000000, -10.3851760000)
 
   8 primitive cells build up your supercell.
 

 Routine SETGRP: Setting up the symmetry group for a 
 simple monoclinic supercell.


 Subroutine GETGRP returns: Found  2 space group operations
 (whereof  1 operations were pure point group operations)
 out of a pool of  4 trial point group operations.


The static configuration has the point symmetry C_1 .
 The point group associated with its full space group is C_2 .


Analysis of symmetry for dynamics (positions and initial velocities):
=====================================================================
 Subroutine PRICEL returns following result:
 
  LATTYP: Found a base centered monoclinic cell.
 ALAT       =    11.0538779582
 B/A-ratio  =     0.4766043663
 C/A-ratio  =     0.9413632413
 COS(beta)  =    -0.7959859956
  
  Lattice vectors:
  
 A1 = (  -2.2957687500,  -2.6341632500,   5.0275740000)
 A2 = (  -2.2957687500,   2.6341632500,   5.0275740000)
 A3 = (  -0.6534610000,   0.0000000000, -10.3851760000)
 
   8 primitive cells build up your supercell.
 

 Routine SETGRP: Setting up the symmetry group for a 
 simple monoclinic supercell.


 Subroutine GETGRP returns: Found  2 space group operations
 (whereof  1 operations were pure point group operations)
 out of a pool of  4 trial point group operations.


The dynamic configuration has the point symmetry C_1 .
 The point group associated with its full space group is C_2 .


Analysis of structural, dynamic, and magnetic symmetry:
=====================================================================
 Subroutine PRICEL returns following result:
 
  LATTYP: Found a base centered monoclinic cell.
 ALAT       =    11.0538779582
 B/A-ratio  =     0.4766043663
 C/A-ratio  =     0.9413632413
 COS(beta)  =    -0.7959859956
  
  Lattice vectors:
  
 A1 = (  -2.2957687500,  -2.6341632500,   5.0275740000)
 A2 = (  -2.2957687500,   2.6341632500,   5.0275740000)
 A3 = (  -0.6534610000,   0.0000000000, -10.3851760000)
 
   8 primitive cells build up your supercell.
 

 Routine SETGRP: Setting up the symmetry group for a 
 simple monoclinic supercell.


 Subroutine GETGRP returns: Found  2 space group operations
 (whereof  1 operations were pure point group operations)
 out of a pool of  4 trial point group operations.


The magnetic configuration has the point symmetry C_1 .
 The point group associated with its full space group is C_2 .


 Subroutine INISYM returns: Found  2 space group operations
 (whereof  1 operations are pure point group operations),
 and found     8 'primitive' translations

 
 
 KPOINTS: Automatic mesh                          

Automatic generation of k-mesh.
Space group operators:
 irot       det(A)        alpha          n_x          n_y          n_z        tau_x        tau_y        tau_z
    1     1.000000     0.000000     1.000000     0.000000     0.000000     0.000000     0.000000     0.000000
    2     1.000000   180.000000     0.000000     1.000000     0.000000    -0.250000    -0.000000    -0.250000
 
 Subroutine IBZKPT returns following result:
 ===========================================
 
 Found      8 irreducible k-points:
 
 Following reciprocal coordinates:
            Coordinates               Weight
  0.000000  0.000000  0.000000      1.000000
  0.500000  0.000000  0.000000      1.000000
  0.000000  0.500000  0.000000      1.000000
  0.500000  0.500000  0.000000      1.000000
  0.000000  0.000000  0.500000      1.000000
  0.500000  0.000000  0.500000      1.000000
  0.000000  0.500000  0.500000      1.000000
  0.500000  0.500000  0.500000      1.000000
 
 Following cartesian coordinates:
            Coordinates               Weight
  0.000000  0.000000  0.000000      1.000000
  0.047854  0.000000 -0.003011      1.000000
  0.000000  0.047453  0.000000      1.000000
  0.047854  0.047453 -0.003011      1.000000
 -0.003041  0.000000  0.048337      1.000000
  0.044812  0.000000  0.045326      1.000000
 -0.003041  0.047453  0.048337      1.000000
  0.044812  0.047453  0.045326      1.000000
 
 TETIRR: Found     24 inequivalent tetrahedra from       48
 
 Subroutine IBZKPT_HF returns following result:
 ==============================================
 
 Found      8 k-points in 1st BZ
 the following      8 k-points will be used (e.g. in the exchange kernel)
 Following reciprocal coordinates:   # in IRBZ
  0.000000  0.000000  0.000000    0.12500000   1 t-inv F
  0.500000  0.000000  0.000000    0.12500000   2 t-inv F
  0.000000  0.500000  0.000000    0.12500000   3 t-inv F
  0.500000  0.500000  0.000000    0.12500000   4 t-inv F
  0.000000  0.000000  0.500000    0.12500000   5 t-inv F
  0.500000  0.000000  0.500000    0.12500000   6 t-inv F
  0.000000  0.500000  0.500000    0.12500000   7 t-inv F
  0.500000  0.500000  0.500000    0.12500000   8 t-inv F


--------------------------------------------------------------------------------------------------------




 Dimension of arrays:
   k-points           NKPTS =      8   k-points in BZ     NKDIM =      8   number of bands    NBANDS=    512
   number of dos      NEDOS =    301   number of ions     NIONS =     64
   non local maximal  LDIM  =      6   non local SUM 2l+1 LMDIM =     18
   total plane-waves  NPLWV = 829440
   max r-space proj   IRMAX =      1   max aug-charges    IRDMAX=  23053
   dimension x,y,z NGX =    96 NGY =   96 NGZ =   90
   dimension x,y,z NGXF=   192 NGYF=  192 NGZF=  180
   support grid    NGXF=   192 NGYF=  192 NGZF=  180
   ions per type =              32  16  16
   NGX,Y,Z   is equivalent  to a cutoff of  15.18, 15.15, 14.38 a.u.
   NGXF,Y,Z  is equivalent  to a cutoff of  30.37, 30.29, 28.76 a.u.

 SYSTEM =  CuFeS2                                  
 POSCAR =  Fe16 Cu16 S32                           

 Startparameter for this run:
   NWRITE =      2    write-flag & timer
   PREC   = accura    normal or accurate (medium, high low for compatibility)
   ISTART =      0    job   : 0-new  1-cont  2-samecut
   ICHARG =      1    charge: 1-file 2-atom 10-const
   ISPIN  =      2    spin polarized calculation?
   LNONCOLLINEAR =      F non collinear calculations
   LSORBIT =      F    spin-orbit coupling
   INIWAV =      1    electr: 0-lowe 1-rand  2-diag
   LASPH  =      F    aspherical Exc in radial PAW
   METAGGA=      F    non-selfconsistent MetaGGA calc.

 Electronic Relaxation 1
   ENCUT  =  700.0 eV  51.45 Ry    7.17 a.u.  22.67 22.73 22.45*2*pi/ulx,y,z
   ENINI  =  700.0     initial cutoff
   ENAUG  =  758.2 eV  augmentation charge cutoff
   NELM   =    500;   NELMIN=  2; NELMDL=  0     # of ELM steps 
   EDIFF  = 0.1E-07   stopping-criterion for ELM
   LREAL  =      F    real-space projection
   NLSPLINE    = F    spline interpolate recip. space projectors
   LCOMPAT=      F    compatible to vasp.4.4
   GGA_COMPAT  = T    GGA compatible to vasp.4.4-vasp.4.6
   LMAXPAW     = -100 max onsite density
   LMAXMIX     =    4 max onsite mixed and CHGCAR
   VOSKOWN=      0    Vosko Wilk Nusair interpolation
   ROPT   =    0.00000   0.00000   0.00000
 Ionic relaxation
   EDIFFG = -.1E-04   stopping-criterion for IOM
   NSW    =      0    number of steps for IOM
   NBLOCK =      1;   KBLOCK =      1    inner block; outer block 
   IBRION =     -1    ionic relax: 0-MD 1-quasi-New 2-CG
   NFREE  =      0    steps in history (QN), initial steepest desc. (CG)
   ISIF   =      2    stress and relaxation
   IWAVPR =     10    prediction:  0-non 1-charg 2-wave 3-comb
   ISYM   =      2    0-nonsym 1-usesym 2-fastsym
   LCORR  =      T    Harris-Foulkes like correction to forces

   POTIM  = 0.5000    time-step for ionic-motion
   TEIN   =    0.0    initial temperature
   TEBEG  =    0.0;   TEEND  =   0.0 temperature during run
   SMASS  =  -3.00    Nose mass-parameter (am)
   estimated Nose-frequenzy (Omega)   =  0.10E-29 period in steps =****** mass=  -0.252E-26a.u.
   SCALEE = 1.0000    scale energy and forces
   NPACO  =    256;   APACO  = 16.0  distance and # of slots for P.C.
   PSTRESS=    0.0 pullay stress

  Mass of Ions in am
   POMASS =  32.07 63.55 55.85
  Ionic Valenz
   ZVAL   =   6.00 17.00 14.00
  Atomic Wigner-Seitz radii
   RWIGS  =  -1.00 -1.00 -1.00
  virtual crystal weights 
   VCA    =   1.00  1.00  1.00
   NELECT =     688.0000    total number of electrons
   NUPDOWN=      -1.0000    fix difference up-down

 DOS related values:
   EMIN   =  10.00;   EMAX   =-10.00  energy-range for DOS
   EFERMI =   0.00
   ISMEAR =    -5;   SIGMA  =   0.03  broadening in eV -4-tet -1-fermi 0-gaus

 Electronic relaxation 2 (details)
   IALGO  =     38    algorithm
   LDIAG  =      T    sub-space diagonalisation (order eigenvalues)
   LSUBROT=      F    optimize rotation matrix (better conditioning)
   TURBO    =      0    0=normal 1=particle mesh
   IRESTART =      0    0=no restart 2=restart with 2 vectors
   NREBOOT  =      0    no. of reboots
   NMIN     =      0    reboot dimension
   EREF     =   0.00    reference energy to select bands
   IMIX   =      4    mixing-type and parameters
     AMIX     =   0.40;   BMIX     =  1.00
     AMIX_MAG =   1.60;   BMIX_MAG =  1.00
     AMIN     =   0.10
     WC   =   100.;   INIMIX=   1;  MIXPRE=   1;  MAXMIX= -45

 Intra band minimization:
   WEIMIN = 0.0000     energy-eigenvalue tresh-hold
   EBREAK =  0.49E-11  absolut break condition
   DEPER  =   0.30     relativ break condition  

   TIME   =   0.40     timestep for ELM

  volume/ion in A,a.u.               =      17.86       120.56
  Fermi-wavevector in a.u.,A,eV,Ry     =   1.382127  2.611841 25.990872  1.910275
  Thomas-Fermi vector in A             =   2.506847
 
 Write flags
   LWAVE        =      T    write WAVECAR
   LDOWNSAMPLE  =      F    k-point downsampling of WAVECAR
   LCHARG       =      T    write CHGCAR
   LVTOT        =      F    write LOCPOT, total local potential
   LVHAR        =      F    write LOCPOT, Hartree potential only
   LELF         =      F    write electronic localiz. function (ELF)
   LORBIT       =     11    0 simple, 1 ext, 2 COOP (PROOUT), +10 PAW based schemes


 Dipole corrections
   LMONO  =      F    monopole corrections only (constant potential shift)
   LDIPOL =      F    correct potential (dipole corrections)
   IDIPOL =      0    1-x, 2-y, 3-z, 4-all directions 
   EPSILON=  1.0000000 bulk dielectric constant

 LDA+U is selected, type is set to LDAUTYPE =  2
   angular momentum for each species LDAUL =     2    2    2
   U (eV)           for each species LDAUU =   0.0  0.1  4.7
   J (eV)           for each species LDAUJ =   0.0  0.0  0.0
 Exchange correlation treatment:
   GGA     =    PS    GGA type
   LEXCH   =    14    internal setting for exchange type
   VOSKOWN=      0    Vosko Wilk Nusair interpolation
   LHFCALC =     F    Hartree Fock is set to
   LHFONE  =     F    Hartree Fock one center treatment
   AEXX    =    0.0000 exact exchange contribution

 Linear response parameters
   LEPSILON=     F    determine dielectric tensor
   LRPA    =     F    only Hartree local field effects (RPA)
   LNABLA  =     F    use nabla operator in PAW spheres
   LVEL    =     F    velocity operator in full k-point grid
   LINTERFAST=   F  fast interpolation
   KINTER  =     0    interpolate to denser k-point grid
   CSHIFT  =0.1000    complex shift for real part using Kramers Kronig
   OMEGAMAX=  -1.0    maximum frequency
   DEG_THRESHOLD= 0.2000000E-02 threshold for treating states as degnerate
   RTIME   =   -0.100 relaxation time in fs
  (WPLASMAI=    0.000 imaginary part of plasma frequency in eV, 0.658/RTIME)
   DFIELD  = 0.0000000 0.0000000 0.0000000 field for delta impulse in time
 
 Orbital magnetization related:
   ORBITALMAG=     F  switch on orbital magnetization
   LCHIMAG   =     F  perturbation theory with respect to B field
   DQ        =  0.001000  dq finite difference perturbation B field
   LLRAUG    =     F  two centre corrections for induced B field

 PEAD related settings:
   LPEAD      =     T    switch on PEAD
   IPEAD      =     4    finite difference order for dpsi/dk
   LCALCPOL   =     T    calculate macroscopic polarization
   LCALCEPS   =     F    calculate dielectric tensor
   EFIELD_PEAD=    0.0000    0.0000    0.0000
   SKIP_EDOTP =     F
   LRPA       =     F
   SKIP_SCF   =     F


--------------------------------------------------------------------------------------------------------


 Static calculation
 charge density and potential will be updated during run
 spin polarized calculation
 Variant of blocked Davidson
 Davidson routine will perform the subspace rotation
 perform sub-space diagonalisation
    after iterative eigenvector-optimisation
 modified Broyden-mixing scheme, WC =      100.0
 initial mixing is a Kerker type mixing with AMIX =  0.4000 and BMIX =      1.0000
 Hartree-type preconditioning will be used
 using additional bands          168
 reciprocal scheme for non local part
 use partial core corrections
 calculate Harris-corrections to forces 
   (improved forces if not selfconsistent)
 use gradient corrections 
 use of overlap-Matrix (Vanderbilt PP)
 Fermi weights with tetrahedron method with Bloechl corrections


--------------------------------------------------------------------------------------------------------


  energy-cutoff  :      700.00
  volume of cell :     1143.32
      direct lattice vectors                 reciprocal lattice vectors
    10.489997000  0.000000000  0.660056000     0.095707842  0.000000000 -0.006022174
     0.000000000 10.536653000  0.000000000     0.000000000  0.094906798  0.000000000
     0.653461000  0.000000000 10.385176000    -0.006082953  0.000000000  0.096673852

  length of vectors
    10.510742647 10.536653000 10.405714383     0.095897120  0.094906798  0.096865040


 
 k-points in units of 2pi/SCALE and weight: Automatic mesh                          
   0.00000000  0.00000000  0.00000000       0.125
   0.04785392  0.00000000 -0.00301109       0.125
   0.00000000  0.04745340  0.00000000       0.125
   0.04785392  0.04745340 -0.00301109       0.125
  -0.00304148  0.00000000  0.04833693       0.125
   0.04481244  0.00000000  0.04532584       0.125
  -0.00304148  0.04745340  0.04833693       0.125
   0.04481244  0.04745340  0.04532584       0.125
 
 k-points in reciprocal lattice and weights: Automatic mesh                          
   0.00000000  0.00000000  0.00000000       0.125
   0.50000000  0.00000000  0.00000000       0.125
   0.00000000  0.50000000  0.00000000       0.125
   0.50000000  0.50000000  0.00000000       0.125
   0.00000000  0.00000000  0.50000000       0.125
   0.50000000  0.00000000  0.50000000       0.125
   0.00000000  0.50000000  0.50000000       0.125
   0.50000000  0.50000000  0.50000000       0.125
 
 position of ions in fractional coordinates (direct lattice) 
   0.12666100  0.11674200  0.12617900
   0.62666100  0.11674200  0.12617900
   0.12666100  0.61674200  0.12617900
   0.62666100  0.61674200  0.12617900
   0.37333900  0.36674200  0.12382100
   0.87333900  0.36674200  0.12382100
   0.37333900  0.86674200  0.12382100
   0.87333900  0.86674200  0.12382100
   0.12500000  0.36971200  0.87500000
   0.62500000  0.36971200  0.87500000
   0.12500000  0.86971200  0.87500000
   0.62500000  0.86971200  0.87500000
   0.37500000  0.12077900  0.87500000
   0.87500000  0.12077900  0.87500000
   0.37500000  0.62077900  0.87500000
   0.87500000  0.62077900  0.87500000
   0.12333900  0.11674200  0.62382100
   0.62333900  0.11674200  0.62382100
   0.12333900  0.61674200  0.62382100
   0.62333900  0.61674200  0.62382100
   0.37666100  0.36674200  0.62617900
   0.87666100  0.36674200  0.62617900
   0.37666100  0.86674200  0.62617900
   0.87666100  0.86674200  0.62617900
   0.37500000  0.11971200  0.37500000
   0.87500000  0.11971200  0.37500000
   0.37500000  0.61971200  0.37500000
   0.87500000  0.61971200  0.37500000
   0.12500000  0.37077900  0.37500000
   0.62500000  0.37077900  0.37500000
   0.12500000  0.87077900  0.37500000
   0.62500000  0.87077900  0.37500000
   0.99662800  0.00653600  0.50003000
   0.49662800  0.00653600  0.50003000
   0.99662800  0.50653600  0.50003000
   0.49662800  0.50653600  0.50003000
   0.25337200  0.00653600  0.24997000
   0.75337200  0.00653600  0.24997000
   0.25337200  0.50653600  0.24997000
   0.75337200  0.50653600  0.24997000
   0.24662800  0.25653600  0.00003000
   0.74662800  0.25653600  0.00003000
   0.24662800  0.75653600  0.00003000
   0.74662800  0.75653600  0.00003000
   0.00337200  0.25653600  0.74997000
   0.50337200  0.25653600  0.74997000
   0.00337200  0.75653600  0.74997000
   0.50337200  0.75653600  0.74997000
   0.99789400  0.00647700  0.00140700
   0.49789400  0.00647700  0.00140700
   0.99789400  0.50647700  0.00140700
   0.49789400  0.50647700  0.00140700
   0.25210600  0.00647700  0.74859300
   0.75210600  0.00647700  0.74859300
   0.25210600  0.50647700  0.74859300
   0.75210600  0.50647700  0.74859300
   0.24789400  0.25647700  0.50140700
   0.74789400  0.25647700  0.50140700
   0.24789400  0.75647700  0.50140700
   0.74789400  0.75647700  0.50140700
   0.00210600  0.25647700  0.24859300
   0.50210600  0.25647700  0.24859300
   0.00210600  0.75647700  0.24859300
   0.50210600  0.75647700  0.24859300
 
 position of ions in cartesian coordinates  (Angst):
   1.41112657  1.23006994  1.39399448
   6.65612507  1.23006994  1.72402248
   1.41112657  6.49839644  1.39399448
   6.65612507  6.49839644  1.72402248
   3.99723718  3.86423319  1.53232752
   9.24223568  3.86423319  1.86235552
   3.99723718  9.13255969  1.53232752
   9.24223568  9.13255969  1.86235552
   1.88302800  3.89552705  9.16953600
   7.12802650  3.89552705  9.49956400
   1.88302800  9.16385355  9.16953600
   7.12802650  9.16385355  9.49956400
   4.50552725  1.27260641  9.33455000
   9.75052575  1.27260641  9.66457800
   4.50552725  6.54093291  9.33455000
   9.75052575  6.54093291  9.66457800
   1.70146843  1.23006994  6.55990152
   6.94646693  1.23006994  6.88992952
   1.70146843  6.49839644  6.55990152
   6.94646693  6.49839644  6.88992952
   4.36035632  3.86423319  6.75159648
   9.60535482  3.86423319  7.08162448
   4.36035632  9.13255969  6.75159648
   9.60535482  9.13255969  7.08162448
   4.17879675  1.26136380  4.14196200
   9.42379525  1.26136380  4.47199000
   4.17879675  6.52969030  4.14196200
   9.42379525  6.52969030  4.47199000
   1.55629750  3.90676966  3.97694800
   6.80129600  3.90676966  4.30697600
   1.55629750  9.17509616  3.97694800
   6.80129600  9.17509616  4.30697600
  10.78137483  0.06886756  5.85072985
   5.53637633  0.06886756  5.52070185
  10.78137483  5.33719406  5.85072985
   5.53637633  5.33719406  5.52070185
   2.82121717  0.06886756  2.76322215
   8.06621567  0.06886756  3.09325015
   2.82121717  5.33719406  2.76322215
   8.06621567  5.33719406  3.09325015
   2.58714658  2.70303081  0.16309985
   7.83214508  2.70303081  0.49312785
   2.58714658  7.97135731  0.16309985
   7.83214508  7.97135731  0.49312785
   0.52544842  2.70303081  7.79079615
   5.77044692  2.70303081  8.12082415
   0.52544842  7.97135731  7.79079615
   5.77044692  7.97135731  8.12082415
  10.46882449  0.06824590  0.67327786
   5.22382599  0.06824590  0.34324986
  10.46882449  5.33657240  0.67327786
   5.22382599  5.33657240  0.34324986
   3.13376751  0.06824590  7.94067414
   8.37876601  0.06824590  8.27070214
   3.13376751  5.33657240  7.94067414
   8.37876601  5.33657240  8.27070214
   2.92805724  2.70240915  5.37082386
   8.17305574  2.70240915  5.70085186
   2.92805724  7.97073565  5.37082386
   8.17305574  7.97073565  5.70085186
   0.18453776  2.70240915  2.58307214
   5.42953626  2.70240915  2.91310014
   0.18453776  7.97073565  2.58307214
   5.42953626  7.97073565  2.91310014
 


--------------------------------------------------------------------------------------------------------


 k-point  1 :   0.0000 0.0000 0.0000  plane waves:   48097
 k-point  2 :   0.5000 0.0000 0.0000  plane waves:   48108
 k-point  3 :   0.0000 0.5000 0.0000  plane waves:   48098
 k-point  4 :   0.5000 0.5000 0.0000  plane waves:   48080
 k-point  5 :   0.0000 0.0000 0.5000  plane waves:   48062
 k-point  6 :   0.5000 0.0000 0.5000  plane waves:   48132
 k-point  7 :   0.0000 0.5000 0.5000  plane waves:   48092
 k-point  8 :   0.5000 0.5000 0.5000  plane waves:   48040

 maximum and minimum number of plane-waves per node :     48132    48040

 maximum number of plane-waves:     48132
 maximum index in each direction: 
   IXMAX=   22   IYMAX=   22   IZMAX=   22
   IXMIN=  -23   IYMIN=  -23   IZMIN=  -22


 serial   3D FFT for wavefunctions
 parallel 3D FFT for charge:
    minimum data exchange during FFTs selected (reduces bandwidth)


 total amount of memory used by VASP MPI-rank0   348353. kBytes
=======================================================================

   base      :      30000. kBytes
   nonl-proj :     216760. kBytes
   fftplans  :       4588. kBytes
   grid      :      69719. kBytes
   one-center:       1990. kBytes
   wavefun   :      25296. kBytes
 
     INWAV:  cpu time    0.0000: real time    0.0000
 Broyden mixing: mesh for mixing (old mesh)
   NGX = 45   NGY = 45   NGZ = 45
  (NGX  =192   NGY  =192   NGZ  =180)
  gives a total of  91125 points

 initial charge density was supplied:
 number of electron     687.9999938 magnetization      -0.0000000
 keeping initial charge density in first step


--------------------------------------------------------------------------------------------------------


 Maximum index for augmentation-charges          895 (set IRDMAX)


--------------------------------------------------------------------------------------------------------


 First call to EWALD:  gamma=   0.170
 Maximum number of real-space cells 3x 3x 3
 Maximum number of reciprocal cells 3x 3x 3

    FEWALD:  cpu time    0.0086: real time    0.0090


--------------------------------------- Iteration      1(   1)  ---------------------------------------


    POTLOK:  cpu time    1.5281: real time    1.5432
    SETDIJ:  cpu time    0.0429: real time    0.0431
     EDDAV:  cpu time  714.1674: real time  717.2072
 BZINTS: Fermi energy: 14.956399;688.000000 electrons
         Band energy:***********;  BLOECHL correction: -0.019608
       DOS:  cpu time    0.0463: real time    0.0464
    --------------------------------------------
      LOOP:  cpu time  715.7847: real time  718.8400

 eigenvalue-minimisations  : 16384
 total energy-change (2. order) : 0.6047706E+04  (-0.5166176E+05)
 number of electron     687.9999938 magnetization      -0.0000000
 augmentation part      687.9999938 magnetization      -0.0000000

 Free energy of the ion-electron system (eV)
  ---------------------------------------------------
  alpha Z        PSCENC =      2371.28971466
  Ewald energy   TEWEN  =    -62662.44475660
  -Hartree energ DENC   =    -42753.23538780
  -exchange      EXHF   =         0.00000000
  -V(xc)+E(xc)   XCENC  =      3283.42557248
  PAW double counting   =    112052.39469906  -115742.30158738
  entropy T*S    EENTRO =         0.00000000
  eigenvalues    EBANDS =     -4521.48694250
  atomic energy  EATOM  =    114020.06510763
  Solvation  Ediel_sol  =         0.00000000
  ---------------------------------------------------
  free energy    TOTEN  =      6047.70641954 eV

  energy without entropy =     6047.70641954  energy(sigma->0) =     6047.70641954


--------------------------------------------------------------------------------------------------------




--------------------------------------- Iteration      1(   2)  ---------------------------------------


     EDDAV:  cpu time  765.3803: real time  768.2070
 BZINTS: Fermi energy:  5.657729;688.000000 electrons
         Band energy:***********;  BLOECHL correction:  0.000000
       DOS:  cpu time    0.0091: real time    0.0091
    --------------------------------------------
      LOOP:  cpu time  765.3894: real time  768.2161

 eigenvalue-minimisations  : 17664
 total energy-change (2. order) :-0.6125000E+04  (-0.6015669E+04)
 number of electron     687.9999938 magnetization      -0.0000000
 augmentation part      687.9999938 magnetization      -0.0000000

 Free energy of the ion-electron system (eV)
  ---------------------------------------------------
  alpha Z        PSCENC =      2371.28971466
  Ewald energy   TEWEN  =    -62662.44475660
  -Hartree energ DENC   =    -42753.23538780
  -exchange      EXHF   =         0.00000000
  -V(xc)+E(xc)   XCENC  =      3283.42557248
  PAW double counting   =    112052.39469906  -115742.30158738
  entropy T*S    EENTRO =         0.00000000
  eigenvalues    EBANDS =    -10646.48663361
  atomic energy  EATOM  =    114020.06510763
  Solvation  Ediel_sol  =         0.00000000
  ---------------------------------------------------
  free energy    TOTEN  =       -77.29327157 eV

  energy without entropy =      -77.29327157  energy(sigma->0) =      -77.29327157


--------------------------------------------------------------------------------------------------------




--------------------------------------- Iteration      1(   3)  ---------------------------------------


     EDDAV:  cpu time  988.6378: real time  992.3180
 BZINTS: Fermi energy:  5.019056;688.000000 electrons
         Band energy:***********;  BLOECHL correction:  0.000000
       DOS:  cpu time    0.0081: real time    0.0082
    --------------------------------------------
      LOOP:  cpu time  988.6459: real time  992.3262

 eigenvalue-minimisations  : 23040
 total energy-change (2. order) :-0.2502355E+03  (-0.2492921E+03)
 number of electron     687.9999938 magnetization      -0.0000000
 augmentation part      687.9999938 magnetization      -0.0000000

 Free energy of the ion-electron system (eV)
  ---------------------------------------------------
  alpha Z        PSCENC =      2371.28971466
  Ewald energy   TEWEN  =    -62662.44475660
  -Hartree energ DENC   =    -42753.23538780
  -exchange      EXHF   =         0.00000000
  -V(xc)+E(xc)   XCENC  =      3283.42557248
  PAW double counting   =    112052.39469906  -115742.30158738
  entropy T*S    EENTRO =         0.00000000
  eigenvalues    EBANDS =    -10896.72216737
  atomic energy  EATOM  =    114020.06510763
  Solvation  Ediel_sol  =         0.00000000
  ---------------------------------------------------
  free energy    TOTEN  =      -327.52880533 eV

  energy without entropy =     -327.52880533  energy(sigma->0) =     -327.52880533


--------------------------------------------------------------------------------------------------------




--------------------------------------- Iteration      1(   4)  ---------------------------------------


     EDDAV:  cpu time  828.9156: real time  831.9710
 BZINTS: Fermi energy:  4.983603;688.000000 electrons
         Band energy:***********;  BLOECHL correction:  0.000000
       DOS:  cpu time    0.0073: real time    0.0074
    --------------------------------------------
      LOOP:  cpu time  828.9230: real time  831.9784

 eigenvalue-minimisations  : 18944
 total energy-change (2. order) :-0.3426535E+01  (-0.3426359E+01)
 number of electron     687.9999938 magnetization      -0.0000000
 augmentation part      687.9999938 magnetization      -0.0000000

 Free energy of the ion-electron system (eV)
  ---------------------------------------------------
  alpha Z        PSCENC =      2371.28971466
  Ewald energy   TEWEN  =    -62662.44475660
  -Hartree energ DENC   =    -42753.23538780
  -exchange      EXHF   =         0.00000000
  -V(xc)+E(xc)   XCENC  =      3283.42557248
  PAW double counting   =    112052.39469906  -115742.30158738
  entropy T*S    EENTRO =         0.00000000
  eigenvalues    EBANDS =    -10900.14870194
  atomic energy  EATOM  =    114020.06510763
  Solvation  Ediel_sol  =         0.00000000
  ---------------------------------------------------
  free energy    TOTEN  =      -330.95533990 eV

  energy without entropy =     -330.95533990  energy(sigma->0) =     -330.95533990


--------------------------------------------------------------------------------------------------------




--------------------------------------- Iteration      1(   5)  ---------------------------------------


     EDDAV:  cpu time  979.2535: real time  983.2355
 BZINTS: Fermi energy:  4.956528;688.000000 electrons
         Band energy:***********;  BLOECHL correction:  0.000000
       DOS:  cpu time    0.0074: real time    0.0089
    CHARGE:  cpu time    7.6679: real time    7.8058
    MIXING:  cpu time    0.0209: real time    0.0226
    --------------------------------------------
      LOOP:  cpu time  986.9500: real time  991.0729

 eigenvalue-minimisations  : 22016
 total energy-change (2. order) :-0.1024331E+00  (-0.1024325E+00)
 number of electron     687.9999955 magnetization      -0.0000000
 augmentation part      283.4569060 magnetization      -0.0000000

 Broyden mixing:
  rms(total) = 0.16811E+01    rms(broyden)= 0.16809E+01
  rms(prec ) = 0.18840E+01
  weight for this iteration     100.00

 Free energy of the ion-electron system (eV)
  ---------------------------------------------------
  alpha Z        PSCENC =      2371.28971466
  Ewald energy   TEWEN  =    -62662.44475660
  -Hartree energ DENC   =    -42753.23538780
  -exchange      EXHF   =         0.00000000
  -V(xc)+E(xc)   XCENC  =      3283.42557248
  PAW double counting   =    112052.39469906  -115742.30158738
  entropy T*S    EENTRO =         0.00000000
  eigenvalues    EBANDS =    -10900.25113507
  atomic energy  EATOM  =    114020.06510763
  Solvation  Ediel_sol  =         0.00000000
  ---------------------------------------------------
  free energy    TOTEN  =      -331.05777303 eV

  energy without entropy =     -331.05777303  energy(sigma->0) =     -331.05777303


--------------------------------------------------------------------------------------------------------




--------------------------------------- Iteration      1(   6)  ---------------------------------------


    POTLOK:  cpu time    0.8397: real time    0.8455
    SETDIJ:  cpu time    0.0330: real time    0.0332
     EDDAV:  cpu time 1125.4899: real time 1129.7751
 BZINTS: Fermi energy:  5.255385;688.000000 electrons
         Band energy:***********;  BLOECHL correction:  0.000000
       DOS:  cpu time    0.0081: real time    0.0082
    CHARGE:  cpu time    6.6947: real time    6.7212
    MIXING:  cpu time    0.0141: real time    0.3404
    --------------------------------------------
      LOOP:  cpu time 1133.0795: real time 1137.7235

 eigenvalue-minimisations  : 26112
 total energy-change (2. order) : 0.3448542E+01  (-0.4855398E+00)
 number of electron     687.9999955 magnetization      -0.0000000
 augmentation part      281.4466712 magnetization      -0.0000000

 Broyden mixing:
  rms(total) = 0.95089E+00    rms(broyden)= 0.95087E+00
  rms(prec ) = 0.10620E+01
  weight for this iteration     100.00

 eigenvalues of (default mixing * dielectric matrix)
  average eigenvalue GAMMA=   0.7969
  0.7969

 Free energy of the ion-electron system (eV)
  ---------------------------------------------------
  alpha Z        PSCENC =      2371.28971466
  Ewald energy   TEWEN  =    -62662.44475660
  -Hartree energ DENC   =    -42877.90142588
  -exchange      EXHF   =         0.00000000
  -V(xc)+E(xc)   XCENC  =      3287.40979324
  PAW double counting   =    112576.57264751  -116280.93893270
  entropy T*S    EENTRO =         0.00000000
  eigenvalues    EBANDS =    -10761.66137876
  atomic energy  EATOM  =    114020.06510763
  Solvation  Ediel_sol  =         0.00000000
  ---------------------------------------------------
  free energy    TOTEN  =      -327.60923090 eV

  energy without entropy =     -327.60923090  energy(sigma->0) =     -327.60923090


--------------------------------------------------------------------------------------------------------




--------------------------------------- Iteration      1(   7)  ---------------------------------------


    POTLOK:  cpu time    0.4844: real time    0.4863
    SETDIJ:  cpu time    0.0322: real time    0.0324
     EDDAV:  cpu time  847.5365: real time  850.7623
 BZINTS: Fermi energy:  4.980535;688.000000 electrons
         Band energy:***********;  BLOECHL correction:  0.000000
       DOS:  cpu time    0.0074: real time    0.0074
    CHARGE:  cpu time   10.1018: real time   10.1397
    MIXING:  cpu time    0.8524: real time    0.9429
    --------------------------------------------
      LOOP:  cpu time  859.0147: real time  862.3709

 eigenvalue-minimisations  : 19968
 total energy-change (2. order) : 0.8039405E+00  (-0.4623837E+00)
 number of electron     687.9999955 magnetization      -0.0000000
 augmentation part      282.7362996 magnetization      -0.0000000

 Broyden mixing:
  rms(total) = 0.68882E+00    rms(broyden)= 0.68881E+00
  rms(prec ) = 0.78668E+00
  weight for this iteration     100.00

 eigenvalues of (default mixing * dielectric matrix)
  average eigenvalue GAMMA=   1.0313
  1.4962  0.5665

 Free energy of the ion-electron system (eV)
  ---------------------------------------------------
  alpha Z        PSCENC =      2371.28971466
  Ewald energy   TEWEN  =    -62662.44475660
  -Hartree energ DENC   =    -42785.65924542
  -exchange      EXHF   =         0.00000000
  -V(xc)+E(xc)   XCENC  =      3285.02407322
  PAW double counting   =    112348.96494014  -116035.64438757
  entropy T*S    EENTRO =         0.00000000
  eigenvalues    EBANDS =    -10868.40073646
  atomic energy  EATOM  =    114020.06510763
  Solvation  Ediel_sol  =         0.00000000
  ---------------------------------------------------
  free energy    TOTEN  =      -326.80529039 eV

  energy without entropy =     -326.80529039  energy(sigma->0) =     -326.80529039


--------------------------------------------------------------------------------------------------------




--------------------------------------- Iteration      1(   8)  ---------------------------------------


    POTLOK:  cpu time    3.1032: real time    3.1136
    SETDIJ:  cpu time    0.8953: real time    0.8979
     EDDAV:  cpu time 1043.1156: real time 1047.1088
 BZINTS: Fermi energy:  5.044134;688.000000 electrons
         Band energy:***********;  BLOECHL correction:  0.000000
       DOS:  cpu time    0.0072: real time    0.0072
    CHARGE:  cpu time    6.6577: real time    6.6848
    MIXING:  cpu time    0.0096: real time    0.0096
    --------------------------------------------
      LOOP:  cpu time 1053.7885: real time 1057.8220

 eigenvalue-minimisations  : 23808
 total energy-change (2. order) : 0.2218254E+00  (-0.5516340E+00)
 number of electron     687.9999955 magnetization       0.0000000
 augmentation part      282.6567367 magnetization       0.0000000

 Broyden mixing:
  rms(total) = 0.69506E+00    rms(broyden)= 0.69504E+00
  rms(prec ) = 0.81106E+00
  weight for this iteration     100.00

 eigenvalues of (default mixing * dielectric matrix)
  average eigenvalue GAMMA=   0.8252
  1.6378  0.5363  0.3014

 Free energy of the ion-electron system (eV)
  ---------------------------------------------------
  alpha Z        PSCENC =      2371.28971466
  Ewald energy   TEWEN  =    -62662.44475660
  -Hartree energ DENC   =    -42830.16275289
  -exchange      EXHF   =         0.00000000
  -V(xc)+E(xc)   XCENC  =      3287.09290637
  PAW double counting   =    112293.66057252  -115983.99619694
  entropy T*S    EENTRO =         0.00000000
  eigenvalues    EBANDS =    -10822.08805969
  atomic energy  EATOM  =    114020.06510763
  Solvation  Ediel_sol  =         0.00000000
  ---------------------------------------------------
  free energy    TOTEN  =      -326.58346496 eV

  energy without entropy =     -326.58346496  energy(sigma->0) =     -326.58346496


--------------------------------------------------------------------------------------------------------




--------------------------------------- Iteration      1(   9)  ---------------------------------------


    POTLOK:  cpu time    0.4885: real time    0.4904
    SETDIJ:  cpu time    0.0320: real time    0.0321
     EDDAV:  cpu time  902.0082: real time  905.7064
 BZINTS: Fermi energy:  5.021423;688.000000 electrons
         Band energy:***********;  BLOECHL correction:  0.000000
       DOS:  cpu time    0.0196: real time    0.0198
    CHARGE:  cpu time    7.3476: real time    7.4496
    MIXING:  cpu time    0.1452: real time    0.3067
    --------------------------------------------
      LOOP:  cpu time  910.0412: real time  914.0052

 eigenvalue-minimisations  : 20736
 total energy-change (2. order) : 0.1688675E+00  (-0.1543044E+00)
 number of electron     687.9999955 magnetization       0.0000000
 augmentation part      282.3845714 magnetization       0.0000000

 Broyden mixing:
  rms(total) = 0.18228E+00    rms(broyden)= 0.18227E+00
  rms(prec ) = 0.19117E+00
  weight for this iteration     100.00

 eigenvalues of (default mixing * dielectric matrix)
  average eigenvalue GAMMA=   0.8690
  1.9393  0.7072  0.4750  0.3545

 Free energy of the ion-electron system (eV)
  ---------------------------------------------------
  alpha Z        PSCENC =      2371.28971466
  Ewald energy   TEWEN  =    -62662.44475660
  -Hartree energ DENC   =    -42830.59172811
  -exchange      EXHF   =         0.00000000
  -V(xc)+E(xc)   XCENC  =      3286.53867963
  PAW double counting   =    112277.56168984  -115969.51392365
  entropy T*S    EENTRO =         0.00000000
  eigenvalues    EBANDS =    -10819.31938086
  atomic energy  EATOM  =    114020.06510763
  Solvation  Ediel_sol  =         0.00000000
  ---------------------------------------------------
  free energy    TOTEN  =      -326.41459748 eV

  energy without entropy =     -326.41459748  energy(sigma->0) =     -326.41459748


--------------------------------------------------------------------------------------------------------




--------------------------------------- Iteration      1(  10)  ---------------------------------------


    POTLOK:  cpu time    1.3790: real time    1.4028
    SETDIJ:  cpu time    0.0332: real time    0.0334
     EDDAV:  cpu time  990.5097: real time  994.2730
 BZINTS: Fermi energy:  5.022201;688.000000 electrons
         Band energy:***********;  BLOECHL correction:  0.000000
       DOS:  cpu time    0.0074: real time    0.0075
    CHARGE:  cpu time    6.7261: real time    6.7533
    MIXING:  cpu time    0.0107: real time    0.0108
    --------------------------------------------
      LOOP:  cpu time  998.6660: real time 1002.4806

 eigenvalue-minimisations  : 23040
 total energy-change (2. order) :-0.2152569E-02  (-0.7579193E-02)
 number of electron     687.9999955 magnetization       0.0000000
 augmentation part      282.1953259 magnetization       0.0000000

 Broyden mixing:
  rms(total) = 0.10554E+00    rms(broyden)= 0.10554E+00
  rms(prec ) = 0.10920E+00
  weight for this iteration     100.00

 eigenvalues of (default mixing * dielectric matrix)
  average eigenvalue GAMMA=   0.9595
  1.7813  1.4919  0.6108  0.5806  0.3328

 Free energy of the ion-electron system (eV)
  ---------------------------------------------------
  alpha Z        PSCENC =      2371.28971466
  Ewald energy   TEWEN  =    -62662.44475660
  -Hartree energ DENC   =    -42838.61473446
  -exchange      EXHF   =         0.00000000
  -V(xc)+E(xc)   XCENC  =      3286.64994722
  PAW double counting   =    112263.76230282  -115956.23799150
  entropy T*S    EENTRO =         0.00000000
  eigenvalues    EBANDS =    -10810.88633981
  atomic energy  EATOM  =    114020.06510763
  Solvation  Ediel_sol  =         0.00000000
  ---------------------------------------------------
  free energy    TOTEN  =      -326.41675004 eV

  energy without entropy =     -326.41675004  energy(sigma->0) =     -326.41675004


--------------------------------------------------------------------------------------------------------




--------------------------------------- Iteration      1(  11)  ---------------------------------------


    POTLOK:  cpu time    0.4789: real time    0.4808
    SETDIJ:  cpu time    0.0319: real time    0.0320
     EDDAV:  cpu time  903.9021: real time  907.3153
 BZINTS: Fermi energy:  5.018713;688.000000 electrons
         Band energy:***********;  BLOECHL correction:  0.000000
       DOS:  cpu time    0.0072: real time    0.0072
    CHARGE:  cpu time    9.9112: real time    9.9486
    MIXING:  cpu time    0.0099: real time    0.0496
    --------------------------------------------
      LOOP:  cpu time  914.3411: real time  917.8335

 eigenvalue-minimisations  : 20736
 total energy-change (2. order) :-0.2975090E-02  (-0.2354738E-02)
 number of electron     687.9999955 magnetization       0.0000000
 augmentation part      282.2705493 magnetization       0.0000000

 Broyden mixing:
  rms(total) = 0.49249E-01    rms(broyden)= 0.49248E-01
  rms(prec ) = 0.50327E-01
  weight for this iteration     100.00

 eigenvalues of (default mixing * dielectric matrix)
  average eigenvalue GAMMA=   1.0973
  2.1037  2.1037  0.7710  0.6382  0.6382  0.3291

 Free energy of the ion-electron system (eV)
  ---------------------------------------------------
  alpha Z        PSCENC =      2371.28971466
  Ewald energy   TEWEN  =    -62662.44475660
  -Hartree energ DENC   =    -42833.47963726
  -exchange      EXHF   =         0.00000000
  -V(xc)+E(xc)   XCENC  =      3286.47103163
  PAW double counting   =    112217.30922255  -115908.49352358
  entropy T*S    EENTRO =         0.00000000
  eigenvalues    EBANDS =    -10817.13688414
  atomic energy  EATOM  =    114020.06510763
  Solvation  Ediel_sol  =         0.00000000
  ---------------------------------------------------
  free energy    TOTEN  =      -326.41972513 eV

  energy without entropy =     -326.41972513  energy(sigma->0) =     -326.41972513


--------------------------------------------------------------------------------------------------------




--------------------------------------- Iteration      1(  12)  ---------------------------------------


    POTLOK:  cpu time    0.4768: real time    0.4787
    SETDIJ:  cpu time    0.0332: real time    0.0334
     EDDAV:  cpu time  920.8525: real time  924.3602
 BZINTS: Fermi energy:  5.019236;688.000000 electrons
         Band energy:***********;  BLOECHL correction:  0.000000
       DOS:  cpu time    0.0073: real time    0.0073
    CHARGE:  cpu time    7.9546: real time    7.9860
    MIXING:  cpu time    0.0109: real time    0.0110
    --------------------------------------------
      LOOP:  cpu time  929.3353: real time  932.8766

 eigenvalue-minimisations  : 21504
 total energy-change (2. order) :-0.2445599E-02  (-0.7805841E-03)
 number of electron     687.9999955 magnetization       0.0000000
 augmentation part      282.2499166 magnetization       0.0000000

 Broyden mixing:
  rms(total) = 0.18688E-01    rms(broyden)= 0.18687E-01
  rms(prec ) = 0.19889E-01
  weight for this iteration     100.00

 eigenvalues of (default mixing * dielectric matrix)
  average eigenvalue GAMMA=   1.0849
  2.1937  2.1937  0.9173  0.3294  0.7215  0.6193  0.6193

 Free energy of the ion-electron system (eV)
  ---------------------------------------------------
  alpha Z        PSCENC =      2371.28971466
  Ewald energy   TEWEN  =    -62662.44475660
  -Hartree energ DENC   =    -42835.08733652
  -exchange      EXHF   =         0.00000000
  -V(xc)+E(xc)   XCENC  =      3286.52726770
  PAW double counting   =    112177.45662466  -115868.84935770
  entropy T*S    EENTRO =         0.00000000
  eigenvalues    EBANDS =    -10815.37943456
  atomic energy  EATOM  =    114020.06510763
  Solvation  Ediel_sol  =         0.00000000
  ---------------------------------------------------
  free energy    TOTEN  =      -326.42217073 eV

  energy without entropy =     -326.42217073  energy(sigma->0) =     -326.42217073


--------------------------------------------------------------------------------------------------------




--------------------------------------- Iteration      1(  13)  ---------------------------------------


    POTLOK:  cpu time    0.4819: real time    0.4837
    SETDIJ:  cpu time    0.0326: real time    0.0328
     EDDAV:  cpu time  885.1128: real time  888.4610
 BZINTS: Fermi energy:  5.018490;688.000000 electrons
         Band energy:***********;  BLOECHL correction:  0.000000
       DOS:  cpu time    0.0074: real time    0.0079
    CHARGE:  cpu time    6.6769: real time    6.7039
    MIXING:  cpu time    0.0244: real time    0.0245
    --------------------------------------------
      LOOP:  cpu time  892.3362: real time  895.7140

 eigenvalue-minimisations  : 20224
 total energy-change (2. order) :-0.3635057E-03  (-0.1068713E-03)
 number of electron     687.9999955 magnetization       0.0000000
 augmentation part      282.2674830 magnetization       0.0000000

 Broyden mixing:
  rms(total) = 0.12452E-01    rms(broyden)= 0.12452E-01
  rms(prec ) = 0.13117E-01
  weight for this iteration     100.00

 eigenvalues of (default mixing * dielectric matrix)
  average eigenvalue GAMMA=   1.1046
  2.2382  2.2382  1.0861  1.0861  0.3293  0.5938  0.5938  0.6712

 Free energy of the ion-electron system (eV)
  ---------------------------------------------------
  alpha Z        PSCENC =      2371.28971466
  Ewald energy   TEWEN  =    -62662.44475660
  -Hartree energ DENC   =    -42834.20373895
  -exchange      EXHF   =         0.00000000
  -V(xc)+E(xc)   XCENC  =      3286.51278858
  PAW double counting   =    112163.11315989  -115854.41739883
  entropy T*S    EENTRO =         0.00000000
  eigenvalues    EBANDS =    -10816.33741062
  atomic energy  EATOM  =    114020.06510763
  Solvation  Ediel_sol  =         0.00000000
  ---------------------------------------------------
  free energy    TOTEN  =      -326.42253424 eV

  energy without entropy =     -326.42253424  energy(sigma->0) =     -326.42253424


--------------------------------------------------------------------------------------------------------




--------------------------------------- Iteration      1(  14)  ---------------------------------------


    POTLOK:  cpu time    0.7576: real time    0.7609
    SETDIJ:  cpu time    0.0336: real time    0.0338
     EDDAV:  cpu time 1040.3237: real time 1044.2883
 BZINTS: Fermi energy:  5.017858;688.000000 electrons
         Band energy:***********;  BLOECHL correction:  0.000000
       DOS:  cpu time    0.0084: real time    0.0084
    CHARGE:  cpu time    6.6689: real time    6.6960
    MIXING:  cpu time    0.0115: real time    0.0115
    --------------------------------------------
      LOOP:  cpu time 1047.8034: real time 1051.7988

 eigenvalue-minimisations  : 23808
 total energy-change (2. order) :-0.2445878E-03  (-0.7021988E-04)
 number of electron     687.9999955 magnetization       0.0000000
 augmentation part      282.2581871 magnetization       0.0000000

 Broyden mixing:
  rms(total) = 0.62532E-02    rms(broyden)= 0.62529E-02
  rms(prec ) = 0.66258E-02
  weight for this iteration     100.00

 eigenvalues of (default mixing * dielectric matrix)
  average eigenvalue GAMMA=   1.1732
  2.3991  2.3991  1.4105  1.4105  0.3294  0.5983  0.5983  0.7070  0.7070

 Free energy of the ion-electron system (eV)
  ---------------------------------------------------
  alpha Z        PSCENC =      2371.28971466
  Ewald energy   TEWEN  =    -62662.44475660
  -Hartree energ DENC   =    -42834.65871918
  -exchange      EXHF   =         0.00000000
  -V(xc)+E(xc)   XCENC  =      3286.52147886
  PAW double counting   =    112155.09965576  -115846.53803641
  entropy T*S    EENTRO =         0.00000000
  eigenvalues    EBANDS =    -10815.75722355
  atomic energy  EATOM  =    114020.06510763
  Solvation  Ediel_sol  =         0.00000000
  ---------------------------------------------------
  free energy    TOTEN  =      -326.42277883 eV

  energy without entropy =     -326.42277883  energy(sigma->0) =     -326.42277883


--------------------------------------------------------------------------------------------------------




--------------------------------------- Iteration      1(  15)  ---------------------------------------


    POTLOK:  cpu time    0.4784: real time    0.4803
    SETDIJ:  cpu time    0.0321: real time    0.0322
     EDDAV:  cpu time  917.5640: real time  921.0064
 BZINTS: Fermi energy:  5.017047;688.000000 electrons
         Band energy:***********;  BLOECHL correction:  0.000000
       DOS:  cpu time    0.0073: real time    0.0073
    CHARGE:  cpu time   10.1639: real time   10.2022
    MIXING:  cpu time    0.0106: real time    0.0107
    --------------------------------------------
      LOOP:  cpu time  928.2564: real time  931.7391

 eigenvalue-minimisations  : 19968
 total energy-change (2. order) :-0.1334571E-03  (-0.3893325E-04)
 number of electron     687.9999955 magnetization       0.0000000
 augmentation part      282.2584321 magnetization       0.0000000

 Broyden mixing:
  rms(total) = 0.32912E-02    rms(broyden)= 0.32908E-02
  rms(prec ) = 0.36659E-02
  weight for this iteration     100.00

 eigenvalues of (default mixing * dielectric matrix)
  average eigenvalue GAMMA=   1.1829
  2.6870  2.2957  1.8111  1.0829  1.0829  0.3293  0.5958  0.5958  0.7147  0.6336

 Free energy of the ion-electron system (eV)
  ---------------------------------------------------
  alpha Z        PSCENC =      2371.28971466
  Ewald energy   TEWEN  =    -62662.44475660
  -Hartree energ DENC   =    -42834.60590955
  -exchange      EXHF   =         0.00000000
  -V(xc)+E(xc)   XCENC  =      3286.52369928
  PAW double counting   =    112150.71348911  -115842.17824329
  entropy T*S    EENTRO =         0.00000000
  eigenvalues    EBANDS =    -10815.78601352
  atomic energy  EATOM  =    114020.06510763
  Solvation  Ediel_sol  =         0.00000000
  ---------------------------------------------------
  free energy    TOTEN  =      -326.42291228 eV

  energy without entropy =     -326.42291228  energy(sigma->0) =     -326.42291228


--------------------------------------------------------------------------------------------------------




--------------------------------------- Iteration      1(  16)  ---------------------------------------


    POTLOK:  cpu time    0.4708: real time    0.4727
    SETDIJ:  cpu time    0.0318: real time    0.0319
     EDDAV:  cpu time  990.2889: real time  994.0359
 BZINTS: Fermi energy:  5.016287;688.000000 electrons
         Band energy:***********;  BLOECHL correction:  0.000000
       DOS:  cpu time    0.0072: real time    0.0073
    CHARGE:  cpu time   11.4523: real time   11.4947
    MIXING:  cpu time    0.0108: real time    0.0272
    --------------------------------------------
      LOOP:  cpu time 1002.2619: real time 1006.0696

 eigenvalue-minimisations  : 21760
 total energy-change (2. order) :-0.3709762E-04  (-0.1048102E-04)
 number of electron     687.9999955 magnetization      -0.0000000
 augmentation part      282.2615424 magnetization      -0.0000000

 Broyden mixing:
  rms(total) = 0.21196E-02    rms(broyden)= 0.21193E-02
  rms(prec ) = 0.22415E-02
  weight for this iteration     100.00

 eigenvalues of (default mixing * dielectric matrix)
  average eigenvalue GAMMA=   1.2269
  2.8573  2.2715  1.9948  1.3083  1.3083  0.3293  0.8970  0.5947  0.5947  0.7139
  0.6255

 Free energy of the ion-electron system (eV)
  ---------------------------------------------------
  alpha Z        PSCENC =      2371.28971466
  Ewald energy   TEWEN  =    -62662.44475660
  -Hartree energ DENC   =    -42834.49630314
  -exchange      EXHF   =         0.00000000
  -V(xc)+E(xc)   XCENC  =      3286.52297628
  PAW double counting   =    112149.41106638  -115840.86505135
  entropy T*S    EENTRO =         0.00000000
  eigenvalues    EBANDS =    -10815.90570324
  atomic energy  EATOM  =    114020.06510763
  Solvation  Ediel_sol  =         0.00000000
  ---------------------------------------------------
  free energy    TOTEN  =      -326.42294938 eV

  energy without entropy =     -326.42294938  energy(sigma->0) =     -326.42294938


--------------------------------------------------------------------------------------------------------




--------------------------------------- Iteration      1(  17)  ---------------------------------------


    POTLOK:  cpu time    0.6336: real time    0.6360
    SETDIJ:  cpu time    0.0327: real time    0.0328
     EDDAV:  cpu time  869.3277: real time  872.5949
 BZINTS: Fermi energy:  5.015566;688.000000 electrons
         Band energy:***********;  BLOECHL correction:  0.000000
       DOS:  cpu time    0.0084: real time    0.0087
    CHARGE:  cpu time    6.6875: real time    6.7142
    MIXING:  cpu time    0.0134: real time    0.0135
    --------------------------------------------
      LOOP:  cpu time  876.7034: real time  880.0002

 eigenvalue-minimisations  : 19968
 total energy-change (2. order) :-0.2637395E-04  (-0.1128430E-04)
 number of electron     687.9999955 magnetization      -0.0000000
 augmentation part      282.2616449 magnetization      -0.0000000

 Broyden mixing:
  rms(total) = 0.13143E-02    rms(broyden)= 0.13140E-02
  rms(prec ) = 0.14506E-02
  weight for this iteration     100.00

 eigenvalues of (default mixing * dielectric matrix)
  average eigenvalue GAMMA=   1.3282
  3.7378  2.3180  2.3180  1.5352  1.5352  0.3293  0.9168  0.7631  0.5971  0.5971
  0.6514  0.6398

 Free energy of the ion-electron system (eV)
  ---------------------------------------------------
  alpha Z        PSCENC =      2371.28971466
  Ewald energy   TEWEN  =    -62662.44475660
  -Hartree energ DENC   =    -42834.50834074
  -exchange      EXHF   =         0.00000000
  -V(xc)+E(xc)   XCENC  =      3286.52310504
  PAW double counting   =    112150.01907559  -115841.48392300
  entropy T*S    EENTRO =         0.00000000
  eigenvalues    EBANDS =    -10815.88295832
  atomic energy  EATOM  =    114020.06510763
  Solvation  Ediel_sol  =         0.00000000
  ---------------------------------------------------
  free energy    TOTEN  =      -326.42297576 eV

  energy without entropy =     -326.42297576  energy(sigma->0) =     -326.42297576


--------------------------------------------------------------------------------------------------------




--------------------------------------- Iteration      1(  18)  ---------------------------------------


    POTLOK:  cpu time    0.4764: real time    0.4792
    SETDIJ:  cpu time    0.0336: real time    0.0338
     EDDAV:  cpu time  895.2160: real time  898.5535
 BZINTS: Fermi energy:  5.015123;688.000000 electrons
         Band energy:***********;  BLOECHL correction:  0.000000
       DOS:  cpu time    0.0072: real time    0.0073
    CHARGE:  cpu time    8.4791: real time    8.5109
    MIXING:  cpu time    0.0118: real time    0.0119
    --------------------------------------------
      LOOP:  cpu time  904.2241: real time  907.5965

 eigenvalue-minimisations  : 20992
 total energy-change (2. order) :-0.7630078E-05  (-0.5441317E-05)
 number of electron     687.9999955 magnetization      -0.0000000
 augmentation part      282.2612119 magnetization      -0.0000000

 Broyden mixing:
  rms(total) = 0.59688E-03    rms(broyden)= 0.59649E-03
  rms(prec ) = 0.62735E-03
  weight for this iteration     100.00

 eigenvalues of (default mixing * dielectric matrix)
  average eigenvalue GAMMA=   1.3444
  4.3104  2.3833  2.3833  1.6622  1.1653  1.0379  1.0379  0.3293  0.5971  0.5971
  0.7102  0.6317  0.6317

 Free energy of the ion-electron system (eV)
  ---------------------------------------------------
  alpha Z        PSCENC =      2371.28971466
  Ewald energy   TEWEN  =    -62662.44475660
  -Hartree energ DENC   =    -42834.49666367
  -exchange      EXHF   =         0.00000000
  -V(xc)+E(xc)   XCENC  =      3286.52251034
  PAW double counting   =    112150.85913255  -115842.32232475
  entropy T*S    EENTRO =         0.00000000
  eigenvalues    EBANDS =    -10815.89570354
  atomic energy  EATOM  =    114020.06510763
  Solvation  Ediel_sol  =         0.00000000
  ---------------------------------------------------
  free energy    TOTEN  =      -326.42298339 eV

  energy without entropy =     -326.42298339  energy(sigma->0) =     -326.42298339


--------------------------------------------------------------------------------------------------------




--------------------------------------- Iteration      1(  19)  ---------------------------------------


    POTLOK:  cpu time    0.4834: real time    0.4854
    SETDIJ:  cpu time    0.0323: real time    0.0326
     EDDAV:  cpu time 1029.1670: real time 1032.9859
 BZINTS: Fermi energy:  5.013885;688.000000 electrons
         Band energy:***********;  BLOECHL correction:  0.000000
       DOS:  cpu time    0.0085: real time    0.0085
    CHARGE:  cpu time    6.6944: real time    6.7212
    MIXING:  cpu time    0.0114: real time    0.0115
    --------------------------------------------
      LOOP:  cpu time 1036.3968: real time 1040.2449

 eigenvalue-minimisations  : 23808
 total energy-change (2. order) :-0.9090436E-06  (-0.5850776E-06)
 number of electron     687.9999955 magnetization      -0.0000000
 augmentation part      282.2610791 magnetization      -0.0000000

 Broyden mixing:
[...]
   -.393E+02 0.460E+02 -.256E+01   0.401E+02 -.464E+02 0.259E+01   -.777E+00 0.294E+00 -.334E-01   -.171E-04 0.473E-05 -.583E-06
   -.393E+02 0.460E+02 -.256E+01   0.401E+02 -.464E+02 0.259E+01   -.777E+00 0.294E+00 -.334E-01   -.171E-04 0.473E-05 -.579E-06
   -.393E+02 0.460E+02 -.256E+01   0.401E+02 -.464E+02 0.259E+01   -.777E+00 0.294E+00 -.334E-01   -.171E-04 0.470E-05 -.583E-06
   -.393E+02 0.460E+02 -.256E+01   0.401E+02 -.464E+02 0.259E+01   -.777E+00 0.294E+00 -.334E-01   -.171E-04 0.470E-05 -.579E-06
   0.393E+02 0.460E+02 0.256E+01   -.401E+02 -.464E+02 -.259E+01   0.777E+00 0.294E+00 0.334E-01   0.171E-04 0.472E-05 0.582E-06
   0.393E+02 0.460E+02 0.256E+01   -.401E+02 -.464E+02 -.259E+01   0.777E+00 0.294E+00 0.334E-01   0.171E-04 0.472E-05 0.582E-06
   0.393E+02 0.460E+02 0.256E+01   -.401E+02 -.464E+02 -.259E+01   0.777E+00 0.294E+00 0.334E-01   0.171E-04 0.472E-05 0.580E-06
   0.393E+02 0.460E+02 0.256E+01   -.401E+02 -.464E+02 -.259E+01   0.777E+00 0.294E+00 0.334E-01   0.171E-04 0.472E-05 0.581E-06
   0.870E-09 -.124E+02 0.220E-07   -.284E-13 0.130E+02 0.604E-13   -.905E-25 -.620E+00 0.227E-23   -.448E-09 -.142E-04 -.106E-08
   0.873E-09 -.124E+02 0.220E-07   -.373E-13 0.130E+02 0.995E-13   0.000E+00 -.620E+00 -.134E-23   0.443E-09 -.142E-04 0.105E-08
   0.869E-09 -.124E+02 0.220E-07   -.284E-13 0.130E+02 0.853E-13   0.388E-25 -.620E+00 -.165E-23   -.448E-09 -.142E-04 -.106E-08
   0.870E-09 -.124E+02 0.220E-07   -.107E-13 0.130E+02 0.533E-13   0.452E-25 -.620E+00 0.124E-23   0.443E-09 -.142E-04 0.105E-08
   -.306E-07 0.744E+02 -.208E-06   0.213E-13 -.755E+02 -.160E-13   -.775E-25 0.107E+01 0.414E-24   0.126E-07 0.271E-04 -.786E-09
   -.306E-07 0.744E+02 -.208E-06   0.355E-13 -.755E+02 0.178E-13   0.258E-25 0.107E+01 -.165E-23   -.126E-07 0.271E-04 0.783E-09
   -.306E-07 0.744E+02 -.208E-06   -.142E-13 -.755E+02 -.320E-13   -.414E-24 0.107E+01 -.290E-23   0.126E-07 0.271E-04 -.786E-09
   -.306E-07 0.744E+02 -.208E-06   0.000E+00 -.755E+02 -.568E-13   0.646E-25 0.107E+01 0.227E-23   -.126E-07 0.271E-04 0.784E-09
   0.616E+01 -.416E+02 0.623E+01   -.611E+01 0.400E+02 -.637E+01   -.438E-01 0.163E+01 0.133E+00   0.220E-05 0.507E-05 -.187E-05
   0.616E+01 -.416E+02 0.623E+01   -.611E+01 0.400E+02 -.637E+01   -.438E-01 0.163E+01 0.133E+00   0.215E-05 0.507E-05 -.187E-05
   0.616E+01 -.416E+02 0.623E+01   -.611E+01 0.400E+02 -.637E+01   -.438E-01 0.163E+01 0.133E+00   0.220E-05 0.501E-05 -.187E-05
   0.616E+01 -.416E+02 0.623E+01   -.611E+01 0.400E+02 -.637E+01   -.438E-01 0.163E+01 0.133E+00   0.215E-05 0.501E-05 -.187E-05
   -.616E+01 -.416E+02 -.623E+01   0.611E+01 0.400E+02 0.637E+01   0.438E-01 0.163E+01 -.133E+00   -.215E-05 0.507E-05 0.187E-05
   -.616E+01 -.416E+02 -.623E+01   0.611E+01 0.400E+02 0.637E+01   0.438E-01 0.163E+01 -.133E+00   -.220E-05 0.507E-05 0.187E-05
   -.616E+01 -.416E+02 -.623E+01   0.611E+01 0.400E+02 0.637E+01   0.438E-01 0.163E+01 -.133E+00   -.215E-05 0.501E-05 0.187E-05
   -.616E+01 -.416E+02 -.623E+01   0.611E+01 0.400E+02 0.637E+01   0.438E-01 0.163E+01 -.133E+00   -.220E-05 0.501E-05 0.187E-05
   0.616E+01 -.416E+02 0.623E+01   -.611E+01 0.400E+02 -.637E+01   -.438E-01 0.163E+01 0.133E+00   0.221E-05 0.507E-05 -.187E-05
   0.616E+01 -.416E+02 0.623E+01   -.611E+01 0.400E+02 -.637E+01   -.438E-01 0.163E+01 0.133E+00   0.214E-05 0.507E-05 -.187E-05
   0.616E+01 -.416E+02 0.623E+01   -.611E+01 0.400E+02 -.637E+01   -.438E-01 0.163E+01 0.133E+00   0.221E-05 0.501E-05 -.187E-05
   0.616E+01 -.416E+02 0.623E+01   -.611E+01 0.400E+02 -.637E+01   -.438E-01 0.163E+01 0.133E+00   0.214E-05 0.501E-05 -.187E-05
   -.616E+01 -.416E+02 -.623E+01   0.611E+01 0.400E+02 0.637E+01   0.438E-01 0.163E+01 -.133E+00   -.215E-05 0.507E-05 0.187E-05
   -.616E+01 -.416E+02 -.623E+01   0.611E+01 0.400E+02 0.637E+01   0.438E-01 0.163E+01 -.133E+00   -.220E-05 0.507E-05 0.188E-05
   -.616E+01 -.416E+02 -.623E+01   0.611E+01 0.400E+02 0.637E+01   0.438E-01 0.163E+01 -.133E+00   -.215E-05 0.501E-05 0.186E-05
   -.616E+01 -.416E+02 -.623E+01   0.611E+01 0.400E+02 0.637E+01   0.438E-01 0.163E+01 -.133E+00   -.220E-05 0.501E-05 0.187E-05
   -.120E+02 -.397E+02 0.833E+01   0.118E+02 0.376E+02 -.850E+01   0.182E+00 0.211E+01 0.158E+00   0.448E-05 -.583E-05 0.702E-05
   -.120E+02 -.397E+02 0.833E+01   0.118E+02 0.376E+02 -.850E+01   0.182E+00 0.211E+01 0.158E+00   0.444E-05 -.583E-05 0.702E-05
   -.120E+02 -.397E+02 0.833E+01   0.118E+02 0.376E+02 -.850E+01   0.182E+00 0.211E+01 0.158E+00   0.448E-05 -.588E-05 0.701E-05
   -.120E+02 -.397E+02 0.833E+01   0.118E+02 0.376E+02 -.850E+01   0.182E+00 0.211E+01 0.158E+00   0.444E-05 -.588E-05 0.702E-05
   0.120E+02 -.397E+02 -.833E+01   -.118E+02 0.376E+02 0.850E+01   -.182E+00 0.211E+01 -.158E+00   -.444E-05 -.583E-05 -.702E-05
   0.120E+02 -.397E+02 -.833E+01   -.118E+02 0.376E+02 0.850E+01   -.182E+00 0.211E+01 -.158E+00   -.448E-05 -.583E-05 -.702E-05
   0.120E+02 -.397E+02 -.833E+01   -.118E+02 0.376E+02 0.850E+01   -.182E+00 0.211E+01 -.158E+00   -.444E-05 -.588E-05 -.702E-05
   0.120E+02 -.397E+02 -.833E+01   -.118E+02 0.376E+02 0.850E+01   -.182E+00 0.211E+01 -.158E+00   -.448E-05 -.588E-05 -.701E-05
   -.120E+02 -.397E+02 0.833E+01   0.118E+02 0.376E+02 -.850E+01   0.182E+00 0.211E+01 0.158E+00   0.448E-05 -.583E-05 0.701E-05
   -.120E+02 -.397E+02 0.833E+01   0.118E+02 0.376E+02 -.850E+01   0.182E+00 0.211E+01 0.158E+00   0.444E-05 -.583E-05 0.702E-05
   -.120E+02 -.397E+02 0.833E+01   0.118E+02 0.376E+02 -.850E+01   0.182E+00 0.211E+01 0.158E+00   0.448E-05 -.587E-05 0.701E-05
   -.120E+02 -.397E+02 0.833E+01   0.118E+02 0.376E+02 -.850E+01   0.182E+00 0.211E+01 0.158E+00   0.444E-05 -.587E-05 0.702E-05
   0.120E+02 -.397E+02 -.833E+01   -.118E+02 0.376E+02 0.850E+01   -.182E+00 0.211E+01 -.158E+00   -.443E-05 -.583E-05 -.702E-05
   0.120E+02 -.397E+02 -.833E+01   -.118E+02 0.376E+02 0.850E+01   -.182E+00 0.211E+01 -.158E+00   -.448E-05 -.583E-05 -.702E-05
   0.120E+02 -.397E+02 -.833E+01   -.118E+02 0.376E+02 0.850E+01   -.182E+00 0.211E+01 -.158E+00   -.444E-05 -.587E-05 -.701E-05
   0.120E+02 -.397E+02 -.833E+01   -.118E+02 0.376E+02 0.850E+01   -.182E+00 0.211E+01 -.158E+00   -.448E-05 -.587E-05 -.702E-05
 -----------------------------------------------------------------------------------------------
   0.135E-04 -.682E+02 0.333E-03   -.346E-12 -.647E-12 -.441E-12   -.583E-15 0.682E+02 -.194E-15   -.679E-11 0.165E-03 0.149E-10
 
 
 POSITION                                       TOTAL-FORCE (eV/Angst)
 -----------------------------------------------------------------------------------
      1.41113      1.23007      1.39399         0.000079     -0.014067      0.002972
      6.65613      1.23007      1.72402         0.000079     -0.014067      0.002972
      1.41113      6.49840      1.39399         0.000079     -0.014067      0.002972
      6.65613      6.49840      1.72402         0.000079     -0.014067      0.002972
      3.99724      3.86423      1.53233        -0.000079     -0.014067     -0.002972
      9.24224      3.86423      1.86236        -0.000079     -0.014067     -0.002972
      3.99724      9.13256      1.53233        -0.000079     -0.014067     -0.002972
      9.24224      9.13256      1.86236        -0.000079     -0.014067     -0.002972
      1.88303      3.89553      9.16954         0.000000     -0.007801     -0.000000
      7.12803      3.89553      9.49956        -0.000000     -0.007801     -0.000000
      1.88303      9.16385      9.16954         0.000000     -0.007801     -0.000000
      7.12803      9.16385      9.49956        -0.000000     -0.007801     -0.000000
      4.50553      1.27261      9.33455        -0.000000     -0.006064     -0.000000
      9.75053      1.27261      9.66458        -0.000000     -0.006064     -0.000000
      4.50553      6.54093      9.33455         0.000000     -0.006064     -0.000000
      9.75053      6.54093      9.66458        -0.000000     -0.006064     -0.000000
      1.70147      1.23007      6.55990        -0.000079     -0.014067     -0.002972
      6.94647      1.23007      6.88993        -0.000079     -0.014067     -0.002972
      1.70147      6.49840      6.55990        -0.000079     -0.014067     -0.002972
      6.94647      6.49840      6.88993        -0.000079     -0.014067     -0.002972
      4.36036      3.86423      6.75160         0.000079     -0.014067      0.002972
      9.60535      3.86423      7.08162         0.000079     -0.014067      0.002972
      4.36036      9.13256      6.75160         0.000079     -0.014067      0.002972
      9.60535      9.13256      7.08162         0.000079     -0.014067      0.002972
      4.17880      1.26136      4.14196        -0.000000     -0.007801     -0.000000
      9.42380      1.26136      4.47199        -0.000000     -0.007801     -0.000000
      4.17880      6.52969      4.14196        -0.000000     -0.007801     -0.000000
      9.42380      6.52969      4.47199         0.000000     -0.007801     -0.000000
      1.55630      3.90677      3.97695         0.000000     -0.006064     -0.000000
      6.80130      3.90677      4.30698        -0.000000     -0.006064     -0.000000
      1.55630      9.17510      3.97695        -0.000000     -0.006064     -0.000000
      6.80130      9.17510      4.30698         0.000000     -0.006064     -0.000000
     10.78137      0.06887      5.85073         0.003609      0.010197     -0.006848
      5.53638      0.06887      5.52070         0.003609      0.010197     -0.006848
     10.78137      5.33719      5.85073         0.003609      0.010197     -0.006848
      5.53638      5.33719      5.52070         0.003609      0.010197     -0.006848
      2.82122      0.06887      2.76322        -0.003609      0.010197      0.006848
      8.06622      0.06887      3.09325        -0.003609      0.010197      0.006848
      2.82122      5.33719      2.76322        -0.003609      0.010197      0.006848
      8.06622      5.33719      3.09325        -0.003609      0.010197      0.006848
      2.58715      2.70303      0.16310         0.003609      0.010197     -0.006848
      7.83215      2.70303      0.49313         0.003609      0.010197     -0.006848
      2.58715      7.97136      0.16310         0.003609      0.010197     -0.006848
      7.83215      7.97136      0.49313         0.003609      0.010197     -0.006848
      0.52545      2.70303      7.79080        -0.003609      0.010197      0.006848
      5.77045      2.70303      8.12082        -0.003609      0.010197      0.006848
      0.52545      7.97136      7.79080        -0.003609      0.010197      0.006848
      5.77045      7.97136      8.12082        -0.003609      0.010197      0.006848
     10.46882      0.06825      0.67328         0.008137      0.010802     -0.019773
      5.22383      0.06825      0.34325         0.008137      0.010802     -0.019773
     10.46882      5.33657      0.67328         0.008137      0.010802     -0.019773
      5.22383      5.33657      0.34325         0.008137      0.010802     -0.019773
      3.13377      0.06825      7.94067        -0.008137      0.010802      0.019773
      8.37877      0.06825      8.27070        -0.008137      0.010802      0.019773
      3.13377      5.33657      7.94067        -0.008137      0.010802      0.019773
      8.37877      5.33657      8.27070        -0.008137      0.010802      0.019773
      2.92806      2.70241      5.37082         0.008137      0.010802     -0.019773
      8.17306      2.70241      5.70085         0.008137      0.010802     -0.019773
      2.92806      7.97074      5.37082         0.008137      0.010802     -0.019773
      8.17306      7.97074      5.70085         0.008137      0.010802     -0.019773
      0.18454      2.70241      2.58307        -0.008137      0.010802      0.019773
      5.42954      2.70241      2.91310        -0.008137      0.010802      0.019773
      0.18454      7.97074      2.58307        -0.008137      0.010802      0.019773
      5.42954      7.97074      2.91310        -0.008137      0.010802      0.019773
 -----------------------------------------------------------------------------------
    total drift:                                0.000013     -0.034526      0.000333


--------------------------------------------------------------------------------------------------------



  FREE ENERGIE OF THE ION-ELECTRON SYSTEM (eV)
  ---------------------------------------------------
  free  energy   TOTEN  =      -326.42298478 eV

  energy  without entropy=     -326.42298478  energy(sigma->0) =     -326.42298478
 


--------------------------------------------------------------------------------------------------------


    POTLOK:  cpu time    0.5229: real time    0.5258


--------------------------------------------------------------------------------------------------------


 writing wavefunctions
     LOOP+:  cpu time24260.8117: real time24354.0315
    4ORBIT:  cpu time    0.0000: real time    0.0000
 


 total charge     
 
# of ion       s       p       d       tot
------------------------------------------
    1        1.316   2.405   0.000   3.721
    2        1.316   2.405   0.000   3.721
    3        1.316   2.405   0.000   3.721
    4        1.316   2.405   0.000   3.721
    5        1.316   2.405   0.000   3.721
    6        1.316   2.405   0.000   3.721
    7        1.316   2.405   0.000   3.721
    8        1.316   2.405   0.000   3.721
    9        1.317   2.398   0.000   3.715
   10        1.317   2.398   0.000   3.715
   11        1.317   2.398   0.000   3.715
   12        1.317   2.398   0.000   3.715
   13        1.313   2.411   0.000   3.723
   14        1.313   2.411   0.000   3.723
   15        1.313   2.411   0.000   3.723
   16        1.313   2.411   0.000   3.723
   17        1.316   2.405   0.000   3.721
   18        1.316   2.405   0.000   3.721
   19        1.316   2.405   0.000   3.721
   20        1.316   2.405   0.000   3.721
   21        1.316   2.405   0.000   3.721
   22        1.316   2.405   0.000   3.721
   23        1.316   2.405   0.000   3.721
   24        1.316   2.405   0.000   3.721
   25        1.317   2.398   0.000   3.715
   26        1.317   2.398   0.000   3.715
   27        1.317   2.398   0.000   3.715
   28        1.317   2.398   0.000   3.715
   29        1.313   2.411   0.000   3.723
   30        1.313   2.411   0.000   3.723
   31        1.313   2.411   0.000   3.723
   32        1.313   2.411   0.000   3.723
   33        0.258   6.200   8.917  15.375
   34        0.258   6.200   8.917  15.375
   35        0.258   6.200   8.917  15.375
   36        0.258   6.200   8.917  15.375
   37        0.258   6.200   8.917  15.375
   38        0.258   6.200   8.917  15.375
   39        0.258   6.200   8.917  15.375
   40        0.258   6.200   8.917  15.375
   41        0.258   6.200   8.917  15.375
   42        0.258   6.200   8.917  15.375
   43        0.258   6.200   8.917  15.375
   44        0.258   6.200   8.917  15.375
   45        0.258   6.200   8.917  15.375
   46        0.258   6.200   8.917  15.375
   47        0.258   6.200   8.917  15.375
   48        0.258   6.200   8.917  15.375
   49        0.347   6.346   5.826  12.519
   50        0.347   6.346   5.826  12.519
   51        0.347   6.346   5.826  12.519
   52        0.347   6.346   5.826  12.519
   53        0.347   6.346   5.826  12.519
   54        0.347   6.346   5.826  12.519
   55        0.347   6.346   5.826  12.519
   56        0.347   6.346   5.826  12.519
   57        0.347   6.346   5.826  12.519
   58        0.347   6.346   5.826  12.519
   59        0.347   6.346   5.826  12.519
   60        0.347   6.346   5.826  12.519
   61        0.347   6.346   5.826  12.519
   62        0.347   6.346   5.826  12.519
   63        0.347   6.346   5.826  12.519
   64        0.347   6.346   5.826  12.519
--------------------------------------------------
tot         51.760 277.685 235.886 565.331
 


 magnetization (x)
 
# of ion       s       p       d       tot
------------------------------------------
    1       -0.000  -0.031   0.000  -0.031
    2       -0.000  -0.031   0.000  -0.031
    3       -0.000  -0.031   0.000  -0.031
    4       -0.000  -0.031   0.000  -0.031
    5        0.000   0.031   0.000   0.031
    6        0.000   0.031   0.000   0.031
    7        0.000   0.031   0.000   0.031
    8        0.000   0.031   0.000   0.031
    9        0.000   0.000   0.000   0.000
   10        0.000  -0.000   0.000  -0.000
   11        0.000   0.000   0.000   0.000
   12        0.000  -0.000   0.000  -0.000
   13       -0.000   0.000   0.000   0.000
   14       -0.000   0.000   0.000   0.000
   15        0.000   0.000   0.000   0.000
   16       -0.000   0.000   0.000   0.000
   17        0.000   0.031   0.000   0.031
   18        0.000   0.031   0.000   0.031
   19        0.000   0.031   0.000   0.031
   20        0.000   0.031   0.000   0.031
   21       -0.000  -0.031   0.000  -0.031
   22       -0.000  -0.031   0.000  -0.031
   23       -0.000  -0.031   0.000  -0.031
   24       -0.000  -0.031   0.000  -0.031
   25        0.000   0.000   0.000   0.000
   26        0.000   0.000   0.000   0.000
   27        0.000   0.000   0.000   0.000
   28        0.000   0.000   0.000   0.000
   29        0.000  -0.000   0.000  -0.000
   30       -0.000   0.000   0.000   0.000
   31        0.000  -0.000   0.000  -0.000
   32       -0.000   0.000   0.000   0.000
   33        0.000   0.001  -0.005  -0.004
   34        0.000   0.001  -0.005  -0.004
   35        0.000   0.001  -0.005  -0.004
   36        0.000   0.001  -0.005  -0.004
   37       -0.000  -0.001   0.005   0.004
   38       -0.000  -0.001   0.005   0.004
   39       -0.000  -0.001   0.005   0.004
   40       -0.000  -0.001   0.005   0.004
   41        0.000   0.001  -0.005  -0.004
   42        0.000   0.001  -0.005  -0.004
   43        0.000   0.001  -0.005  -0.004
   44        0.000   0.001  -0.005  -0.004
   45       -0.000  -0.001   0.005   0.004
   46       -0.000  -0.001   0.005   0.004
   47       -0.000  -0.001   0.005   0.004
   48       -0.000  -0.001   0.005   0.004
   49        0.020   0.054   3.662   3.736
   50        0.020   0.054   3.662   3.736
   51        0.020   0.054   3.662   3.736
   52        0.020   0.054   3.662   3.736
   53       -0.020  -0.054  -3.662  -3.736
   54       -0.020  -0.054  -3.662  -3.736
   55       -0.020  -0.054  -3.662  -3.736
   56       -0.020  -0.054  -3.662  -3.736
   57        0.020   0.054   3.662   3.736
   58        0.020   0.054   3.662   3.736
   59        0.020   0.054   3.662   3.736
   60        0.020   0.054   3.662   3.736
   61       -0.020  -0.054  -3.662  -3.736
   62       -0.020  -0.054  -3.662  -3.736
   63       -0.020  -0.054  -3.662  -3.736
   64       -0.020  -0.054  -3.662  -3.736
--------------------------------------------------
tot         -0.000   0.000   0.000   0.000
 
 BZINTS: Fermi energy:  5.009845;688.000000 electrons
         Band energy:***********;  BLOECHL correction:  0.000000

 total amount of memory used by VASP MPI-rank0   348353. kBytes
=======================================================================

   base      :      30000. kBytes
   nonl-proj :     216760. kBytes
   fftplans  :       4588. kBytes
   grid      :      69719. kBytes
   one-center:       1990. kBytes
   wavefun   :      25296. kBytes
 
  
  
 General timing and accounting informations for this job:
 ========================================================
  
                  Total CPU time used (sec):    24472.814
                            User time (sec):    24460.365
                          System time (sec):       12.449
                         Elapsed time (sec):    24575.760
  
                   Maximum memory used (kb):      717772.
                   Average memory used (kb):           0.
  
                          Minor page faults:      1460479
                          Major page faults:         6582
                 Voluntary context switches:         8378
