       N       E                     dE             d eps       ncg     rms          rms(c)
DAV:   1     0.603089412314E+04    0.60309E+04   -0.51824E+05 12288   0.197E+03
DAV:   2    -0.986342926625E+02   -0.61295E+04   -0.60222E+04 13568   0.447E+02
DAV:   3    -0.346507300131E+03   -0.24787E+03   -0.24704E+03 16896   0.976E+01
DAV:   4    -0.349939102203E+03   -0.34318E+01   -0.34316E+01 14848   0.116E+01
DAV:   5    -0.350043586482E+03   -0.10448E+00   -0.10448E+00 15872   0.198E+00    0.376E+01
DAV:   6    -0.332752689213E+03    0.17291E+02   -0.24768E+01 17408   0.172E+01    0.219E+01
DAV:   7    -0.328224251382E+03    0.45284E+01   -0.11950E+01 15104   0.112E+01    0.159E+01
DAV:   8    -0.327045328879E+03    0.11789E+01   -0.44780E+00 18688   0.434E+00    0.610E+00
DAV:   9    -0.326949331601E+03    0.95997E-01   -0.20717E+00 16640   0.334E+00    0.449E+00
DAV:  10    -0.326944239032E+03    0.50926E-02   -0.13508E+00 16640   0.348E+00    0.310E+00
DAV:  11    -0.326936053678E+03    0.81854E-02   -0.62154E-01 14592   0.210E+00    0.132E+00
DAV:  12    -0.326941852723E+03   -0.57990E-02   -0.88998E-02 19200   0.703E-01    0.422E-01
DAV:  13    -0.326944571968E+03   -0.27192E-02   -0.74016E-03 14848   0.114E-01    0.231E-01
DAV:  14    -0.326945745812E+03   -0.11738E-02   -0.30490E-03 16384   0.603E-02    0.124E-01
DAV:  15    -0.326946284728E+03   -0.53892E-03   -0.11995E-03 15616   0.375E-02    0.675E-02
DAV:  16    -0.326946474495E+03   -0.18977E-03   -0.51003E-04 16896   0.306E-02    0.406E-02
DAV:  17    -0.326946571889E+03   -0.97394E-04   -0.42113E-04 14336   0.176E-02    0.204E-02
DAV:  18    -0.326946591698E+03   -0.19809E-04   -0.10565E-04 15616   0.968E-03    0.953E-03
DAV:  19    -0.326946593856E+03   -0.21583E-05   -0.95317E-06 14848   0.426E-03    0.660E-03
DAV:  20    -0.326946594514E+03   -0.65778E-06   -0.36410E-06 16896   0.205E-03    0.281E-03
DAV:  21    -0.326946594756E+03   -0.24184E-06   -0.90175E-07 15104   0.112E-03    0.126E-03
DAV:  22    -0.326946594837E+03   -0.80865E-07   -0.76435E-08 16384   0.428E-04    0.949E-04
DAV:  23    -0.326946594866E+03   -0.29147E-07   -0.31979E-08 12544   0.198E-04    0.354E-04
DAV:  24    -0.326946594870E+03   -0.39872E-08   -0.12921E-08  9472   0.137E-04
   1 F= -.32694659E+03 E0= -.32694659E+03  d E =0.000000E+00  mag=     0.0000
