 vasp.5.4.4.18Apr17-6-g9f103f2a35 (build Oct 30 2023 17:30:16) complex          
  
 executed on             LinuxIFC date 2024.06.29  18:25:51
 running on  256 total cores
 distrk:  each k-point on  256 cores,    1 groups
 distr:  one band on NCORES_PER_BAND=   1 cores,  256 groups


--------------------------------------------------------------------------------------------------------


 INCAR:
 POTCAR:    PAW_PBE S 06Sep2000                   
 POTCAR:     PAW_PBE Cu_pv 06Sep2000              
 POTCAR:     PAW_PBE Fe_pv 02Aug2007              

 ----------------------------------------------------------------------------- 
|                                                                             |
|           W    W    AA    RRRRR   N    N  II  N    N   GGGG   !!!           |
|           W    W   A  A   R    R  NN   N  II  NN   N  G    G  !!!           |
|           W    W  A    A  R    R  N N  N  II  N N  N  G       !!!           |
|           W WW W  AAAAAA  RRRRR   N  N N  II  N  N N  G  GGG   !            |
|           WW  WW  A    A  R   R   N   NN  II  N   NN  G    G                |
|           W    W  A    A  R    R  N    N  II  N    N   GGGG   !!!           |
|                                                                             |
|      For optimal performance we recommend to set                            |
|        NCORE= 4 - approx SQRT( number of cores)                             |
|      NCORE specifies how many cores store one orbital (NPAR=cpu/NCORE).     |
|      This setting can  greatly improve the performance of VASP for DFT.     |
|      The default,   NCORE=1            might be grossly inefficient         |
|      on modern multi-core architectures or massively parallel machines.     |
|      Do your own testing !!!!                                               |
|      Unfortunately you need to use the default for GW and RPA calculations. |
|      (for HF NCORE is supported but not extensively tested yet)             |
|                                                                             |
 ----------------------------------------------------------------------------- 

 POTCAR:    PAW_PBE S 06Sep2000                   
   SHA256 =  0fc7481fb0695f01bdc6462160264c5c84044ae9ec85a907d398b887a2bc3132 S/
   COPYR  = (c) Copyright 06Sep2000 Georg Kresse                                
   COPYR  = This file is part of the software VASP. Any use, copying, and all ot
   COPYR  = If you do not have a valid VASP license, you may not use, copy or di
   VRHFIN =S : s2p4                                                             
   LEXCH  = PE                                                                  
   EATOM  =   276.8230 eV,   20.3459 Ry                                         
                                                                                
   TITEL  = PAW_PBE S 06Sep2000                                                 
   LULTRA =        F    use ultrasoft PP ?                                      
   IUNSCR =        1    unscreen: 0-lin 1-nonlin 2-no                           
   RPACOR =    1.500    partial core radius                                     
   POMASS =   32.066; ZVAL   =    6.000    mass and valenz                      
   RCORE  =    1.900    outmost cutoff radius                                   
   RWIGS  =    2.200; RWIGS  =    1.164    wigner-seitz radius (au A)           
   ENMAX  =  258.689; ENMIN  =  194.016 eV                                      
   ICORE  =        2    local potential                                         
   LCOR   =        T    correct aug charges                                     
   LPAW   =        T    paw PP                                                  
   EAUG   =  335.092                                                            
   DEXC   =    0.000                                                            
   RMAX   =    1.942    core radius for proj-oper                               
   RAUG   =    1.300    factor for augmentation sphere                          
   RDEP   =    1.954    radius for radial grids                                 
   RDEPT  =    1.744    core radius for aug-charge                              
                                                                                
   Atomic configuration                                                         
    6 entries                                                                   
     n  l   j            E        occ.                                          
     1  0  0.50     -2405.8406   2.0000                                         
     2  0  0.50      -211.7007   2.0000                                         
     2  1  1.50      -156.4958   6.0000                                         
     3  0  0.50       -17.2562   2.0000                                         
     3  1  0.50        -7.0085   4.0000                                         
     3  2  1.50        -6.8029   0.0000                                         
   Description                                                                  
     l       E           TYP  RCUT    TYP  RCUT                                 
     0    -17.2561641     23  1.900                                             
     0    -15.8743224     23  1.900                                             
     1     -7.0085400     23  1.900                                             
     1     -2.7779785     23  1.900                                             
     2     -6.8029130     23  1.900                                             
  local pseudopotential read in
  partial core-charges read in
  partial kinetic energy density read in
  atomic valenz-charges read in
  non local Contribution for L=           0  read in
    real space projection operators read in
  non local Contribution for L=           0  read in
    real space projection operators read in
  non local Contribution for L=           1  read in
    real space projection operators read in
  non local Contribution for L=           1  read in
    real space projection operators read in
    PAW grid and wavefunctions read in
 
   number of l-projection  operators is LMAX  =           4
   number of lm-projection operators is LMMAX =           8
 
 POTCAR:     PAW_PBE Cu_pv 06Sep2000              
   SHA256 =  cb7b504e2ea725fe1f25c85a9ac77d4012ce94cd394135b722c4e25ec297f1cb Cu
   COPYR  = (c) Copyright 06Sep2000 Georg Kresse                                
   COPYR  = This file is part of the software VASP. Any use, copying, and all ot
   COPYR  = If you do not have a valid VASP license, you may not use, copy or di
   VRHFIN =Cu: d10 p1                                                           
   LEXCH  = PE                                                                  
   EATOM  =  4120.1201 eV,  302.8203 Ry                                         
                                                                                
   TITEL  = PAW_PBE Cu_pv 06Sep2000                                             
   LULTRA =        F    use ultrasoft PP ?                                      
   IUNSCR =        1    unscreen: 0-lin 1-nonlin 2-no                           
   RPACOR =    1.500    partial core radius                                     
   POMASS =   63.546; ZVAL   =   17.000    mass and valenz                      
   RCORE  =    2.000    outmost cutoff radius                                   
   RWIGS  =    2.000; RWIGS  =    1.058    wigner-seitz radius (au A)           
   ENMAX  =  368.648; ENMIN  =  276.486 eV                                      
   RCLOC  =    1.304    cutoff for local pot                                    
   LCOR   =        T    correct aug charges                                     
   LPAW   =        T    paw PP                                                  
   EAUG   =  758.233                                                            
   DEXC   =    0.000                                                            
   RMAX   =    2.046    core radius for proj-oper                               
   RAUG   =    1.300    factor for augmentation sphere                          
   RDEP   =    2.025    radius for radial grids                                 
   RDEPT  =    1.558    core radius for aug-charge                              
                                                                                
   Atomic configuration                                                         
    8 entries                                                                   
     n  l   j            E        occ.                                          
     1  0  0.50     -8850.2467   2.0000                                         
     2  0  0.50     -1062.3498   2.0000                                         
     2  1  1.50      -916.8226   6.0000                                         
     3  0  0.50      -114.6929   2.0000                                         
     3  1  1.50       -72.1325   6.0000                                         
     3  2  2.50        -5.0394  10.0000                                         
     4  0  0.50        -4.6097   1.0000                                         
     4  3  2.50        -1.3606   0.0000                                         
   Description                                                                  
     l       E           TYP  RCUT    TYP  RCUT                                 
     1    -72.1324777     23  1.700                                             
     1     -1.3605826     23  1.700                                             
     2     -5.0393776     23  2.000                                             
     2     -6.3999602     23  2.000                                             
     0     -4.6097062     23  1.800                                             
     0     14.1620818     23  1.800                                             
  local pseudopotential read in
  partial core-charges read in
  partial kinetic energy density read in
  atomic valenz-charges read in
  non local Contribution for L=           1  read in
    real space projection operators read in
  non local Contribution for L=           1  read in
    real space projection operators read in
  non local Contribution for L=           2  read in
    real space projection operators read in
  non local Contribution for L=           2  read in
    real space projection operators read in
  non local Contribution for L=           0  read in
    real space projection operators read in
  non local Contribution for L=           0  read in
    real space projection operators read in
    PAW grid and wavefunctions read in
 
   number of l-projection  operators is LMAX  =           6
   number of lm-projection operators is LMMAX =          18
 
 POTCAR:     PAW_PBE Fe_pv 02Aug2007              
   SHA256 =  5d22e414b1f82158bf2c7ecb8b97b28fd0923e48cadc1c3bf74d524558f5dd32 Fe
   COPYR  = (c) Copyright 02Aug2007 Georg Kresse                                
   COPYR  = This file is part of the software VASP. Any use, copying, and all ot
   COPYR  = If you do not have a valid VASP license, you may not use, copy or di
   VRHFIN =Fe:  3pd7s1                                                          
   LEXCH  = PE                                                                  
   EATOM  =  2457.4239 eV,  180.6156 Ry                                         
                                                                                
   TITEL  = PAW_PBE Fe_pv 02Aug2007                                             
   LULTRA =        F    use ultrasoft PP ?                                      
   IUNSCR =        1    unscreen: 0-lin 1-nonlin 2-no                           
   RPACOR =    1.750    partial core radius                                     
   POMASS =   55.847; ZVAL   =   14.000    mass and valenz                      
   RCORE  =    2.200    outmost cutoff radius                                   
   RWIGS  =    2.200; RWIGS  =    1.164    wigner-seitz radius (au A)           
   ENMAX  =  293.238; ENMIN  =  219.928 eV                                      
   ICORE  =        3    local potential                                         
   LCOR   =        T    correct aug charges                                     
   LPAW   =        T    paw PP                                                  
   EAUG   =  578.342                                                            
   DEXC   =    0.000                                                            
   RMAX   =    2.249    core radius for proj-oper                               
   RAUG   =    1.300    factor for augmentation sphere                          
   RDEP   =    2.296    radius for radial grids                                 
   RDEPT  =    1.766    core radius for aug-charge                              
                                                                                
   Atomic configuration                                                         
    8 entries                                                                   
     n  l   j            E        occ.                                          
     1  0  0.50     -6993.8440   2.0000                                         
     2  0  0.50      -814.6047   2.0000                                         
     2  1  1.50      -693.3689   6.0000                                         
     3  0  0.50       -89.4732   2.0000                                         
     3  1  1.50       -55.6373   6.0000                                         
     3  2  2.50        -3.8151   7.0000                                         
     4  0  0.50        -4.2551   1.0000                                         
     4  3  2.50        -1.3606   0.0000                                         
   Description                                                                  
     l       E           TYP  RCUT    TYP  RCUT                                 
     1    -55.6372668     23  2.000                                             
     1     -5.4423304     23  2.000                                             
     2     -3.8151096     23  2.200                                             
     2     -5.1756922     23  2.200                                             
     0     -4.2550951     23  2.200                                             
     0     27.2116520     23  2.200                                             
     3     -1.3605826     23  2.200                                             
  local pseudopotential read in
  partial core-charges read in
  partial kinetic energy density read in
  atomic valenz-charges read in
  non local Contribution for L=           1  read in
    real space projection operators read in
  non local Contribution for L=           1  read in
    real space projection operators read in
  non local Contribution for L=           2  read in
    real space projection operators read in
  non local Contribution for L=           2  read in
    real space projection operators read in
  non local Contribution for L=           0  read in
    real space projection operators read in
  non local Contribution for L=           0  read in
    real space projection operators read in
    PAW grid and wavefunctions read in
 
   number of l-projection  operators is LMAX  =           6
   number of lm-projection operators is LMMAX =          18
 

 ----------------------------------------------------------------------------- 
|                                                                             |
|  ADVICE TO THIS USER RUNNING 'VASP/VAMP'   (HEAR YOUR MASTER'S VOICE ...):  |
|                                                                             |
|      You have a (more or less) 'large supercell' and for larger cells       |
|      it might be more efficient to use real space projection opertators     |
|      So try LREAL= Auto  in the INCAR   file.                               |
|      Mind:          For very  accurate calculation you might also keep the  |
|      reciprocal projection scheme          (i.e. LREAL=.FALSE.)             |
|                                                                             |
 ----------------------------------------------------------------------------- 


 ----------------------------------------------------------------------------- 
|                                                                             |
|  ADVICE TO THIS USER RUNNING 'VASP/VAMP'   (HEAR YOUR MASTER'S VOICE ...):  |
|                                                                             |
|      You enforced a specific xc-type in the INCAR file,                     |
|      a different type was found on the POTCAR file                          |
|          I HOPE YOU KNOW, WHAT YOU ARE  DOING                               |
|                                                                             |
 ----------------------------------------------------------------------------- 

  PAW_PBE S 06Sep2000                   :
 energy of atom  1       EATOM= -276.8230
 kinetic energy error for atom=    0.0007 (will be added to EATOM!!)
   PAW_PBE Cu_pv 06Sep2000              :
 energy of atom  2       EATOM=-4120.1201
 kinetic energy error for atom=    0.0094 (will be added to EATOM!!)
   PAW_PBE Fe_pv 02Aug2007              :
 energy of atom  3       EATOM=-2457.4239
 kinetic energy error for atom=    0.0025 (will be added to EATOM!!)
 
 
 POSCAR: Fe16 Cu16 S32                           
  positions in direct lattice
  No initial velocities read in
 exchange correlation table for  LEXCH =       14
   RHO(1)=    0.500       N(1)  =     2000
   RHO(2)=  100.500       N(2)  =     4000
 


--------------------------------------------------------------------------------------------------------


 ion  position               nearest neighbor table
   1  0.126  0.126  0.119-  37 2.25  61 2.27  41 2.28  49 2.29
   2  0.626  0.126  0.119-  38 2.25  62 2.27  42 2.28  50 2.29
   3  0.126  0.626  0.119-  39 2.25  63 2.27  43 2.28  51 2.29
   4  0.626  0.626  0.119-  40 2.25  64 2.27  44 2.28  52 2.29
   5  0.374  0.374  0.119-  39 2.25  62 2.27  41 2.28  52 2.29
   6  0.874  0.374  0.119-  40 2.25  61 2.27  42 2.28  51 2.29
   7  0.374  0.874  0.119-  37 2.25  64 2.27  43 2.28  50 2.29
   8  0.874  0.874  0.119-  38 2.25  63 2.27  44 2.28  49 2.29
   9  0.124  0.374  0.869-  41 2.25  51 2.27  45 2.28  55 2.29
  10  0.624  0.374  0.869-  42 2.25  52 2.27  46 2.28  56 2.29
  11  0.124  0.874  0.869-  43 2.25  49 2.27  47 2.28  53 2.29
  12  0.624  0.874  0.869-  44 2.25  50 2.27  48 2.28  54 2.29
  13  0.376  0.126  0.869-  41 2.25  50 2.27  46 2.28  53 2.29
  14  0.876  0.126  0.869-  42 2.25  49 2.27  45 2.28  54 2.29
  15  0.376  0.626  0.869-  43 2.25  52 2.27  48 2.28  55 2.29
  16  0.876  0.626  0.869-  44 2.25  51 2.27  47 2.28  56 2.29
  17  0.124  0.124  0.619-  45 2.25  53 2.27  33 2.28  57 2.29
  18  0.624  0.124  0.619-  46 2.25  54 2.27  34 2.28  58 2.29
  19  0.124  0.624  0.619-  47 2.25  55 2.27  35 2.28  59 2.29
  20  0.624  0.624  0.619-  48 2.25  56 2.27  36 2.28  60 2.29
  21  0.376  0.376  0.619-  46 2.25  55 2.27  36 2.28  57 2.29
  22  0.876  0.376  0.619-  45 2.25  56 2.27  35 2.28  58 2.29
  23  0.376  0.876  0.619-  48 2.25  53 2.27  34 2.28  59 2.29
  24  0.876  0.876  0.619-  47 2.25  54 2.27  33 2.28  60 2.29
  25  0.374  0.124  0.369-  34 2.25  57 2.27  37 2.28  62 2.29
  26  0.874  0.124  0.369-  33 2.25  58 2.27  38 2.28  61 2.29
  27  0.374  0.624  0.369-  36 2.25  59 2.27  39 2.28  64 2.29
  28  0.874  0.624  0.369-  35 2.25  60 2.27  40 2.28  63 2.29
  29  0.126  0.376  0.369-  35 2.25  57 2.27  39 2.28  61 2.29
  30  0.626  0.376  0.369-  36 2.25  58 2.27  40 2.28  62 2.29
  31  0.126  0.876  0.369-  33 2.25  59 2.27  37 2.28  63 2.29
  32  0.626  0.876  0.369-  34 2.25  60 2.27  38 2.28  64 2.29
  33  0.000  0.000  0.505-  26 2.25  31 2.25  17 2.28  24 2.28
  34  0.500  0.000  0.505-  25 2.25  32 2.25  18 2.28  23 2.28
  35  0.000  0.500  0.505-  28 2.25  29 2.25  19 2.28  22 2.28
  36  0.500  0.500  0.505-  27 2.25  30 2.25  20 2.28  21 2.28
  37  0.250  0.000  0.255-   1 2.25   7 2.25  25 2.28  31 2.28
  38  0.750  0.000  0.255-   2 2.25   8 2.25  26 2.28  32 2.28
  39  0.250  0.500  0.255-   3 2.25   5 2.25  27 2.28  29 2.28
  40  0.750  0.500  0.255-   4 2.25   6 2.25  28 2.28  30 2.28
  41  0.250  0.250  0.005-   9 2.25  13 2.25   1 2.28   5 2.28
  42  0.750  0.250  0.005-  10 2.25  14 2.25   2 2.28   6 2.28
  43  0.250  0.750  0.005-  11 2.25  15 2.25   3 2.28   7 2.28
  44  0.750  0.750  0.005-  12 2.25  16 2.25   4 2.28   8 2.28
  45  0.000  0.250  0.755-  17 2.25  22 2.25   9 2.28  14 2.28
  46  0.500  0.250  0.755-  18 2.25  21 2.25  10 2.28  13 2.28
  47  0.000  0.750  0.755-  19 2.25  24 2.25  11 2.28  16 2.28
  48  0.500  0.750  0.755-  20 2.25  23 2.25  12 2.28  15 2.28
  49  0.000  0.000  0.006-  11 2.27  14 2.27   1 2.29   8 2.29
  50  0.500  0.000  0.006-  12 2.27  13 2.27   2 2.29   7 2.29
  51  0.000  0.500  0.006-   9 2.27  16 2.27   3 2.29   6 2.29
  52  0.500  0.500  0.006-  10 2.27  15 2.27   4 2.29   5 2.29
  53  0.250  0.000  0.756-  17 2.27  23 2.27  11 2.29  13 2.29
  54  0.750  0.000  0.756-  18 2.27  24 2.27  12 2.29  14 2.29
  55  0.250  0.500  0.756-  19 2.27  21 2.27   9 2.29  15 2.29
  56  0.750  0.500  0.756-  20 2.27  22 2.27  10 2.29  16 2.29
  57  0.250  0.250  0.506-  25 2.27  29 2.27  17 2.29  21 2.29
  58  0.750  0.250  0.506-  26 2.27  30 2.27  18 2.29  22 2.29
  59  0.250  0.750  0.506-  27 2.27  31 2.27  19 2.29  23 2.29
  60  0.750  0.750  0.506-  28 2.27  32 2.27  20 2.29  24 2.29
  61  0.000  0.250  0.256-   1 2.27   6 2.27  26 2.29  29 2.29
  62  0.500  0.250  0.256-   2 2.27   5 2.27  25 2.29  30 2.29
  63  0.000  0.750  0.256-   3 2.27   8 2.27  28 2.29  31 2.29
  64  0.500  0.750  0.256-   4 2.27   7 2.27  27 2.29  32 2.29
 
  LATTYP: Found a base centered orthorhombic cell.
 ALAT       =    14.0601267935
 B/A-ratio  =     1.1106242992
 C/A-ratio  =     0.7421624394
  
  Lattice vectors:
  
 A1 = (  10.4919250000,   0.5499140000,   0.0000000000)
 A2 = (  -0.5499140000, -10.4919250000,   0.0000000000)
 A3 = (   0.0000000000,   0.0000000000, -10.4348980000)


Analysis of symmetry for initial positions (statically):
=====================================================================
 Subroutine PRICEL returns following result:
 
  LATTYP: Found a face centered orthorhombic cell.
 ALAT       =     7.0300633967
 B/A-ratio  =     1.1106242992
 C/A-ratio  =     1.4843248789
  
  Lattice vectors:
  
 A1 = (  -2.7604597500,  -2.7604597500,   5.2174490000)
 A2 = (  -2.4855027500,   2.4855027500,   5.2174490000)
 A3 = (  -5.2459625000,  -0.2749570000,   0.0000000000)
 
   8 primitive cells build up your supercell.
 

 Routine SETGRP: Setting up the symmetry group for a 
 base centered orthorhombic supercell.


 Subroutine GETGRP returns: Found  4 space group operations
 (whereof  2 operations were pure point group operations)
 out of a pool of  8 trial point group operations.


The static configuration has the point symmetry C_2 .
 The point group associated with its full space group is C_2v.


Analysis of symmetry for dynamics (positions and initial velocities):
=====================================================================
 Subroutine PRICEL returns following result:
 
  LATTYP: Found a face centered orthorhombic cell.
 ALAT       =     7.0300633967
 B/A-ratio  =     1.1106242992
 C/A-ratio  =     1.4843248789
  
  Lattice vectors:
  
 A1 = (  -2.7604597500,  -2.7604597500,   5.2174490000)
 A2 = (  -2.4855027500,   2.4855027500,   5.2174490000)
 A3 = (  -5.2459625000,  -0.2749570000,   0.0000000000)
 
   8 primitive cells build up your supercell.
 

 Routine SETGRP: Setting up the symmetry group for a 
 base centered orthorhombic supercell.


 Subroutine GETGRP returns: Found  4 space group operations
 (whereof  2 operations were pure point group operations)
 out of a pool of  8 trial point group operations.


The dynamic configuration has the point symmetry C_2 .
 The point group associated with its full space group is C_2v.


Analysis of structural, dynamic, and magnetic symmetry:
=====================================================================
 Subroutine PRICEL returns following result:
 
  LATTYP: Found a face centered orthorhombic cell.
 ALAT       =     7.0300633967
 B/A-ratio  =     1.1106242992
 C/A-ratio  =     1.4843248789
  
  Lattice vectors:
  
 A1 = (  -2.7604597500,  -2.7604597500,   5.2174490000)
 A2 = (  -2.4855027500,   2.4855027500,   5.2174490000)
 A3 = (  -5.2459625000,  -0.2749570000,   0.0000000000)
 
   8 primitive cells build up your supercell.
 

 Routine SETGRP: Setting up the symmetry group for a 
 base centered orthorhombic supercell.


 Subroutine GETGRP returns: Found  4 space group operations
 (whereof  2 operations were pure point group operations)
 out of a pool of  8 trial point group operations.


The magnetic configuration has the point symmetry C_2 .
 The point group associated with its full space group is C_2v.


 Subroutine INISYM returns: Found  4 space group operations
 (whereof  2 operations are pure point group operations),
 and found     8 'primitive' translations

 
 
 KPOINTS: Automatic mesh                          

Automatic generation of k-mesh.
Space group operators:
 irot       det(A)        alpha          n_x          n_y          n_z        tau_x        tau_y        tau_z
    1     1.000000     0.000001     1.000000     0.000000     0.000000     0.000000     0.000000     0.000000
    2     1.000000   179.999999     0.000000     0.000000     1.000000     0.000000     0.000000     0.000000
    3    -1.000000   180.000000     0.707107     0.707107     0.000000    -0.750000     0.000000     0.750000
    4    -1.000000   180.000000     0.707107    -0.707107     0.000000    -0.750000     0.000000     0.750000
 
 Subroutine IBZKPT returns following result:
 ===========================================
 
 Found      6 irreducible k-points:
 
 Following reciprocal coordinates:
            Coordinates               Weight
  0.000000  0.000000  0.000000      1.000000
  0.500000  0.000000  0.000000      2.000000
  0.500000  0.500000  0.000000      1.000000
  0.000000  0.000000  0.500000      1.000000
  0.500000  0.000000  0.500000      2.000000
  0.500000  0.500000  0.500000      1.000000
 
 Following cartesian coordinates:
            Coordinates               Weight
  0.000000  0.000000  0.000000      1.000000
  0.047787 -0.002505  0.000000      2.000000
  0.045282  0.045282  0.000000      1.000000
  0.000000  0.000000  0.047916      1.000000
  0.047787 -0.002505  0.047916      2.000000
  0.045282  0.045282  0.047916      1.000000
 
 TETIRR: Found     12 inequivalent tetrahedra from       48
 
 Subroutine IBZKPT_HF returns following result:
 ==============================================
 
 Found      8 k-points in 1st BZ
 the following      8 k-points will be used (e.g. in the exchange kernel)
 Following reciprocal coordinates:   # in IRBZ
  0.000000  0.000000  0.000000    0.12500000   1 t-inv F
  0.500000  0.000000  0.000000    0.12500000   2 t-inv F
  0.500000  0.500000  0.000000    0.12500000   3 t-inv F
  0.000000  0.000000  0.500000    0.12500000   4 t-inv F
  0.500000  0.000000  0.500000    0.12500000   5 t-inv F
  0.500000  0.500000  0.500000    0.12500000   6 t-inv F
 -0.000000 -0.500000  0.000000    0.12500000   2 t-inv F spinflp
 -0.000000 -0.500000  0.500000    0.12500000   5 t-inv F spinflp


--------------------------------------------------------------------------------------------------------




 Dimension of arrays:
   k-points           NKPTS =      6   k-points in BZ     NKDIM =      6   number of bands    NBANDS=    512
   number of dos      NEDOS =    301   number of ions     NIONS =     64
   non local maximal  LDIM  =      6   non local SUM 2l+1 LMDIM =     18
   total plane-waves  NPLWV = 829440
   max r-space proj   IRMAX =      1   max aug-charges    IRDMAX=  23009
   dimension x,y,z NGX =    96 NGY =   96 NGZ =   90
   dimension x,y,z NGXF=   192 NGYF=  192 NGZF=  180
   support grid    NGXF=   192 NGYF=  192 NGZF=  180
   ions per type =              32  16  16
   NGX,Y,Z   is equivalent  to a cutoff of  15.19, 15.19, 14.34 a.u.
   NGXF,Y,Z  is equivalent  to a cutoff of  30.38, 30.38, 28.68 a.u.

 SYSTEM =  CuFeS2                                  
 POSCAR =  Fe16 Cu16 S32                           

 Startparameter for this run:
   NWRITE =      2    write-flag & timer
   PREC   = accura    normal or accurate (medium, high low for compatibility)
   ISTART =      0    job   : 0-new  1-cont  2-samecut
   ICHARG =      1    charge: 1-file 2-atom 10-const
   ISPIN  =      2    spin polarized calculation?
   LNONCOLLINEAR =      F non collinear calculations
   LSORBIT =      F    spin-orbit coupling
   INIWAV =      1    electr: 0-lowe 1-rand  2-diag
   LASPH  =      F    aspherical Exc in radial PAW
   METAGGA=      F    non-selfconsistent MetaGGA calc.

 Electronic Relaxation 1
   ENCUT  =  700.0 eV  51.45 Ry    7.17 a.u.  22.67 22.67 22.51*2*pi/ulx,y,z
   ENINI  =  700.0     initial cutoff
   ENAUG  =  758.2 eV  augmentation charge cutoff
   NELM   =    500;   NELMIN=  2; NELMDL=  0     # of ELM steps 
   EDIFF  = 0.1E-07   stopping-criterion for ELM
   LREAL  =      F    real-space projection
   NLSPLINE    = F    spline interpolate recip. space projectors
   LCOMPAT=      F    compatible to vasp.4.4
   GGA_COMPAT  = T    GGA compatible to vasp.4.4-vasp.4.6
   LMAXPAW     = -100 max onsite density
   LMAXMIX     =    4 max onsite mixed and CHGCAR
   VOSKOWN=      0    Vosko Wilk Nusair interpolation
   ROPT   =    0.00000   0.00000   0.00000
 Ionic relaxation
   EDIFFG = -.1E-04   stopping-criterion for IOM
   NSW    =      0    number of steps for IOM
   NBLOCK =      1;   KBLOCK =      1    inner block; outer block 
   IBRION =     -1    ionic relax: 0-MD 1-quasi-New 2-CG
   NFREE  =      0    steps in history (QN), initial steepest desc. (CG)
   ISIF   =      2    stress and relaxation
   IWAVPR =     10    prediction:  0-non 1-charg 2-wave 3-comb
   ISYM   =      2    0-nonsym 1-usesym 2-fastsym
   LCORR  =      T    Harris-Foulkes like correction to forces

   POTIM  = 0.5000    time-step for ionic-motion
   TEIN   =    0.0    initial temperature
   TEBEG  =    0.0;   TEEND  =   0.0 temperature during run
   SMASS  =  -3.00    Nose mass-parameter (am)
   estimated Nose-frequenzy (Omega)   =  0.10E-29 period in steps =****** mass=  -0.252E-26a.u.
   SCALEE = 1.0000    scale energy and forces
   NPACO  =    256;   APACO  = 16.0  distance and # of slots for P.C.
   PSTRESS=    0.0 pullay stress

  Mass of Ions in am
   POMASS =  32.07 63.55 55.85
  Ionic Valenz
   ZVAL   =   6.00 17.00 14.00
  Atomic Wigner-Seitz radii
   RWIGS  =  -1.00 -1.00 -1.00
  virtual crystal weights 
   VCA    =   1.00  1.00  1.00
   NELECT =     688.0000    total number of electrons
   NUPDOWN=      -1.0000    fix difference up-down

 DOS related values:
   EMIN   =  10.00;   EMAX   =-10.00  energy-range for DOS
   EFERMI =   0.00
   ISMEAR =    -5;   SIGMA  =   0.03  broadening in eV -4-tet -1-fermi 0-gaus

 Electronic relaxation 2 (details)
   IALGO  =     38    algorithm
   LDIAG  =      T    sub-space diagonalisation (order eigenvalues)
   LSUBROT=      F    optimize rotation matrix (better conditioning)
   TURBO    =      0    0=normal 1=particle mesh
   IRESTART =      0    0=no restart 2=restart with 2 vectors
   NREBOOT  =      0    no. of reboots
   NMIN     =      0    reboot dimension
   EREF     =   0.00    reference energy to select bands
   IMIX   =      4    mixing-type and parameters
     AMIX     =   0.40;   BMIX     =  1.00
     AMIX_MAG =   1.60;   BMIX_MAG =  1.00
     AMIN     =   0.10
     WC   =   100.;   INIMIX=   1;  MIXPRE=   1;  MAXMIX= -45

 Intra band minimization:
   WEIMIN = 0.0000     energy-eigenvalue tresh-hold
   EBREAK =  0.49E-11  absolut break condition
   DEPER  =   0.30     relativ break condition  

   TIME   =   0.40     timestep for ELM

  volume/ion in A,a.u.               =      17.90       120.79
  Fermi-wavevector in a.u.,A,eV,Ry     =   1.381242  2.610168 25.957586  1.907829
  Thomas-Fermi vector in A             =   2.506044
 
 Write flags
   LWAVE        =      T    write WAVECAR
   LDOWNSAMPLE  =      F    k-point downsampling of WAVECAR
   LCHARG       =      T    write CHGCAR
   LVTOT        =      F    write LOCPOT, total local potential
   LVHAR        =      F    write LOCPOT, Hartree potential only
   LELF         =      F    write electronic localiz. function (ELF)
   LORBIT       =     11    0 simple, 1 ext, 2 COOP (PROOUT), +10 PAW based schemes


 Dipole corrections
   LMONO  =      F    monopole corrections only (constant potential shift)
   LDIPOL =      F    correct potential (dipole corrections)
   IDIPOL =      0    1-x, 2-y, 3-z, 4-all directions 
   EPSILON=  1.0000000 bulk dielectric constant

 LDA+U is selected, type is set to LDAUTYPE =  2
   angular momentum for each species LDAUL =     2    2    2
   U (eV)           for each species LDAUU =   0.0  0.1  4.7
   J (eV)           for each species LDAUJ =   0.0  0.0  0.0
 Exchange correlation treatment:
   GGA     =    PS    GGA type
   LEXCH   =    14    internal setting for exchange type
   VOSKOWN=      0    Vosko Wilk Nusair interpolation
   LHFCALC =     F    Hartree Fock is set to
   LHFONE  =     F    Hartree Fock one center treatment
   AEXX    =    0.0000 exact exchange contribution

 Linear response parameters
   LEPSILON=     F    determine dielectric tensor
   LRPA    =     F    only Hartree local field effects (RPA)
   LNABLA  =     F    use nabla operator in PAW spheres
   LVEL    =     F    velocity operator in full k-point grid
   LINTERFAST=   F  fast interpolation
   KINTER  =     0    interpolate to denser k-point grid
   CSHIFT  =0.1000    complex shift for real part using Kramers Kronig
   OMEGAMAX=  -1.0    maximum frequency
   DEG_THRESHOLD= 0.2000000E-02 threshold for treating states as degnerate
   RTIME   =   -0.100 relaxation time in fs
  (WPLASMAI=    0.000 imaginary part of plasma frequency in eV, 0.658/RTIME)
   DFIELD  = 0.0000000 0.0000000 0.0000000 field for delta impulse in time
 
 Orbital magnetization related:
   ORBITALMAG=     F  switch on orbital magnetization
   LCHIMAG   =     F  perturbation theory with respect to B field
   DQ        =  0.001000  dq finite difference perturbation B field
   LLRAUG    =     F  two centre corrections for induced B field

 PEAD related settings:
   LPEAD      =     T    switch on PEAD
   IPEAD      =     4    finite difference order for dpsi/dk
   LCALCPOL   =     T    calculate macroscopic polarization
   LCALCEPS   =     F    calculate dielectric tensor
   EFIELD_PEAD=    0.0000    0.0000    0.0000
   SKIP_EDOTP =     F
   LRPA       =     F
   SKIP_SCF   =     F


--------------------------------------------------------------------------------------------------------


 Static calculation
 charge density and potential will be updated during run
 spin polarized calculation
 Variant of blocked Davidson
 Davidson routine will perform the subspace rotation
 perform sub-space diagonalisation
    after iterative eigenvector-optimisation
 modified Broyden-mixing scheme, WC =      100.0
 initial mixing is a Kerker type mixing with AMIX =  0.4000 and BMIX =      1.0000
 Hartree-type preconditioning will be used
 using additional bands          168
 reciprocal scheme for non local part
 use partial core corrections
 calculate Harris-corrections to forces 
   (improved forces if not selfconsistent)
 use gradient corrections 
 use of overlap-Matrix (Vanderbilt PP)
 Fermi weights with tetrahedron method with Bloechl corrections


--------------------------------------------------------------------------------------------------------


  energy-cutoff  :      700.00
  volume of cell :     1145.52
      direct lattice vectors                 reciprocal lattice vectors
    10.491925000  0.549914000  0.000000000     0.095573948 -0.005009324  0.000000000
     0.549914000 10.491925000  0.000000000    -0.005009324  0.095573948  0.000000000
     0.000000000  0.000000000 10.434898000     0.000000000  0.000000000  0.095832274

  length of vectors
    10.506326457 10.506326457 10.434898000     0.095705135  0.095705135  0.095832274


 
 k-points in units of 2pi/SCALE and weight: Automatic mesh                          
   0.00000000  0.00000000  0.00000000       0.125
   0.04778697 -0.00250466  0.00000000       0.250
   0.04528231  0.04528231  0.00000000       0.125
   0.00000000  0.00000000  0.04791614       0.125
   0.04778697 -0.00250466  0.04791614       0.250
   0.04528231  0.04528231  0.04791614       0.125
 
 k-points in reciprocal lattice and weights: Automatic mesh                          
   0.00000000  0.00000000  0.00000000       0.125
   0.50000000  0.00000000  0.00000000       0.250
   0.50000000  0.50000000  0.00000000       0.125
   0.00000000  0.00000000  0.50000000       0.125
   0.50000000  0.00000000  0.50000000       0.250
   0.50000000  0.50000000  0.50000000       0.125
 
 position of ions in fractional coordinates (direct lattice) 
   0.12605000  0.12554200  0.11937700
   0.62605000  0.12554200  0.11937700
   0.12605000  0.62554200  0.11937700
   0.62605000  0.62554200  0.11937700
   0.37395000  0.37445800  0.11937700
   0.87395000  0.37445800  0.11937700
   0.37395000  0.87445800  0.11937700
   0.87395000  0.87445800  0.11937700
   0.12445800  0.37395000  0.86937700
   0.62445800  0.37395000  0.86937700
   0.12445800  0.87395000  0.86937700
   0.62445800  0.87395000  0.86937700
   0.37554200  0.12605000  0.86937700
   0.87554200  0.12605000  0.86937700
   0.37554200  0.62605000  0.86937700
   0.87554200  0.62605000  0.86937700
   0.12395000  0.12445800  0.61937700
   0.62395000  0.12445800  0.61937700
   0.12395000  0.62445800  0.61937700
   0.62395000  0.62445800  0.61937700
   0.37605000  0.37554200  0.61937700
   0.87605000  0.37554200  0.61937700
   0.37605000  0.87554200  0.61937700
   0.87605000  0.87554200  0.61937700
   0.37445800  0.12395000  0.36937700
   0.87445800  0.12395000  0.36937700
   0.37445800  0.62395000  0.36937700
   0.87445800  0.62395000  0.36937700
   0.12554200  0.37605000  0.36937700
   0.62554200  0.37605000  0.36937700
   0.12554200  0.87605000  0.36937700
   0.62554200  0.87605000  0.36937700
   0.00000000  0.00000000  0.50491900
   0.50000000  0.00000000  0.50491900
   0.00000000  0.50000000  0.50491900
   0.50000000  0.50000000  0.50491900
   0.25000000  0.00000000  0.25491900
   0.75000000  0.00000000  0.25491900
   0.25000000  0.50000000  0.25491900
   0.75000000  0.50000000  0.25491900
   0.25000000  0.25000000  0.00491900
   0.75000000  0.25000000  0.00491900
   0.25000000  0.75000000  0.00491900
   0.75000000  0.75000000  0.00491900
   0.00000000  0.25000000  0.75491900
   0.50000000  0.25000000  0.75491900
   0.00000000  0.75000000  0.75491900
   0.50000000  0.75000000  0.75491900
   0.00000000  0.00000000  0.00632600
   0.50000000  0.00000000  0.00632600
   0.00000000  0.50000000  0.00632600
   0.50000000  0.50000000  0.00632600
   0.25000000  0.00000000  0.75632600
   0.75000000  0.00000000  0.75632600
   0.25000000  0.50000000  0.75632600
   0.75000000  0.50000000  0.75632600
   0.25000000  0.25000000  0.50632600
   0.75000000  0.25000000  0.50632600
   0.25000000  0.75000000  0.50632600
   0.75000000  0.75000000  0.50632600
   0.00000000  0.25000000  0.25632600
   0.50000000  0.25000000  0.25632600
   0.00000000  0.75000000  0.25632600
   0.50000000  0.75000000  0.25632600
 
 position of ions in cartesian coordinates  (Angst):
   1.39154445  1.38649391  1.24568682
   6.63750695  1.66145091  1.24568682
   1.66650145  6.63245641  1.24568682
   6.91246395  6.90741341  1.24568682
   4.12937505  4.13442559  1.24568682
   9.37533755  4.40938259  1.24568682
   4.40433205  9.38038809  1.24568682
   9.65029455  9.65534509  1.24568682
   1.51144434  3.99189655  9.07186032
   6.75740684  4.26685355  9.07186032
   1.78640134  9.23785905  9.07186032
   7.03236384  9.51281605  9.07186032
   4.00947516  1.52902295  9.07186032
   9.25543766  1.80397995  9.07186032
   4.28443216  6.77498545  9.07186032
   9.53039466  7.04994245  9.07186032
   1.36891530  1.37396584  6.46313582
   6.61487780  1.64892284  6.46313582
   1.64387230  6.61992834  6.46313582
   6.88983480  6.89488534  6.46313582
   4.15200420  4.14695366  6.46313582
   9.39796670  4.42191066  6.46313582
   4.42696120  9.39291616  6.46313582
   9.67292370  9.66787316  6.46313582
   3.99694709  1.50639380  3.85441132
   9.24290959  1.78135080  3.85441132
   4.27190409  6.75235630  3.85441132
   9.51786659  7.02731330  3.85441132
   1.52397241  4.01452570  3.85441132
   6.76993491  4.28948270  3.85441132
   1.79892941  9.26048820  3.85441132
   7.04489191  9.53544520  3.85441132
   0.00000000  0.00000000  5.26877826
   5.24596250  0.27495700  5.26877826
   0.27495700  5.24596250  5.26877826
   5.52091950  5.52091950  5.26877826
   2.62298125  0.13747850  2.66005376
   7.86894375  0.41243550  2.66005376
   2.89793825  5.38344100  2.66005376
   8.14390075  5.65839800  2.66005376
   2.76045975  2.76045975  0.05132926
   8.00642225  3.03541675  0.05132926
   3.03541675  8.00642225  0.05132926
   8.28137925  8.28137925  0.05132926
   0.13747850  2.62298125  7.87750276
   5.38344100  2.89793825  7.87750276
   0.41243550  7.86894375  7.87750276
   5.65839800  8.14390075  7.87750276
   0.00000000  0.00000000  0.06601116
   5.24596250  0.27495700  0.06601116
   0.27495700  5.24596250  0.06601116
   5.52091950  5.52091950  0.06601116
   2.62298125  0.13747850  7.89218466
   7.86894375  0.41243550  7.89218466
   2.89793825  5.38344100  7.89218466
   8.14390075  5.65839800  7.89218466
   2.76045975  2.76045975  5.28346016
   8.00642225  3.03541675  5.28346016
   3.03541675  8.00642225  5.28346016
   8.28137925  8.28137925  5.28346016
   0.13747850  2.62298125  2.67473566
   5.38344100  2.89793825  2.67473566
   0.41243550  7.86894375  2.67473566
   5.65839800  8.14390075  2.67473566
 


--------------------------------------------------------------------------------------------------------


 k-point  1 :   0.0000 0.0000 0.0000  plane waves:   48227
 k-point  2 :   0.5000 0.0000 0.0000  plane waves:   48196
 k-point  3 :   0.5000 0.5000 0.0000  plane waves:   48160
 k-point  4 :   0.0000 0.0000 0.5000  plane waves:   48194
 k-point  5 :   0.5000 0.0000 0.5000  plane waves:   48140
 k-point  6 :   0.5000 0.5000 0.5000  plane waves:   48104

 maximum and minimum number of plane-waves per node :     48227    48104

 maximum number of plane-waves:     48227
 maximum index in each direction: 
   IXMAX=   22   IYMAX=   22   IZMAX=   22
   IXMIN=  -23   IYMIN=  -23   IZMIN=  -23


 serial   3D FFT for wavefunctions
 parallel 3D FFT for charge:
    minimum data exchange during FFTs selected (reduces bandwidth)


 total amount of memory used by VASP MPI-rank0   300225. kBytes
=======================================================================

   base      :      30000. kBytes
   nonl-proj :     174956. kBytes
   fftplans  :       4588. kBytes
   grid      :      69719. kBytes
   one-center:       1990. kBytes
   wavefun   :      18972. kBytes
 
     INWAV:  cpu time    0.0001: real time    0.0002
 Broyden mixing: mesh for mixing (old mesh)
   NGX = 45   NGY = 45   NGZ = 45
  (NGX  =192   NGY  =192   NGZ  =180)
  gives a total of  91125 points

 initial charge density was supplied:
 number of electron     687.9999903 magnetization       0.0000000
 keeping initial charge density in first step


--------------------------------------------------------------------------------------------------------


 Maximum index for augmentation-charges          899 (set IRDMAX)


--------------------------------------------------------------------------------------------------------


 First call to EWALD:  gamma=   0.169
 Maximum number of real-space cells 3x 3x 3
 Maximum number of reciprocal cells 3x 3x 3

    FEWALD:  cpu time    0.0021: real time    0.0021


--------------------------------------- Iteration      1(   1)  ---------------------------------------


    POTLOK:  cpu time    0.3410: real time    0.3888
    SETDIJ:  cpu time    0.0152: real time    0.0154
     EDDAV:  cpu time   63.0486: real time   63.6210
 BZINTS: Fermi energy: 14.771978;688.000000 electrons
         Band energy:***********;  BLOECHL correction: -0.011228
       DOS:  cpu time    0.0189: real time    0.0190
    --------------------------------------------
      LOOP:  cpu time   63.4238: real time   64.0442

 eigenvalue-minimisations  : 12288
 total energy-change (2. order) : 0.6030894E+04  (-0.5182434E+05)
 number of electron     687.9999903 magnetization       0.0000000
 augmentation part      687.9999903 magnetization       0.0000000

 Free energy of the ion-electron system (eV)
  ---------------------------------------------------
  alpha Z        PSCENC =      2366.73577640
  Ewald energy   TEWEN  =    -62609.40941900
  -Hartree energ DENC   =    -42668.22475245
  -exchange      EXHF   =         0.00000000
  -V(xc)+E(xc)   XCENC  =      3280.07943165
  PAW double counting   =    111987.34491494  -115676.78586517
  entropy T*S    EENTRO =         0.00000000
  eigenvalues    EBANDS =     -4668.91107085
  atomic energy  EATOM  =    114020.06510763
  Solvation  Ediel_sol  =         0.00000000
  ---------------------------------------------------
  free energy    TOTEN  =      6030.89412314 eV

  energy without entropy =     6030.89412314  energy(sigma->0) =     6030.89412314


--------------------------------------------------------------------------------------------------------




--------------------------------------- Iteration      1(   2)  ---------------------------------------


     EDDAV:  cpu time   74.6665: real time   75.2302
 BZINTS: Fermi energy:  5.382862;688.000000 electrons
         Band energy:***********;  BLOECHL correction: -0.003145
       DOS:  cpu time    0.0152: real time    0.0153
    --------------------------------------------
      LOOP:  cpu time   74.6817: real time   75.2455

 eigenvalue-minimisations  : 13568
 total energy-change (2. order) :-0.6129528E+04  (-0.6022198E+04)
 number of electron     687.9999903 magnetization       0.0000000
 augmentation part      687.9999903 magnetization       0.0000000

 Free energy of the ion-electron system (eV)
  ---------------------------------------------------
  alpha Z        PSCENC =      2366.73577640
  Ewald energy   TEWEN  =    -62609.40941900
  -Hartree energ DENC   =    -42668.22475245
  -exchange      EXHF   =         0.00000000
  -V(xc)+E(xc)   XCENC  =      3280.07943165
  PAW double counting   =    111987.34491494  -115676.78586517
  entropy T*S    EENTRO =         0.00000000
  eigenvalues    EBANDS =    -10798.43948666
  atomic energy  EATOM  =    114020.06510763
  Solvation  Ediel_sol  =         0.00000000
  ---------------------------------------------------
  free energy    TOTEN  =       -98.63429266 eV

  energy without entropy =      -98.63429266  energy(sigma->0) =      -98.63429266


--------------------------------------------------------------------------------------------------------




--------------------------------------- Iteration      1(   3)  ---------------------------------------


     EDDAV:  cpu time  115.3770: real time  116.1821
 BZINTS: Fermi energy:  4.961272;688.000000 electrons
         Band energy:***********;  BLOECHL correction:  0.000000
       DOS:  cpu time    0.0033: real time    0.0033
    --------------------------------------------
      LOOP:  cpu time  115.3803: real time  116.1854

 eigenvalue-minimisations  : 16896
 total energy-change (2. order) :-0.2478730E+03  (-0.2470403E+03)
 number of electron     687.9999903 magnetization       0.0000000
 augmentation part      687.9999903 magnetization       0.0000000

 Free energy of the ion-electron system (eV)
  ---------------------------------------------------
  alpha Z        PSCENC =      2366.73577640
  Ewald energy   TEWEN  =    -62609.40941900
  -Hartree energ DENC   =    -42668.22475245
  -exchange      EXHF   =         0.00000000
  -V(xc)+E(xc)   XCENC  =      3280.07943165
  PAW double counting   =    111987.34491494  -115676.78586517
  entropy T*S    EENTRO =         0.00000000
  eigenvalues    EBANDS =    -11046.31249413
  atomic energy  EATOM  =    114020.06510763
  Solvation  Ediel_sol  =         0.00000000
  ---------------------------------------------------
  free energy    TOTEN  =      -346.50730013 eV

  energy without entropy =     -346.50730013  energy(sigma->0) =     -346.50730013


--------------------------------------------------------------------------------------------------------




--------------------------------------- Iteration      1(   4)  ---------------------------------------


     EDDAV:  cpu time   95.0591: real time   95.7295
 BZINTS: Fermi energy:  4.957852;688.000000 electrons
         Band energy:***********;  BLOECHL correction:  0.000000
       DOS:  cpu time    0.0029: real time    0.0029
    --------------------------------------------
      LOOP:  cpu time   95.0620: real time   95.7323

 eigenvalue-minimisations  : 14848
 total energy-change (2. order) :-0.3431802E+01  (-0.3431618E+01)
 number of electron     687.9999903 magnetization       0.0000000
 augmentation part      687.9999903 magnetization       0.0000000

 Free energy of the ion-electron system (eV)
  ---------------------------------------------------
  alpha Z        PSCENC =      2366.73577640
  Ewald energy   TEWEN  =    -62609.40941900
  -Hartree energ DENC   =    -42668.22475245
  -exchange      EXHF   =         0.00000000
  -V(xc)+E(xc)   XCENC  =      3280.07943165
  PAW double counting   =    111987.34491494  -115676.78586517
  entropy T*S    EENTRO =         0.00000000
  eigenvalues    EBANDS =    -11049.74429620
  atomic energy  EATOM  =    114020.06510763
  Solvation  Ediel_sol  =         0.00000000
  ---------------------------------------------------
  free energy    TOTEN  =      -349.93910220 eV

  energy without entropy =     -349.93910220  energy(sigma->0) =     -349.93910220


--------------------------------------------------------------------------------------------------------




--------------------------------------- Iteration      1(   5)  ---------------------------------------


     EDDAV:  cpu time  108.4686: real time  109.2163
 BZINTS: Fermi energy:  5.161432;688.000000 electrons
         Band energy:***********;  BLOECHL correction:  0.000000
       DOS:  cpu time    0.0032: real time    0.0032
    CHARGE:  cpu time    1.1800: real time    1.1878
    MIXING:  cpu time    0.0025: real time    0.0025
    --------------------------------------------
      LOOP:  cpu time  109.6543: real time  110.4100

 eigenvalue-minimisations  : 15872
 total energy-change (2. order) :-0.1044843E+00  (-0.1044838E+00)
 number of electron     688.0000485 magnetization      -0.0000000
 augmentation part      285.2091257 magnetization      -0.0000000

 Broyden mixing:
  rms(total) = 0.37609E+01    rms(broyden)= 0.37605E+01
  rms(prec ) = 0.42291E+01
  weight for this iteration     100.00

 Free energy of the ion-electron system (eV)
  ---------------------------------------------------
  alpha Z        PSCENC =      2366.73577640
  Ewald energy   TEWEN  =    -62609.40941900
  -Hartree energ DENC   =    -42668.22475245
  -exchange      EXHF   =         0.00000000
  -V(xc)+E(xc)   XCENC  =      3280.07943165
  PAW double counting   =    111987.34491494  -115676.78586517
  entropy T*S    EENTRO =         0.00000000
  eigenvalues    EBANDS =    -11049.84878048
  atomic energy  EATOM  =    114020.06510763
  Solvation  Ediel_sol  =         0.00000000
  ---------------------------------------------------
  free energy    TOTEN  =      -350.04358648 eV

  energy without entropy =     -350.04358648  energy(sigma->0) =     -350.04358648


--------------------------------------------------------------------------------------------------------




--------------------------------------- Iteration      1(   6)  ---------------------------------------


    POTLOK:  cpu time    0.1445: real time    0.1456
    SETDIJ:  cpu time    0.0131: real time    0.0131
     EDDAV:  cpu time  119.2193: real time  120.0349
 BZINTS: Fermi energy:  5.282772;688.000000 electrons
         Band energy:***********;  BLOECHL correction:  0.000000
       DOS:  cpu time    0.0033: real time    0.0033
    CHARGE:  cpu time    1.1733: real time    1.1811
    MIXING:  cpu time    0.0027: real time    0.0263
    --------------------------------------------
      LOOP:  cpu time  120.5562: real time  121.4043

 eigenvalue-minimisations  : 17408
 total energy-change (2. order) : 0.1729090E+02  (-0.2476807E+01)
 number of electron     688.0000480 magnetization      -0.0000000
 augmentation part      280.2324760 magnetization      -0.0000000

 Broyden mixing:
  rms(total) = 0.21892E+01    rms(broyden)= 0.21892E+01
  rms(prec ) = 0.24364E+01
  weight for this iteration     100.00

 eigenvalues of (default mixing * dielectric matrix)
  average eigenvalue GAMMA=   0.7150
  0.7150

 Free energy of the ion-electron system (eV)
  ---------------------------------------------------
  alpha Z        PSCENC =      2366.73577640
  Ewald energy   TEWEN  =    -62609.40941900
  -Hartree energ DENC   =    -42955.43100273
  -exchange      EXHF   =         0.00000000
  -V(xc)+E(xc)   XCENC  =      3287.87254698
  PAW double counting   =    113990.00074004  -117714.59769640
  entropy T*S    EENTRO =         0.00000000
  eigenvalues    EBANDS =    -10717.98874213
  atomic energy  EATOM  =    114020.06510763
  Solvation  Ediel_sol  =         0.00000000
  ---------------------------------------------------
  free energy    TOTEN  =      -332.75268921 eV

  energy without entropy =     -332.75268921  energy(sigma->0) =     -332.75268921


--------------------------------------------------------------------------------------------------------




--------------------------------------- Iteration      1(   7)  ---------------------------------------


    POTLOK:  cpu time    0.1388: real time    0.1427
    SETDIJ:  cpu time    0.0130: real time    0.0131
     EDDAV:  cpu time   90.9375: real time   91.5940
 BZINTS: Fermi energy:  5.161759;688.000000 electrons
         Band energy:***********;  BLOECHL correction:  0.000000
       DOS:  cpu time    0.0032: real time    0.0032
    CHARGE:  cpu time    1.1782: real time    1.1862
    MIXING:  cpu time    0.0016: real time    0.0304
    --------------------------------------------
      LOOP:  cpu time   92.2723: real time   92.9696

 eigenvalue-minimisations  : 15104
 total energy-change (2. order) : 0.4528438E+01  (-0.1194978E+01)
 number of electron     688.0000482 magnetization       0.0000000
 augmentation part      283.2158457 magnetization       0.0000000

 Broyden mixing:
  rms(total) = 0.15926E+01    rms(broyden)= 0.15926E+01
  rms(prec ) = 0.16798E+01
  weight for this iteration     100.00

 eigenvalues of (default mixing * dielectric matrix)
  average eigenvalue GAMMA=   0.8756
  1.2608  0.4904

 Free energy of the ion-electron system (eV)
  ---------------------------------------------------
  alpha Z        PSCENC =      2366.73577640
  Ewald energy   TEWEN  =    -62609.40941900
  -Hartree energ DENC   =    -42786.59767570
  -exchange      EXHF   =         0.00000000
  -V(xc)+E(xc)   XCENC  =      3284.85637791
  PAW double counting   =    113496.91623561  -117181.39781518
  entropy T*S    EENTRO =         0.00000000
  eigenvalues    EBANDS =    -10919.39283905
  atomic energy  EATOM  =    114020.06510763
  Solvation  Ediel_sol  =         0.00000000
  ---------------------------------------------------
  free energy    TOTEN  =      -328.22425138 eV

  energy without entropy =     -328.22425138  energy(sigma->0) =     -328.22425138


--------------------------------------------------------------------------------------------------------




--------------------------------------- Iteration      1(   8)  ---------------------------------------


    POTLOK:  cpu time    0.1453: real time    0.1462
    SETDIJ:  cpu time    0.0131: real time    0.0131
     EDDAV:  cpu time  132.0784: real time  132.9842
 BZINTS: Fermi energy:  5.175214;688.000000 electrons
         Band energy:***********;  BLOECHL correction:  0.000000
       DOS:  cpu time    0.0031: real time    0.0032
    CHARGE:  cpu time    1.1745: real time    1.1820
    MIXING:  cpu time    0.0016: real time    0.0496
    --------------------------------------------
      LOOP:  cpu time  133.4160: real time  134.3783

 eigenvalue-minimisations  : 18688
 total energy-change (2. order) : 0.1178923E+01  (-0.4477968E+00)
 number of electron     688.0000481 magnetization       0.0000000
 augmentation part      283.0524390 magnetization       0.0000000

 Broyden mixing:
  rms(total) = 0.61021E+00    rms(broyden)= 0.61020E+00
  rms(prec ) = 0.67539E+00
  weight for this iteration     100.00

 eigenvalues of (default mixing * dielectric matrix)
  average eigenvalue GAMMA=   0.9932
  1.7706  0.6046  0.6046

 Free energy of the ion-electron system (eV)
  ---------------------------------------------------
  alpha Z        PSCENC =      2366.73577640
  Ewald energy   TEWEN  =    -62609.40941900
  -Hartree energ DENC   =    -42827.76051896
  -exchange      EXHF   =         0.00000000
  -V(xc)+E(xc)   XCENC  =      3286.11464289
  PAW double counting   =    113018.59633967  -116708.60633254
  entropy T*S    EENTRO =         0.00000000
  eigenvalues    EBANDS =    -10872.78092496
  atomic energy  EATOM  =    114020.06510763
  Solvation  Ediel_sol  =         0.00000000
  ---------------------------------------------------
  free energy    TOTEN  =      -327.04532888 eV

  energy without entropy =     -327.04532888  energy(sigma->0) =     -327.04532888


--------------------------------------------------------------------------------------------------------




--------------------------------------- Iteration      1(   9)  ---------------------------------------


    POTLOK:  cpu time    0.1390: real time    0.1433
    SETDIJ:  cpu time    0.0131: real time    0.0132
     EDDAV:  cpu time  116.0426: real time  116.8480
 BZINTS: Fermi energy:  5.161825;688.000000 electrons
         Band energy:***********;  BLOECHL correction:  0.000000
       DOS:  cpu time    0.0032: real time    0.0032
    CHARGE:  cpu time    1.1770: real time    1.1851
    MIXING:  cpu time    0.0015: real time    0.0015
    --------------------------------------------
      LOOP:  cpu time  117.3764: real time  118.1942

 eigenvalue-minimisations  : 16640
 total energy-change (2. order) : 0.9599728E-01  (-0.2071734E+00)
 number of electron     688.0000481 magnetization      -0.0000000
 augmentation part      282.1232602 magnetization      -0.0000000

 Broyden mixing:
  rms(total) = 0.44938E+00    rms(broyden)= 0.44937E+00
  rms(prec ) = 0.50238E+00
  weight for this iteration     100.00

 eigenvalues of (default mixing * dielectric matrix)
  average eigenvalue GAMMA=   0.9363
  1.9160  0.7510  0.5391  0.5391

 Free energy of the ion-electron system (eV)
  ---------------------------------------------------
  alpha Z        PSCENC =      2366.73577640
  Ewald energy   TEWEN  =    -62609.40941900
  -Hartree energ DENC   =    -42863.05203548
  -exchange      EXHF   =         0.00000000
  -V(xc)+E(xc)   XCENC  =      3286.23979391
  PAW double counting   =    112913.17379674  -116607.74781894
  entropy T*S    EENTRO =         0.00000000
  eigenvalues    EBANDS =    -10832.95453286
  atomic energy  EATOM  =    114020.06510763
  Solvation  Ediel_sol  =         0.00000000
  ---------------------------------------------------
  free energy    TOTEN  =      -326.94933160 eV

  energy without entropy =     -326.94933160  energy(sigma->0) =     -326.94933160


--------------------------------------------------------------------------------------------------------




--------------------------------------- Iteration      1(  10)  ---------------------------------------


    POTLOK:  cpu time    0.1439: real time    0.1455
    SETDIJ:  cpu time    0.0131: real time    0.0131
     EDDAV:  cpu time  112.7713: real time  113.5578
 BZINTS: Fermi energy:  5.185744;688.000000 electrons
         Band energy:***********;  BLOECHL correction:  0.000000
       DOS:  cpu time    0.0032: real time    0.0032
    CHARGE:  cpu time    1.1743: real time    1.1824
    MIXING:  cpu time    0.0015: real time    0.0015
    --------------------------------------------
      LOOP:  cpu time  114.1072: real time  114.9036

 eigenvalue-minimisations  : 16640
 total energy-change (2. order) : 0.5092569E-02  (-0.1350840E+00)
 number of electron     688.0000480 magnetization       0.0000000
 augmentation part      282.1246354 magnetization       0.0000000

 Broyden mixing:
  rms(total) = 0.31006E+00    rms(broyden)= 0.31005E+00
  rms(prec ) = 0.34922E+00
  weight for this iteration     100.00

 eigenvalues of (default mixing * dielectric matrix)
  average eigenvalue GAMMA=   0.9975
  1.7140  1.7140  0.6367  0.4613  0.4613

 Free energy of the ion-electron system (eV)
  ---------------------------------------------------
  alpha Z        PSCENC =      2366.73577640
  Ewald energy   TEWEN  =    -62609.40941900
  -Hartree energ DENC   =    -42876.31553685
  -exchange      EXHF   =         0.00000000
  -V(xc)+E(xc)   XCENC  =      3287.07442323
  PAW double counting   =    112764.24306641  -116458.43572832
  entropy T*S    EENTRO =         0.00000000
  eigenvalues    EBANDS =    -10820.90192854
  atomic energy  EATOM  =    114020.06510763
  Solvation  Ediel_sol  =         0.00000000
  ---------------------------------------------------
  free energy    TOTEN  =      -326.94423903 eV

  energy without entropy =     -326.94423903  energy(sigma->0) =     -326.94423903


--------------------------------------------------------------------------------------------------------




--------------------------------------- Iteration      1(  11)  ---------------------------------------


    POTLOK:  cpu time    0.1404: real time    0.1435
    SETDIJ:  cpu time    0.0130: real time    0.0130
     EDDAV:  cpu time   92.8410: real time   93.5038
 BZINTS: Fermi energy:  5.164959;688.000000 electrons
         Band energy:***********;  BLOECHL correction:  0.000000
       DOS:  cpu time    0.0032: real time    0.0032
    CHARGE:  cpu time    1.1699: real time    1.1777
    MIXING:  cpu time    0.0016: real time    0.0016
    --------------------------------------------
      LOOP:  cpu time   94.1691: real time   94.8429

 eigenvalue-minimisations  : 14592
 total energy-change (2. order) : 0.8185354E-02  (-0.6215431E-01)
 number of electron     688.0000480 magnetization       0.0000000
 augmentation part      282.2560198 magnetization       0.0000000

 Broyden mixing:
  rms(total) = 0.13233E+00    rms(broyden)= 0.13232E+00
  rms(prec ) = 0.15096E+00
  weight for this iteration     100.00

 eigenvalues of (default mixing * dielectric matrix)
  average eigenvalue GAMMA=   1.0646
  2.0456  2.0456  0.7265  0.6153  0.6153  0.3395

 Free energy of the ion-electron system (eV)
  ---------------------------------------------------
  alpha Z        PSCENC =      2366.73577640
  Ewald energy   TEWEN  =    -62609.40941900
  -Hartree energ DENC   =    -42857.68583411
  -exchange      EXHF   =         0.00000000
  -V(xc)+E(xc)   XCENC  =      3286.30987309
  PAW double counting   =    112459.98509264  -116151.39324462
  entropy T*S    EENTRO =         0.00000000
  eigenvalues    EBANDS =    -10841.54340571
  atomic energy  EATOM  =    114020.06510763
  Solvation  Ediel_sol  =         0.00000000
  ---------------------------------------------------
  free energy    TOTEN  =      -326.93605368 eV

  energy without entropy =     -326.93605368  energy(sigma->0) =     -326.93605368


--------------------------------------------------------------------------------------------------------




--------------------------------------- Iteration      1(  12)  ---------------------------------------


    POTLOK:  cpu time    0.1418: real time    0.1430
    SETDIJ:  cpu time    0.0130: real time    0.0131
     EDDAV:  cpu time  140.9440: real time  141.8924
 BZINTS: Fermi energy:  5.170357;688.000000 electrons
         Band energy:***********;  BLOECHL correction:  0.000000
       DOS:  cpu time    0.0032: real time    0.0032
    CHARGE:  cpu time    1.1784: real time    1.1866
    MIXING:  cpu time    0.0017: real time    0.0017
    --------------------------------------------
      LOOP:  cpu time  142.2821: real time  143.2400

 eigenvalue-minimisations  : 19200
 total energy-change (2. order) :-0.5799045E-02  (-0.8899776E-02)
 number of electron     688.0000480 magnetization       0.0000000
 augmentation part      282.2438575 magnetization       0.0000000

 Broyden mixing:
  rms(total) = 0.42207E-01    rms(broyden)= 0.42204E-01
  rms(prec ) = 0.44661E-01
  weight for this iteration     100.00

 eigenvalues of (default mixing * dielectric matrix)
  average eigenvalue GAMMA=   1.0828
  2.1970  2.1970  0.9628  0.6669  0.6084  0.6084  0.3391

 Free energy of the ion-electron system (eV)
  ---------------------------------------------------
  alpha Z        PSCENC =      2366.73577640
  Ewald energy   TEWEN  =    -62609.40941900
  -Hartree energ DENC   =    -42862.65910428
  -exchange      EXHF   =         0.00000000
  -V(xc)+E(xc)   XCENC  =      3286.49425883
  PAW double counting   =    112308.32126861  -116000.69857402
  entropy T*S    EENTRO =         0.00000000
  eigenvalues    EBANDS =    -10835.79116689
  atomic energy  EATOM  =    114020.06510763
  Solvation  Ediel_sol  =         0.00000000
  ---------------------------------------------------
  free energy    TOTEN  =      -326.94185272 eV

  energy without entropy =     -326.94185272  energy(sigma->0) =     -326.94185272


--------------------------------------------------------------------------------------------------------




--------------------------------------- Iteration      1(  13)  ---------------------------------------


    POTLOK:  cpu time    0.1433: real time    0.1447
    SETDIJ:  cpu time    0.0129: real time    0.0130
     EDDAV:  cpu time   96.6003: real time   97.2861
 BZINTS: Fermi energy:  5.170166;688.000000 electrons
         Band energy:***********;  BLOECHL correction:  0.000000
       DOS:  cpu time    0.0031: real time    0.0032
    CHARGE:  cpu time    1.1787: real time    1.1858
    MIXING:  cpu time    0.0017: real time    0.0017
    --------------------------------------------
      LOOP:  cpu time   97.9400: real time   98.6345

 eigenvalue-minimisations  : 14848
 total energy-change (2. order) :-0.2719245E-02  (-0.7401638E-03)
 number of electron     688.0000480 magnetization       0.0000000
 augmentation part      282.2406618 magnetization       0.0000000

 Broyden mixing:
  rms(total) = 0.23125E-01    rms(broyden)= 0.23123E-01
  rms(prec ) = 0.24663E-01
  weight for this iteration     100.00

 eigenvalues of (default mixing * dielectric matrix)
  average eigenvalue GAMMA=   1.0981
  2.2678  2.2678  1.1153  0.9427  0.6002  0.6002  0.6522  0.3389

 Free energy of the ion-electron system (eV)
  ---------------------------------------------------
  alpha Z        PSCENC =      2366.73577640
  Ewald energy   TEWEN  =    -62609.40941900
  -Hartree energ DENC   =    -42862.61101234
  -exchange      EXHF   =         0.00000000
  -V(xc)+E(xc)   XCENC  =      3286.50679135
  PAW double counting   =    112245.24124926  -115937.54932818
  entropy T*S    EENTRO =         0.00000000
  eigenvalues    EBANDS =    -10835.92373709
  atomic energy  EATOM  =    114020.06510763
  Solvation  Ediel_sol  =         0.00000000
  ---------------------------------------------------
  free energy    TOTEN  =      -326.94457197 eV

  energy without entropy =     -326.94457197  energy(sigma->0) =     -326.94457197


--------------------------------------------------------------------------------------------------------




--------------------------------------- Iteration      1(  14)  ---------------------------------------


    POTLOK:  cpu time    0.1435: real time    0.1445
    SETDIJ:  cpu time    0.0129: real time    0.0129
     EDDAV:  cpu time  116.7990: real time  117.6003
 BZINTS: Fermi energy:  5.169929;688.000000 electrons
         Band energy:***********;  BLOECHL correction:  0.000000
       DOS:  cpu time    0.0032: real time    0.0032
    CHARGE:  cpu time    1.1760: real time    1.1840
    MIXING:  cpu time    0.0018: real time    0.0018
    --------------------------------------------
      LOOP:  cpu time  118.1363: real time  118.9466

 eigenvalue-minimisations  : 16384
 total energy-change (2. order) :-0.1173844E-02  (-0.3049046E-03)
 number of electron     688.0000480 magnetization       0.0000000
 augmentation part      282.2459329 magnetization       0.0000000

 Broyden mixing:
  rms(total) = 0.12372E-01    rms(broyden)= 0.12371E-01
  rms(prec ) = 0.12976E-01
  weight for this iteration     100.00

 eigenvalues of (default mixing * dielectric matrix)
  average eigenvalue GAMMA=   1.1602
  2.4173  2.4173  1.3662  1.3662  0.3391  0.6068  0.6068  0.7029  0.6194

 Free energy of the ion-electron system (eV)
  ---------------------------------------------------
  alpha Z        PSCENC =      2366.73577640
  Ewald energy   TEWEN  =    -62609.40941900
  -Hartree energ DENC   =    -42862.51599554
  -exchange      EXHF   =         0.00000000
  -V(xc)+E(xc)   XCENC  =      3286.51318411
  PAW double counting   =    112214.29327003  -115906.77801540
  entropy T*S    EENTRO =         0.00000000
  eigenvalues    EBANDS =    -10835.84965404
  atomic energy  EATOM  =    114020.06510763
  Solvation  Ediel_sol  =         0.00000000
  ---------------------------------------------------
  free energy    TOTEN  =      -326.94574581 eV

  energy without entropy =     -326.94574581  energy(sigma->0) =     -326.94574581


--------------------------------------------------------------------------------------------------------




--------------------------------------- Iteration      1(  15)  ---------------------------------------


    POTLOK:  cpu time    0.1406: real time    0.1446
    SETDIJ:  cpu time    0.0128: real time    0.0129
     EDDAV:  cpu time  106.0891: real time  106.8283
 BZINTS: Fermi energy:  5.169874;688.000000 electrons
         Band energy:***********;  BLOECHL correction:  0.000000
       DOS:  cpu time    0.0032: real time    0.0032
    CHARGE:  cpu time    1.1752: real time    1.1827
    MIXING:  cpu time    0.0018: real time    0.0018
    --------------------------------------------
      LOOP:  cpu time  107.4227: real time  108.1735

 eigenvalue-minimisations  : 15616
 total energy-change (2. order) :-0.5389160E-03  (-0.1199463E-03)
 number of electron     688.0000480 magnetization       0.0000000
 augmentation part      282.2400522 magnetization       0.0000000

 Broyden mixing:
  rms(total) = 0.67514E-02    rms(broyden)= 0.67504E-02
  rms(prec ) = 0.73826E-02
  weight for this iteration     100.00

 eigenvalues of (default mixing * dielectric matrix)
  average eigenvalue GAMMA=   1.1713
  2.5025  2.5025  1.6864  1.0869  1.0869  0.3390  0.6022  0.6022  0.6954  0.6090

 Free energy of the ion-electron system (eV)
  ---------------------------------------------------
  alpha Z        PSCENC =      2366.73577640
  Ewald energy   TEWEN  =    -62609.40941900
  -Hartree energ DENC   =    -42862.76242375
  -exchange      EXHF   =         0.00000000
  -V(xc)+E(xc)   XCENC  =      3286.51270434
  PAW double counting   =    112201.97294663  -115894.49297838
  entropy T*S    EENTRO =         0.00000000
  eigenvalues    EBANDS =    -10835.56799860
  atomic energy  EATOM  =    114020.06510763
  Solvation  Ediel_sol  =         0.00000000
  ---------------------------------------------------
  free energy    TOTEN  =      -326.94628473 eV

  energy without entropy =     -326.94628473  energy(sigma->0) =     -326.94628473


--------------------------------------------------------------------------------------------------------




--------------------------------------- Iteration      1(  16)  ---------------------------------------


    POTLOK:  cpu time    0.1405: real time    0.1444
    SETDIJ:  cpu time    0.0130: real time    0.0131
     EDDAV:  cpu time  123.6248: real time  124.4603
 BZINTS: Fermi energy:  5.169992;688.000000 electrons
         Band energy:***********;  BLOECHL correction:  0.000000
       DOS:  cpu time    0.0031: real time    0.0032
    CHARGE:  cpu time    1.1794: real time    1.1875
    MIXING:  cpu time    0.0020: real time    0.0027
    --------------------------------------------
      LOOP:  cpu time  124.9628: real time  125.8111

 eigenvalue-minimisations  : 16896
 total energy-change (2. order) :-0.1897668E-03  (-0.5100278E-04)
 number of electron     688.0000480 magnetization      -0.0000000
 augmentation part      282.2428615 magnetization      -0.0000000

 Broyden mixing:
  rms(total) = 0.40625E-02    rms(broyden)= 0.40617E-02
  rms(prec ) = 0.43638E-02
  weight for this iteration     100.00

 eigenvalues of (default mixing * dielectric matrix)
  average eigenvalue GAMMA=   1.2354
  2.9458  2.2418  2.0293  1.3374  1.3374  0.3390  0.8452  0.6015  0.6015  0.7037
  0.6072

 Free energy of the ion-electron system (eV)
  ---------------------------------------------------
  alpha Z        PSCENC =      2366.73577640
  Ewald energy   TEWEN  =    -62609.40941900
  -Hartree energ DENC   =    -42862.73943384
  -exchange      EXHF   =         0.00000000
  -V(xc)+E(xc)   XCENC  =      3286.51646055
  PAW double counting   =    112199.26321973  -115891.76754118
  entropy T*S    EENTRO =         0.00000000
  eigenvalues    EBANDS =    -10835.61064479
  atomic energy  EATOM  =    114020.06510763
  Solvation  Ediel_sol  =         0.00000000
  ---------------------------------------------------
  free energy    TOTEN  =      -326.94647449 eV

  energy without entropy =     -326.94647449  energy(sigma->0) =     -326.94647449


--------------------------------------------------------------------------------------------------------




--------------------------------------- Iteration      1(  17)  ---------------------------------------


    POTLOK:  cpu time    0.1431: real time    0.1442
    SETDIJ:  cpu time    0.0128: real time    0.0128
     EDDAV:  cpu time   90.2591: real time   90.9067
 BZINTS: Fermi energy:  5.170005;688.000000 electrons
         Band energy:***********;  BLOECHL correction:  0.000000
       DOS:  cpu time    0.0032: real time    0.0032
    CHARGE:  cpu time    1.2097: real time    1.2183
    MIXING:  cpu time    0.0020: real time    0.0020
    --------------------------------------------
      LOOP:  cpu time   91.6297: real time   92.2871

 eigenvalue-minimisations  : 14336
 total energy-change (2. order) :-0.9739421E-04  (-0.4211299E-04)
 number of electron     688.0000480 magnetization      -0.0000000
 augmentation part      282.2427207 magnetization      -0.0000000

 Broyden mixing:
  rms(total) = 0.20424E-02    rms(broyden)= 0.20413E-02
  rms(prec ) = 0.21464E-02
  weight for this iteration     100.00

 eigenvalues of (default mixing * dielectric matrix)
  average eigenvalue GAMMA=   1.3170
  3.7529  2.3183  2.3183  1.4205  1.4205  1.0520  0.3390  0.6021  0.6021  0.7115
  0.6611  0.6058

 Free energy of the ion-electron system (eV)
  ---------------------------------------------------
  alpha Z        PSCENC =      2366.73577640
  Ewald energy   TEWEN  =    -62609.40941900
  -Hartree energ DENC   =    -42862.71834050
  -exchange      EXHF   =         0.00000000
  -V(xc)+E(xc)   XCENC  =      3286.51597790
  PAW double counting   =    112202.95851917  -115895.46530478
  entropy T*S    EENTRO =         0.00000000
  eigenvalues    EBANDS =    -10835.62888871
  atomic energy  EATOM  =    114020.06510763
  Solvation  Ediel_sol  =         0.00000000
  ---------------------------------------------------
  free energy    TOTEN  =      -326.94657189 eV

  energy without entropy =     -326.94657189  energy(sigma->0) =     -326.94657189


--------------------------------------------------------------------------------------------------------




--------------------------------------- Iteration      1(  18)  ---------------------------------------


    POTLOK:  cpu time    0.1412: real time    0.1441
    SETDIJ:  cpu time    0.0130: real time    0.0130
     EDDAV:  cpu time  108.2429: real time  108.9845
 BZINTS: Fermi energy:  5.169995;688.000000 electrons
         Band energy:***********;  BLOECHL correction:  0.000000
       DOS:  cpu time    0.0032: real time    0.0033
    CHARGE:  cpu time    1.1767: real time    1.1848
    MIXING:  cpu time    0.0021: real time    0.0021
    --------------------------------------------
      LOOP:  cpu time  109.5791: real time  110.3317

 eigenvalue-minimisations  : 15616
 total energy-change (2. order) :-0.1980869E-04  (-0.1056471E-04)
 number of electron     688.0000480 magnetization      -0.0000000
 augmentation part      282.2425260 magnetization      -0.0000000

 Broyden mixing:
  rms(total) = 0.95286E-03    rms(broyden)= 0.95212E-03
  rms(prec ) = 0.10457E-02
  weight for this iteration     100.00

 eigenvalues of (default mixing * dielectric matrix)
  average eigenvalue GAMMA=   1.3149
  3.9716  2.3554  2.3554  1.6290  1.1965  1.1965  0.3390  0.8979  0.6011  0.6011
  0.7161  0.6029  0.6306

 Free energy of the ion-electron system (eV)
  ---------------------------------------------------
  alpha Z        PSCENC =      2366.73577640
  Ewald energy   TEWEN  =    -62609.40941900
  -Hartree energ DENC   =    -42862.69213351
  -exchange      EXHF   =         0.00000000
  -V(xc)+E(xc)   XCENC  =      3286.51377954
  PAW double counting   =    112205.06575831  -115897.56297891
  entropy T*S    EENTRO =         0.00000000
  eigenvalues    EBANDS =    -10835.66248215
  atomic energy  EATOM  =    114020.06510763
  Solvation  Ediel_sol  =         0.00000000
  ---------------------------------------------------
  free energy    TOTEN  =      -326.94659170 eV

  energy without entropy =     -326.94659170  energy(sigma->0) =     -326.94659170


--------------------------------------------------------------------------------------------------------




--------------------------------------- Iteration      1(  19)  ---------------------------------------


    POTLOK:  cpu time    0.1413: real time    0.1449
    SETDIJ:  cpu time    0.0130: real time    0.0131
     EDDAV:  cpu time  100.3061: real time  101.0114
 BZINTS: Fermi energy:  5.170012;688.000000 electrons
         Band energy:***********;  BLOECHL correction:  0.000000
       DOS:  cpu time    0.0032: real time    0.0032
    CHARGE:  cpu time    1.1817: real time    1.1902
    MIXING:  cpu time    0.0021: real time    0.0021
    --------------------------------------------
      LOOP:  cpu time  101.6474: real time  102.3650

 eigenvalue-minimisations  : 14848
 total energy-change (2. order) :-0.2158253E-05  (-0.9531652E-06)
 number of electron     688.0000480 magnetization      -0.0000000
 augmentation part      282.2424294 magnetization      -0.0000000

 Broyden mixing:
  rms(total) = 0.66049E-03    rms(broyden)= 0.66034E-03
  rms(prec ) = 0.69721E-03
  weight for this iteration     100.00

 eigenvalues of (default mixing * dielectric matrix)
  average eigenvalue GAMMA=   1.3520
  4.0892  2.4388  2.4388  1.8455  1.4342  1.4342  0.9699  0.3390  0.7926  0.6019
  0.6019  0.7048  0.6371  0.5996

[...]
   -.417E+02 0.845E+00 0.326E+02   0.425E+02 -.817E+00 -.329E+02   -.842E+00 -.259E-01 0.287E+00   -.599E-05 0.675E-05 0.271E-05
   -.417E+02 0.845E+00 0.326E+02   0.425E+02 -.817E+00 -.329E+02   -.842E+00 -.259E-01 0.287E+00   -.599E-05 0.675E-05 0.271E-05
   -.417E+02 0.845E+00 0.326E+02   0.425E+02 -.817E+00 -.329E+02   -.842E+00 -.259E-01 0.287E+00   -.599E-05 0.675E-05 0.271E-05
   -.417E+02 0.845E+00 0.326E+02   0.425E+02 -.817E+00 -.329E+02   -.842E+00 -.259E-01 0.287E+00   -.599E-05 0.675E-05 0.271E-05
   0.417E+02 -.845E+00 0.326E+02   -.425E+02 0.817E+00 -.329E+02   0.842E+00 0.259E-01 0.287E+00   0.599E-05 -.675E-05 0.271E-05
   0.417E+02 -.845E+00 0.326E+02   -.425E+02 0.817E+00 -.329E+02   0.842E+00 0.259E-01 0.287E+00   0.599E-05 -.675E-05 0.271E-05
   0.417E+02 -.845E+00 0.326E+02   -.425E+02 0.817E+00 -.329E+02   0.842E+00 0.259E-01 0.287E+00   0.599E-05 -.675E-05 0.271E-05
   0.417E+02 -.845E+00 0.326E+02   -.425E+02 0.817E+00 -.329E+02   0.842E+00 0.259E-01 0.287E+00   0.599E-05 -.675E-05 0.271E-05
   0.845E+00 -.417E+02 0.326E+02   -.817E+00 0.425E+02 -.329E+02   -.259E-01 -.842E+00 0.287E+00   0.675E-05 -.599E-05 0.271E-05
   0.845E+00 -.417E+02 0.326E+02   -.817E+00 0.425E+02 -.329E+02   -.259E-01 -.842E+00 0.287E+00   0.675E-05 -.599E-05 0.271E-05
   0.845E+00 -.417E+02 0.326E+02   -.817E+00 0.425E+02 -.329E+02   -.259E-01 -.842E+00 0.287E+00   0.675E-05 -.599E-05 0.271E-05
   0.845E+00 -.417E+02 0.326E+02   -.817E+00 0.425E+02 -.329E+02   -.259E-01 -.842E+00 0.287E+00   0.675E-05 -.599E-05 0.271E-05
   -.845E+00 0.417E+02 0.326E+02   0.817E+00 -.425E+02 -.329E+02   0.259E-01 0.842E+00 0.287E+00   -.675E-05 0.599E-05 0.271E-05
   -.845E+00 0.417E+02 0.326E+02   0.817E+00 -.425E+02 -.329E+02   0.259E-01 0.842E+00 0.287E+00   -.675E-05 0.599E-05 0.271E-05
   -.845E+00 0.417E+02 0.326E+02   0.817E+00 -.425E+02 -.329E+02   0.259E-01 0.842E+00 0.287E+00   -.675E-05 0.599E-05 0.271E-05
   -.845E+00 0.417E+02 0.326E+02   0.817E+00 -.425E+02 -.329E+02   0.259E-01 0.842E+00 0.287E+00   -.675E-05 0.599E-05 0.271E-05
   -.236E-07 0.260E-07 -.382E+02   -.142E-13 -.213E-13 0.367E+02   0.364E-26 -.711E-25 0.154E+01   0.294E-12 0.398E-12 -.250E-04
   -.236E-07 0.260E-07 -.382E+02   0.888E-15 -.284E-13 0.367E+02   -.614E-25 -.103E-24 0.154E+01   -.543E-12 0.476E-12 -.250E-04
   -.236E-07 0.260E-07 -.382E+02   -.568E-13 -.639E-13 0.367E+02   -.182E-25 0.129E-24 0.154E+01   0.284E-12 -.778E-13 -.250E-04
   -.236E-07 0.260E-07 -.382E+02   -.702E-13 -.568E-13 0.367E+02   -.525E-25 -.291E-25 0.154E+01   -.569E-12 0.130E-12 -.250E-04
   0.260E-07 -.236E-07 -.382E+02   -.227E-12 -.142E-12 0.367E+02   -.347E-25 -.129E-25 0.154E+01   -.380E-12 0.451E-12 -.250E-04
   0.260E-07 -.236E-07 -.382E+02   -.242E-12 -.199E-12 0.367E+02   -.469E-25 0.000E+00 0.154E+01   0.117E-13 0.362E-12 -.250E-04
   0.260E-07 -.235E-07 -.382E+02   -.256E-12 -.171E-12 0.367E+02   -.102E-24 -.258E-25 0.154E+01   -.332E-12 -.131E-13 -.250E-04
   0.260E-07 -.236E-07 -.382E+02   -.227E-12 -.171E-12 0.367E+02   0.784E-25 0.388E-25 0.154E+01   0.430E-13 0.800E-13 -.250E-04
   -.236E-07 0.261E-07 -.382E+02   -.355E-13 -.586E-13 0.367E+02   0.475E-25 -.533E-25 0.154E+01   -.250E-12 0.519E-12 -.250E-04
   -.236E-07 0.261E-07 -.382E+02   -.355E-13 -.108E-12 0.367E+02   -.323E-26 -.258E-25 0.154E+01   -.215E-12 0.532E-12 -.250E-04
   -.236E-07 0.261E-07 -.382E+02   -.284E-13 -.711E-13 0.367E+02   0.549E-25 0.323E-25 0.154E+01   -.847E-13 -.177E-12 -.250E-04
   -.236E-07 0.260E-07 -.382E+02   -.568E-13 -.135E-12 0.367E+02   0.719E-25 -.129E-24 0.154E+01   -.275E-12 -.136E-12 -.250E-04
   0.260E-07 -.236E-07 -.382E+02   -.251E-12 -.224E-12 0.367E+02   -.502E-25 0.190E-25 0.154E+01   0.299E-12 0.597E-12 -.250E-04
   0.260E-07 -.236E-07 -.382E+02   -.249E-12 -.226E-12 0.367E+02   0.355E-25 -.517E-25 0.154E+01   -.522E-12 0.731E-12 -.250E-04
   0.260E-07 -.236E-07 -.382E+02   -.258E-12 -.251E-12 0.367E+02   0.800E-25 0.258E-25 0.154E+01   0.387E-12 -.232E-12 -.250E-04
   0.260E-07 -.235E-07 -.382E+02   -.256E-12 -.194E-12 0.367E+02   -.501E-25 -.388E-25 0.154E+01   -.445E-12 -.165E-12 -.250E-04
   -.525E-07 0.583E-07 -.309E+02   0.139E-12 0.888E-13 0.291E+02   0.132E-25 0.103E-24 0.180E+01   0.359E-12 0.777E-13 0.114E-04
   -.525E-07 0.583E-07 -.309E+02   0.167E-12 0.853E-13 0.291E+02   0.242E-26 -.103E-24 0.180E+01   -.495E-12 0.960E-13 0.114E-04
   -.525E-07 0.583E-07 -.309E+02   0.171E-12 0.817E-13 0.291E+02   0.380E-25 -.775E-25 0.180E+01   0.329E-12 -.270E-12 0.114E-04
   -.525E-07 0.583E-07 -.309E+02   0.142E-12 0.114E-12 0.291E+02   0.727E-25 0.646E-25 0.180E+01   -.508E-12 -.648E-13 0.114E-04
   0.583E-07 -.525E-07 -.309E+02   -.995E-13 0.135E-12 0.291E+02   -.812E-25 0.517E-25 0.180E+01   -.181E-12 0.711E-13 0.114E-04
   0.583E-07 -.525E-07 -.309E+02   -.711E-13 0.135E-12 0.291E+02   0.555E-26 -.232E-25 0.180E+01   -.210E-12 0.967E-13 0.114E-04
   0.583E-07 -.525E-07 -.309E+02   -.604E-13 0.149E-12 0.291E+02   0.210E-25 0.517E-25 0.180E+01   -.127E-12 -.129E-12 0.114E-04
   0.583E-07 -.525E-07 -.309E+02   -.462E-13 0.149E-12 0.291E+02   -.364E-25 -.258E-25 0.180E+01   -.223E-12 -.125E-12 0.114E-04
   -.525E-07 0.583E-07 -.309E+02   0.675E-13 0.320E-13 0.291E+02   0.703E-25 -.258E-25 0.180E+01   -.341E-12 0.372E-12 0.114E-04
   -.525E-07 0.584E-07 -.309E+02   0.675E-13 -.258E-13 0.291E+02   0.557E-25 0.388E-25 0.180E+01   -.473E-15 0.368E-12 0.114E-04
   -.525E-07 0.583E-07 -.309E+02   0.128E-12 0.346E-13 0.291E+02   0.000E+00 -.129E-25 0.180E+01   -.247E-12 -.483E-12 0.114E-04
   -.525E-07 0.583E-07 -.309E+02   0.995E-13 0.622E-14 0.291E+02   -.170E-25 0.517E-25 0.180E+01   0.848E-14 -.403E-12 0.114E-04
   0.583E-07 -.525E-07 -.309E+02   -.109E-12 0.939E-13 0.291E+02   0.691E-25 0.129E-25 0.180E+01   0.332E-12 0.222E-12 0.114E-04
   0.583E-07 -.525E-07 -.309E+02   -.110E-12 0.101E-12 0.291E+02   -.872E-25 0.000E+00 0.180E+01   -.607E-12 0.376E-12 0.114E-04
   0.583E-07 -.525E-07 -.309E+02   -.128E-12 0.612E-13 0.291E+02   -.162E-25 0.517E-25 0.180E+01   0.274E-12 -.457E-12 0.114E-04
   0.583E-07 -.525E-07 -.309E+02   -.129E-12 0.609E-13 0.291E+02   -.848E-26 0.355E-25 0.180E+01   -.498E-12 -.341E-12 0.114E-04
 -----------------------------------------------------------------------------------------------
   0.430E-06 0.430E-06 -.627E+02   0.227E-12 0.343E-13 -.682E-12   -.423E-15 -.103E-24 0.627E+02   -.372E-11 0.365E-11 -.131E-03
 
 
 POSITION                                       TOTAL-FORCE (eV/Angst)
 -----------------------------------------------------------------------------------
      1.39154      1.38649      1.24569         0.003842     -0.002407     -0.022300
      6.63751      1.66145      1.24569         0.003842     -0.002407     -0.022300
      1.66650      6.63246      1.24569         0.003842     -0.002407     -0.022300
      6.91246      6.90741      1.24569         0.003842     -0.002407     -0.022300
      4.12938      4.13443      1.24569        -0.003842      0.002407     -0.022300
      9.37534      4.40938      1.24569        -0.003842      0.002407     -0.022300
      4.40433      9.38039      1.24569        -0.003842      0.002407     -0.022300
      9.65029      9.65535      1.24569        -0.003842      0.002407     -0.022300
      1.51144      3.99190      9.07186         0.002407     -0.003842     -0.022300
      6.75741      4.26685      9.07186         0.002407     -0.003842     -0.022300
      1.78640      9.23786      9.07186         0.002407     -0.003842     -0.022300
      7.03236      9.51282      9.07186         0.002407     -0.003842     -0.022300
      4.00948      1.52902      9.07186        -0.002407      0.003842     -0.022300
      9.25544      1.80398      9.07186        -0.002407      0.003842     -0.022300
      4.28443      6.77499      9.07186        -0.002407      0.003842     -0.022300
      9.53039      7.04994      9.07186        -0.002407      0.003842     -0.022300
      1.36892      1.37397      6.46314        -0.003842      0.002407     -0.022300
      6.61488      1.64892      6.46314        -0.003842      0.002407     -0.022300
      1.64387      6.61993      6.46314        -0.003842      0.002407     -0.022300
      6.88983      6.89489      6.46314        -0.003842      0.002407     -0.022300
      4.15200      4.14695      6.46314         0.003842     -0.002407     -0.022300
      9.39797      4.42191      6.46314         0.003842     -0.002407     -0.022300
      4.42696      9.39292      6.46314         0.003842     -0.002407     -0.022300
      9.67292      9.66787      6.46314         0.003842     -0.002407     -0.022300
      3.99695      1.50639      3.85441         0.002407     -0.003842     -0.022300
      9.24291      1.78135      3.85441         0.002407     -0.003842     -0.022300
      4.27190      6.75236      3.85441         0.002407     -0.003842     -0.022300
      9.51787      7.02731      3.85441         0.002407     -0.003842     -0.022300
      1.52397      4.01453      3.85441        -0.002407      0.003842     -0.022300
      6.76993      4.28948      3.85441        -0.002407      0.003842     -0.022300
      1.79893      9.26049      3.85441        -0.002407      0.003842     -0.022300
      7.04489      9.53545      3.85441        -0.002407      0.003842     -0.022300
      0.00000      0.00000      5.26878        -0.000000      0.000000      0.016860
      5.24596      0.27496      5.26878        -0.000000      0.000000      0.016860
      0.27496      5.24596      5.26878        -0.000000      0.000000      0.016860
      5.52092      5.52092      5.26878        -0.000000      0.000000      0.016860
      2.62298      0.13748      2.66005        -0.000000      0.000000      0.016860
      7.86894      0.41244      2.66005        -0.000000      0.000000      0.016860
      2.89794      5.38344      2.66005        -0.000000      0.000000      0.016860
      8.14390      5.65840      2.66005        -0.000000      0.000000      0.016860
      2.76046      2.76046      0.05133        -0.000000      0.000000      0.016860
      8.00642      3.03542      0.05133        -0.000000      0.000000      0.016860
      3.03542      8.00642      0.05133        -0.000000      0.000000      0.016860
      8.28138      8.28138      0.05133        -0.000000      0.000000      0.016860
      0.13748      2.62298      7.87750        -0.000000      0.000000      0.016860
      5.38344      2.89794      7.87750        -0.000000      0.000000      0.016860
      0.41244      7.86894      7.87750        -0.000000      0.000000      0.016860
      5.65840      8.14390      7.87750        -0.000000      0.000000      0.016860
      0.00000      0.00000      0.06601        -0.000000      0.000000      0.027740
      5.24596      0.27496      0.06601        -0.000000      0.000000      0.027740
      0.27496      5.24596      0.06601        -0.000000      0.000000      0.027740
      5.52092      5.52092      0.06601        -0.000000      0.000000      0.027740
      2.62298      0.13748      7.89218        -0.000000      0.000000      0.027740
      7.86894      0.41244      7.89218        -0.000000      0.000000      0.027740
      2.89794      5.38344      7.89218        -0.000000      0.000000      0.027740
      8.14390      5.65840      7.89218        -0.000000      0.000000      0.027740
      2.76046      2.76046      5.28346        -0.000000      0.000000      0.027740
      8.00642      3.03542      5.28346        -0.000000      0.000000      0.027740
      3.03542      8.00642      5.28346        -0.000000      0.000000      0.027740
      8.28138      8.28138      5.28346        -0.000000      0.000000      0.027740
      0.13748      2.62298      2.67474        -0.000000      0.000000      0.027740
      5.38344      2.89794      2.67474        -0.000000      0.000000      0.027740
      0.41244      7.86894      2.67474        -0.000000      0.000000      0.027740
      5.65840      8.14390      2.67474        -0.000000      0.000000      0.027740
 -----------------------------------------------------------------------------------
    total drift:                                0.000000      0.000000      0.010342


--------------------------------------------------------------------------------------------------------



  FREE ENERGIE OF THE ION-ELECTRON SYSTEM (eV)
  ---------------------------------------------------
  free  energy   TOTEN  =      -326.94659487 eV

  energy  without entropy=     -326.94659487  energy(sigma->0) =     -326.94659487
 


--------------------------------------------------------------------------------------------------------


    POTLOK:  cpu time    0.1562: real time    0.1570


--------------------------------------------------------------------------------------------------------


 writing wavefunctions
     LOOP+:  cpu time 2656.5950: real time 2675.5454
    4ORBIT:  cpu time    0.0000: real time    0.0000
 


 total charge     
 
# of ion       s       p       d       tot
------------------------------------------
    1        1.315   2.407   0.000   3.722
    2        1.315   2.407   0.000   3.722
    3        1.315   2.407   0.000   3.722
    4        1.315   2.407   0.000   3.722
    5        1.315   2.407   0.000   3.722
    6        1.315   2.407   0.000   3.722
    7        1.315   2.407   0.000   3.722
    8        1.315   2.407   0.000   3.722
    9        1.315   2.407   0.000   3.722
   10        1.315   2.407   0.000   3.722
   11        1.315   2.407   0.000   3.722
   12        1.315   2.407   0.000   3.722
   13        1.315   2.407   0.000   3.722
   14        1.315   2.407   0.000   3.722
   15        1.315   2.407   0.000   3.722
   16        1.315   2.407   0.000   3.722
   17        1.315   2.407   0.000   3.722
   18        1.315   2.407   0.000   3.722
   19        1.315   2.407   0.000   3.722
   20        1.315   2.407   0.000   3.722
   21        1.315   2.407   0.000   3.722
   22        1.315   2.407   0.000   3.722
   23        1.315   2.407   0.000   3.722
   24        1.315   2.407   0.000   3.722
   25        1.315   2.407   0.000   3.722
   26        1.315   2.407   0.000   3.722
   27        1.315   2.407   0.000   3.722
   28        1.315   2.407   0.000   3.722
   29        1.315   2.407   0.000   3.722
   30        1.315   2.407   0.000   3.722
   31        1.315   2.407   0.000   3.722
   32        1.315   2.407   0.000   3.722
   33        0.259   6.201   8.916  15.376
   34        0.259   6.201   8.916  15.376
   35        0.259   6.201   8.916  15.376
   36        0.259   6.201   8.916  15.376
   37        0.258   6.201   8.917  15.376
   38        0.258   6.201   8.917  15.376
   39        0.258   6.201   8.917  15.376
   40        0.258   6.201   8.917  15.376
   41        0.259   6.201   8.916  15.376
   42        0.259   6.201   8.916  15.376
   43        0.259   6.201   8.916  15.376
   44        0.259   6.201   8.916  15.376
   45        0.258   6.201   8.917  15.376
   46        0.258   6.201   8.917  15.376
   47        0.258   6.201   8.917  15.376
   48        0.258   6.201   8.917  15.376
   49        0.348   6.347   5.823  12.517
   50        0.348   6.347   5.823  12.517
   51        0.348   6.347   5.823  12.517
   52        0.348   6.347   5.823  12.517
   53        0.348   6.347   5.823  12.517
   54        0.348   6.347   5.823  12.517
   55        0.348   6.347   5.823  12.517
   56        0.348   6.347   5.823  12.517
   57        0.348   6.347   5.823  12.517
   58        0.348   6.347   5.823  12.517
   59        0.348   6.347   5.823  12.517
   60        0.348   6.347   5.823  12.517
   61        0.348   6.347   5.823  12.517
   62        0.348   6.347   5.823  12.517
   63        0.348   6.347   5.823  12.517
   64        0.348   6.347   5.823  12.517
--------------------------------------------------
tot         51.767 277.796 235.826 565.389
 


 magnetization (x)
 
# of ion       s       p       d       tot
------------------------------------------
    1       -0.001  -0.026   0.000  -0.027
    2       -0.001  -0.026   0.000  -0.027
    3       -0.001  -0.026   0.000  -0.027
    4       -0.001  -0.026   0.000  -0.027
    5       -0.001  -0.026   0.000  -0.027
    6       -0.001  -0.026   0.000  -0.027
    7       -0.001  -0.026   0.000  -0.027
    8       -0.001  -0.026   0.000  -0.027
    9        0.001   0.026   0.000   0.027
   10        0.001   0.026   0.000   0.027
   11        0.001   0.026   0.000   0.027
   12        0.001   0.026   0.000   0.027
   13        0.001   0.026   0.000   0.027
   14        0.001   0.026   0.000   0.027
   15        0.001   0.026   0.000   0.027
   16        0.001   0.026   0.000   0.027
   17       -0.001  -0.026   0.000  -0.027
   18       -0.001  -0.026   0.000  -0.027
   19       -0.001  -0.026   0.000  -0.027
   20       -0.001  -0.026   0.000  -0.027
   21       -0.001  -0.026   0.000  -0.027
   22       -0.001  -0.026   0.000  -0.027
   23       -0.001  -0.026   0.000  -0.027
   24       -0.001  -0.026   0.000  -0.027
   25        0.001   0.026   0.000   0.027
   26        0.001   0.026   0.000   0.027
   27        0.001   0.026   0.000   0.027
   28        0.001   0.026   0.000   0.027
   29        0.001   0.026   0.000   0.027
   30        0.001   0.026   0.000   0.027
   31        0.001   0.026   0.000   0.027
   32        0.001   0.026   0.000   0.027
   33        0.000  -0.000   0.003   0.003
   34        0.000  -0.000   0.003   0.003
   35        0.000  -0.000   0.003   0.003
   36        0.000  -0.000   0.003   0.003
   37       -0.000   0.000  -0.004  -0.003
   38       -0.000   0.000  -0.004  -0.003
   39       -0.000   0.000  -0.004  -0.003
   40       -0.000   0.000  -0.004  -0.003
   41        0.000  -0.000   0.003   0.003
   42        0.000  -0.000   0.003   0.003
   43        0.000  -0.000   0.003   0.003
   44        0.000  -0.000   0.003   0.003
   45       -0.000   0.000  -0.004  -0.003
   46       -0.000   0.000  -0.004  -0.003
   47       -0.000   0.000  -0.004  -0.003
   48       -0.000   0.000  -0.004  -0.003
   49        0.020   0.053   3.667   3.740
   50        0.020   0.053   3.667   3.740
   51        0.020   0.053   3.667   3.740
   52        0.020   0.053   3.667   3.740
   53       -0.020  -0.053  -3.667  -3.740
   54       -0.020  -0.053  -3.667  -3.740
   55       -0.020  -0.053  -3.667  -3.740
   56       -0.020  -0.053  -3.667  -3.740
   57        0.020   0.053   3.667   3.740
   58        0.020   0.053   3.667   3.740
   59        0.020   0.053   3.667   3.740
   60        0.020   0.053   3.667   3.740
   61       -0.020  -0.053  -3.667  -3.740
   62       -0.020  -0.053  -3.667  -3.740
   63       -0.020  -0.053  -3.667  -3.740
   64       -0.020  -0.053  -3.667  -3.740
--------------------------------------------------
tot         -0.002   0.002  -0.002  -0.001
 
 BZINTS: Fermi energy:  5.170018;688.000000 electrons
         Band energy:***********;  BLOECHL correction:  0.000000

 total amount of memory used by VASP MPI-rank0   300225. kBytes
=======================================================================

   base      :      30000. kBytes
   nonl-proj :     174956. kBytes
   fftplans  :       4588. kBytes
   grid      :      69719. kBytes
   one-center:       1990. kBytes
   wavefun   :      18972. kBytes
 
  
  
 General timing and accounting informations for this job:
 ========================================================
  
                  Total CPU time used (sec):     2706.917
                            User time (sec):     2697.002
                          System time (sec):        9.916
                         Elapsed time (sec):     2729.309
  
                   Maximum memory used (kb):      659112.
                   Average memory used (kb):           0.
  
                          Minor page faults:       526259
                          Major page faults:         5811
                 Voluntary context switches:         7201
