       N       E                     dE             d eps       ncg     rms          rms(c)
DAV:   1     0.603503821886E+04    0.60350E+04   -0.51702E+05 16384   0.196E+03
DAV:   2    -0.915454881323E+02   -0.61266E+04   -0.60181E+04 17664   0.446E+02
DAV:   3    -0.342504183278E+03   -0.25096E+03   -0.25004E+03 23296   0.980E+01
DAV:   4    -0.345931601712E+03   -0.34274E+01   -0.34273E+01 18688   0.115E+01
DAV:   5    -0.346036119327E+03   -0.10452E+00   -0.10452E+00 22784   0.198E+00    0.325E+01
DAV:   6    -0.332389694638E+03    0.13646E+02   -0.13523E+01 25600   0.120E+01    0.179E+01
DAV:   7    -0.328485462594E+03    0.39042E+01   -0.91634E+00 21504   0.853E+00    0.135E+01
DAV:   8    -0.327928174241E+03    0.55729E+00   -0.29659E+00 22016   0.400E+00    0.506E+00
DAV:   9    -0.327906072556E+03    0.22102E-01   -0.65690E-01 22784   0.244E+00    0.253E+00
DAV:  10    -0.327947141434E+03   -0.41069E-01   -0.69011E-01 22272   0.218E+00    0.278E+00
DAV:  11    -0.327921362490E+03    0.25779E-01   -0.33696E-01 19968   0.162E+00    0.928E-01
DAV:  12    -0.327932818897E+03   -0.11456E-01   -0.36354E-02 20992   0.303E-01    0.370E-01
DAV:  13    -0.327934683461E+03   -0.18646E-02   -0.79628E-03 23040   0.179E-01    0.214E-01
DAV:  14    -0.327935633974E+03   -0.95051E-03   -0.27460E-03 19200   0.741E-02    0.108E-01
DAV:  15    -0.327936070081E+03   -0.43611E-03   -0.11163E-03 22528   0.400E-02    0.569E-02
DAV:  16    -0.327936249350E+03   -0.17927E-03   -0.52300E-04 17920   0.229E-02    0.386E-02
DAV:  17    -0.327936334257E+03   -0.84907E-04   -0.40655E-04 21504   0.213E-02    0.204E-02
DAV:  18    -0.327936352624E+03   -0.18367E-04   -0.11129E-04 19200   0.116E-02    0.960E-03
DAV:  19    -0.327936354810E+03   -0.21863E-05   -0.10054E-05 20992   0.446E-03    0.623E-03
DAV:  20    -0.327936355576E+03   -0.76582E-06   -0.57570E-06 21760   0.307E-03    0.329E-03
DAV:  21    -0.327936355810E+03   -0.23413E-06   -0.89891E-07 19968   0.131E-03    0.156E-03
DAV:  22    -0.327936355883E+03   -0.72439E-07   -0.13354E-07 22016   0.649E-04    0.826E-04
DAV:  23    -0.327936355912E+03   -0.29657E-07   -0.40842E-08 14592   0.314E-04    0.406E-04
DAV:  24    -0.327936355932E+03   -0.19616E-07   -0.25932E-08 17152   0.179E-04    0.210E-04
DAV:  25    -0.327936355936E+03   -0.44529E-08   -0.92439E-09 13312   0.108E-04
   1 F= -.32793636E+03 E0= -.32793636E+03  d E =0.000000E+00  mag=     0.0000
