 vasp.5.4.4.18Apr17-6-g9f103f2a35 (build Oct 30 2023 17:30:16) complex          
  
 executed on             LinuxIFC date 2024.06.30  18:50:51
 running on  256 total cores
 distrk:  each k-point on  256 cores,    1 groups
 distr:  one band on NCORES_PER_BAND=   1 cores,  256 groups


--------------------------------------------------------------------------------------------------------


 INCAR:
 POTCAR:    PAW_PBE S 06Sep2000                   
 POTCAR:     PAW_PBE Cu_pv 06Sep2000              
 POTCAR:     PAW_PBE Fe_pv 02Aug2007              

 ----------------------------------------------------------------------------- 
|                                                                             |
|           W    W    AA    RRRRR   N    N  II  N    N   GGGG   !!!           |
|           W    W   A  A   R    R  NN   N  II  NN   N  G    G  !!!           |
|           W    W  A    A  R    R  N N  N  II  N N  N  G       !!!           |
|           W WW W  AAAAAA  RRRRR   N  N N  II  N  N N  G  GGG   !            |
|           WW  WW  A    A  R   R   N   NN  II  N   NN  G    G                |
|           W    W  A    A  R    R  N    N  II  N    N   GGGG   !!!           |
|                                                                             |
|      For optimal performance we recommend to set                            |
|        NCORE= 4 - approx SQRT( number of cores)                             |
|      NCORE specifies how many cores store one orbital (NPAR=cpu/NCORE).     |
|      This setting can  greatly improve the performance of VASP for DFT.     |
|      The default,   NCORE=1            might be grossly inefficient         |
|      on modern multi-core architectures or massively parallel machines.     |
|      Do your own testing !!!!                                               |
|      Unfortunately you need to use the default for GW and RPA calculations. |
|      (for HF NCORE is supported but not extensively tested yet)             |
|                                                                             |
 ----------------------------------------------------------------------------- 

 POTCAR:    PAW_PBE S 06Sep2000                   
   SHA256 =  0fc7481fb0695f01bdc6462160264c5c84044ae9ec85a907d398b887a2bc3132 S/
   COPYR  = (c) Copyright 06Sep2000 Georg Kresse                                
   COPYR  = This file is part of the software VASP. Any use, copying, and all ot
   COPYR  = If you do not have a valid VASP license, you may not use, copy or di
   VRHFIN =S : s2p4                                                             
   LEXCH  = PE                                                                  
   EATOM  =   276.8230 eV,   20.3459 Ry                                         
                                                                                
   TITEL  = PAW_PBE S 06Sep2000                                                 
   LULTRA =        F    use ultrasoft PP ?                                      
   IUNSCR =        1    unscreen: 0-lin 1-nonlin 2-no                           
   RPACOR =    1.500    partial core radius                                     
   POMASS =   32.066; ZVAL   =    6.000    mass and valenz                      
   RCORE  =    1.900    outmost cutoff radius                                   
   RWIGS  =    2.200; RWIGS  =    1.164    wigner-seitz radius (au A)           
   ENMAX  =  258.689; ENMIN  =  194.016 eV                                      
   ICORE  =        2    local potential                                         
   LCOR   =        T    correct aug charges                                     
   LPAW   =        T    paw PP                                                  
   EAUG   =  335.092                                                            
   DEXC   =    0.000                                                            
   RMAX   =    1.942    core radius for proj-oper                               
   RAUG   =    1.300    factor for augmentation sphere                          
   RDEP   =    1.954    radius for radial grids                                 
   RDEPT  =    1.744    core radius for aug-charge                              
                                                                                
   Atomic configuration                                                         
    6 entries                                                                   
     n  l   j            E        occ.                                          
     1  0  0.50     -2405.8406   2.0000                                         
     2  0  0.50      -211.7007   2.0000                                         
     2  1  1.50      -156.4958   6.0000                                         
     3  0  0.50       -17.2562   2.0000                                         
     3  1  0.50        -7.0085   4.0000                                         
     3  2  1.50        -6.8029   0.0000                                         
   Description                                                                  
     l       E           TYP  RCUT    TYP  RCUT                                 
     0    -17.2561641     23  1.900                                             
     0    -15.8743224     23  1.900                                             
     1     -7.0085400     23  1.900                                             
     1     -2.7779785     23  1.900                                             
     2     -6.8029130     23  1.900                                             
  local pseudopotential read in
  partial core-charges read in
  partial kinetic energy density read in
  atomic valenz-charges read in
  non local Contribution for L=           0  read in
    real space projection operators read in
  non local Contribution for L=           0  read in
    real space projection operators read in
  non local Contribution for L=           1  read in
    real space projection operators read in
  non local Contribution for L=           1  read in
    real space projection operators read in
    PAW grid and wavefunctions read in
 
   number of l-projection  operators is LMAX  =           4
   number of lm-projection operators is LMMAX =           8
 
 POTCAR:     PAW_PBE Cu_pv 06Sep2000              
   SHA256 =  cb7b504e2ea725fe1f25c85a9ac77d4012ce94cd394135b722c4e25ec297f1cb Cu
   COPYR  = (c) Copyright 06Sep2000 Georg Kresse                                
   COPYR  = This file is part of the software VASP. Any use, copying, and all ot
   COPYR  = If you do not have a valid VASP license, you may not use, copy or di
   VRHFIN =Cu: d10 p1                                                           
   LEXCH  = PE                                                                  
   EATOM  =  4120.1201 eV,  302.8203 Ry                                         
                                                                                
   TITEL  = PAW_PBE Cu_pv 06Sep2000                                             
   LULTRA =        F    use ultrasoft PP ?                                      
   IUNSCR =        1    unscreen: 0-lin 1-nonlin 2-no                           
   RPACOR =    1.500    partial core radius                                     
   POMASS =   63.546; ZVAL   =   17.000    mass and valenz                      
   RCORE  =    2.000    outmost cutoff radius                                   
   RWIGS  =    2.000; RWIGS  =    1.058    wigner-seitz radius (au A)           
   ENMAX  =  368.648; ENMIN  =  276.486 eV                                      
   RCLOC  =    1.304    cutoff for local pot                                    
   LCOR   =        T    correct aug charges                                     
   LPAW   =        T    paw PP                                                  
   EAUG   =  758.233                                                            
   DEXC   =    0.000                                                            
   RMAX   =    2.046    core radius for proj-oper                               
   RAUG   =    1.300    factor for augmentation sphere                          
   RDEP   =    2.025    radius for radial grids                                 
   RDEPT  =    1.558    core radius for aug-charge                              
                                                                                
   Atomic configuration                                                         
    8 entries                                                                   
     n  l   j            E        occ.                                          
     1  0  0.50     -8850.2467   2.0000                                         
     2  0  0.50     -1062.3498   2.0000                                         
     2  1  1.50      -916.8226   6.0000                                         
     3  0  0.50      -114.6929   2.0000                                         
     3  1  1.50       -72.1325   6.0000                                         
     3  2  2.50        -5.0394  10.0000                                         
     4  0  0.50        -4.6097   1.0000                                         
     4  3  2.50        -1.3606   0.0000                                         
   Description                                                                  
     l       E           TYP  RCUT    TYP  RCUT                                 
     1    -72.1324777     23  1.700                                             
     1     -1.3605826     23  1.700                                             
     2     -5.0393776     23  2.000                                             
     2     -6.3999602     23  2.000                                             
     0     -4.6097062     23  1.800                                             
     0     14.1620818     23  1.800                                             
  local pseudopotential read in
  partial core-charges read in
  partial kinetic energy density read in
  atomic valenz-charges read in
  non local Contribution for L=           1  read in
    real space projection operators read in
  non local Contribution for L=           1  read in
    real space projection operators read in
  non local Contribution for L=           2  read in
    real space projection operators read in
  non local Contribution for L=           2  read in
    real space projection operators read in
  non local Contribution for L=           0  read in
    real space projection operators read in
  non local Contribution for L=           0  read in
    real space projection operators read in
    PAW grid and wavefunctions read in
 
   number of l-projection  operators is LMAX  =           6
   number of lm-projection operators is LMMAX =          18
 
 POTCAR:     PAW_PBE Fe_pv 02Aug2007              
   SHA256 =  5d22e414b1f82158bf2c7ecb8b97b28fd0923e48cadc1c3bf74d524558f5dd32 Fe
   COPYR  = (c) Copyright 02Aug2007 Georg Kresse                                
   COPYR  = This file is part of the software VASP. Any use, copying, and all ot
   COPYR  = If you do not have a valid VASP license, you may not use, copy or di
   VRHFIN =Fe:  3pd7s1                                                          
   LEXCH  = PE                                                                  
   EATOM  =  2457.4239 eV,  180.6156 Ry                                         
                                                                                
   TITEL  = PAW_PBE Fe_pv 02Aug2007                                             
   LULTRA =        F    use ultrasoft PP ?                                      
   IUNSCR =        1    unscreen: 0-lin 1-nonlin 2-no                           
   RPACOR =    1.750    partial core radius                                     
   POMASS =   55.847; ZVAL   =   14.000    mass and valenz                      
   RCORE  =    2.200    outmost cutoff radius                                   
   RWIGS  =    2.200; RWIGS  =    1.164    wigner-seitz radius (au A)           
   ENMAX  =  293.238; ENMIN  =  219.928 eV                                      
   ICORE  =        3    local potential                                         
   LCOR   =        T    correct aug charges                                     
   LPAW   =        T    paw PP                                                  
   EAUG   =  578.342                                                            
   DEXC   =    0.000                                                            
   RMAX   =    2.249    core radius for proj-oper                               
   RAUG   =    1.300    factor for augmentation sphere                          
   RDEP   =    2.296    radius for radial grids                                 
   RDEPT  =    1.766    core radius for aug-charge                              
                                                                                
   Atomic configuration                                                         
    8 entries                                                                   
     n  l   j            E        occ.                                          
     1  0  0.50     -6993.8440   2.0000                                         
     2  0  0.50      -814.6047   2.0000                                         
     2  1  1.50      -693.3689   6.0000                                         
     3  0  0.50       -89.4732   2.0000                                         
     3  1  1.50       -55.6373   6.0000                                         
     3  2  2.50        -3.8151   7.0000                                         
     4  0  0.50        -4.2551   1.0000                                         
     4  3  2.50        -1.3606   0.0000                                         
   Description                                                                  
     l       E           TYP  RCUT    TYP  RCUT                                 
     1    -55.6372668     23  2.000                                             
     1     -5.4423304     23  2.000                                             
     2     -3.8151096     23  2.200                                             
     2     -5.1756922     23  2.200                                             
     0     -4.2550951     23  2.200                                             
     0     27.2116520     23  2.200                                             
     3     -1.3605826     23  2.200                                             
  local pseudopotential read in
  partial core-charges read in
  partial kinetic energy density read in
  atomic valenz-charges read in
  non local Contribution for L=           1  read in
    real space projection operators read in
  non local Contribution for L=           1  read in
    real space projection operators read in
  non local Contribution for L=           2  read in
    real space projection operators read in
  non local Contribution for L=           2  read in
    real space projection operators read in
  non local Contribution for L=           0  read in
    real space projection operators read in
  non local Contribution for L=           0  read in
    real space projection operators read in
    PAW grid and wavefunctions read in
 
   number of l-projection  operators is LMAX  =           6
   number of lm-projection operators is LMMAX =          18
 

 ----------------------------------------------------------------------------- 
|                                                                             |
|  ADVICE TO THIS USER RUNNING 'VASP/VAMP'   (HEAR YOUR MASTER'S VOICE ...):  |
|                                                                             |
|      You have a (more or less) 'large supercell' and for larger cells       |
|      it might be more efficient to use real space projection opertators     |
|      So try LREAL= Auto  in the INCAR   file.                               |
|      Mind:          For very  accurate calculation you might also keep the  |
|      reciprocal projection scheme          (i.e. LREAL=.FALSE.)             |
|                                                                             |
 ----------------------------------------------------------------------------- 


 ----------------------------------------------------------------------------- 
|                                                                             |
|  ADVICE TO THIS USER RUNNING 'VASP/VAMP'   (HEAR YOUR MASTER'S VOICE ...):  |
|                                                                             |
|      You enforced a specific xc-type in the INCAR file,                     |
|      a different type was found on the POTCAR file                          |
|          I HOPE YOU KNOW, WHAT YOU ARE  DOING                               |
|                                                                             |
 ----------------------------------------------------------------------------- 

  PAW_PBE S 06Sep2000                   :
 energy of atom  1       EATOM= -276.8230
 kinetic energy error for atom=    0.0007 (will be added to EATOM!!)
   PAW_PBE Cu_pv 06Sep2000              :
 energy of atom  2       EATOM=-4120.1201
 kinetic energy error for atom=    0.0094 (will be added to EATOM!!)
   PAW_PBE Fe_pv 02Aug2007              :
 energy of atom  3       EATOM=-2457.4239
 kinetic energy error for atom=    0.0025 (will be added to EATOM!!)
 
 
 POSCAR: Fe16 Cu16 S32                           
  positions in direct lattice
  No initial velocities read in
 exchange correlation table for  LEXCH =       14
   RHO(1)=    0.500       N(1)  =     2000
   RHO(2)=  100.500       N(2)  =     4000
 


--------------------------------------------------------------------------------------------------------


 ion  position               nearest neighbor table
   1  0.126  0.122  0.125-  41 2.26  37 2.27  61 2.27  49 2.28
   2  0.626  0.122  0.125-  42 2.26  38 2.27  62 2.27  50 2.28
   3  0.126  0.622  0.125-  43 2.26  39 2.27  63 2.27  51 2.28
   4  0.626  0.622  0.125-  44 2.26  40 2.27  64 2.27  52 2.28
   5  0.374  0.372  0.125-  39 2.26  41 2.27  52 2.27  62 2.28
   6  0.874  0.372  0.125-  40 2.26  42 2.27  51 2.27  61 2.28
   7  0.374  0.872  0.125-  37 2.26  43 2.27  50 2.27  64 2.28
   8  0.874  0.872  0.125-  38 2.26  44 2.27  49 2.27  63 2.28
   9  0.125  0.372  0.875-  41 2.26  45 2.26  51 2.27  55 2.27
  10  0.625  0.372  0.875-  42 2.26  46 2.26  52 2.27  56 2.27
  11  0.125  0.872  0.875-  43 2.26  47 2.26  49 2.27  53 2.27
  12  0.625  0.872  0.875-  44 2.26  48 2.26  50 2.27  54 2.27
  13  0.375  0.124  0.875-  41 2.26  46 2.26  50 2.28  53 2.28
  14  0.875  0.124  0.875-  42 2.26  45 2.26  49 2.28  54 2.28
  15  0.375  0.624  0.875-  43 2.26  48 2.26  52 2.28  55 2.28
  16  0.875  0.624  0.875-  44 2.26  47 2.26  51 2.28  56 2.28
  17  0.124  0.122  0.625-  45 2.26  33 2.27  57 2.27  53 2.28
  18  0.624  0.122  0.625-  46 2.26  34 2.27  58 2.27  54 2.28
  19  0.124  0.622  0.625-  47 2.26  35 2.27  59 2.27  55 2.28
  20  0.624  0.622  0.625-  48 2.26  36 2.27  60 2.27  56 2.28
  21  0.376  0.372  0.625-  36 2.26  46 2.27  55 2.27  57 2.28
  22  0.876  0.372  0.625-  35 2.26  45 2.27  56 2.27  58 2.28
  23  0.376  0.872  0.625-  34 2.26  48 2.27  53 2.27  59 2.28
  24  0.876  0.872  0.625-  33 2.26  47 2.27  54 2.27  60 2.28
  25  0.375  0.122  0.375-  34 2.26  37 2.26  57 2.27  62 2.27
  26  0.875  0.122  0.375-  33 2.26  38 2.26  58 2.27  61 2.27
  27  0.375  0.622  0.375-  36 2.26  39 2.26  59 2.27  64 2.27
  28  0.875  0.622  0.375-  35 2.26  40 2.26  60 2.27  63 2.27
  29  0.125  0.374  0.375-  35 2.26  39 2.26  57 2.28  61 2.28
  30  0.625  0.374  0.375-  36 2.26  40 2.26  58 2.28  62 2.28
  31  0.125  0.874  0.375-  33 2.26  37 2.26  59 2.28  63 2.28
  32  0.625  0.874  0.375-  34 2.26  38 2.26  60 2.28  64 2.28
  33  0.999  0.002  0.500-  24 2.26  31 2.26  26 2.26  17 2.27
  34  0.499  0.002  0.500-  23 2.26  32 2.26  25 2.26  18 2.27
  35  0.999  0.502  0.500-  22 2.26  29 2.26  28 2.26  19 2.27
  36  0.499  0.502  0.500-  21 2.26  30 2.26  27 2.26  20 2.27
  37  0.251  0.002  0.250-   7 2.26  31 2.26  25 2.26   1 2.27
  38  0.751  0.002  0.250-   8 2.26  32 2.26  26 2.26   2 2.27
  39  0.251  0.502  0.250-   5 2.26  29 2.26  27 2.26   3 2.27
  40  0.751  0.502  0.250-   6 2.26  30 2.26  28 2.26   4 2.27
  41  0.249  0.252  1.000-   1 2.26  13 2.26   9 2.26   5 2.27
  42  0.749  0.252  1.000-   2 2.26  14 2.26  10 2.26   6 2.27
  43  0.249  0.752  1.000-   3 2.26  15 2.26  11 2.26   7 2.27
  44  0.749  0.752  1.000-   4 2.26  16 2.26  12 2.26   8 2.27
  45  0.001  0.252  0.750-  17 2.26  14 2.26   9 2.26  22 2.27
  46  0.501  0.252  0.750-  18 2.26  13 2.26  10 2.26  21 2.27
  47  0.001  0.752  0.750-  19 2.26  16 2.26  11 2.26  24 2.27
  48  0.501  0.752  0.750-  20 2.26  15 2.26  12 2.26  23 2.27
  49  0.999  0.002  0.000-   8 2.27  11 2.27  14 2.28   1 2.28
  50  0.499  0.002  0.000-   7 2.27  12 2.27  13 2.28   2 2.28
  51  0.999  0.502  0.000-   6 2.27   9 2.27  16 2.28   3 2.28
  52  0.499  0.502  0.000-   5 2.27  10 2.27  15 2.28   4 2.28
  53  0.251  0.002  0.750-  23 2.27  11 2.27  13 2.28  17 2.28
  54  0.751  0.002  0.750-  24 2.27  12 2.27  14 2.28  18 2.28
  55  0.251  0.502  0.750-  21 2.27   9 2.27  15 2.28  19 2.28
  56  0.751  0.502  0.750-  22 2.27  10 2.27  16 2.28  20 2.28
  57  0.249  0.252  0.500-  17 2.27  25 2.27  29 2.28  21 2.28
  58  0.749  0.252  0.500-  18 2.27  26 2.27  30 2.28  22 2.28
  59  0.249  0.752  0.500-  19 2.27  27 2.27  31 2.28  23 2.28
  60  0.749  0.752  0.500-  20 2.27  28 2.27  32 2.28  24 2.28
  61  0.001  0.252  0.250-   1 2.27  26 2.27  29 2.28   6 2.28
  62  0.501  0.252  0.250-   2 2.27  25 2.27  30 2.28   5 2.28
  63  0.001  0.752  0.250-   3 2.27  28 2.27  31 2.28   8 2.28
  64  0.501  0.752  0.250-   4 2.27  27 2.27  32 2.28   7 2.28
 
  LATTYP: Found a simple monoclinic cell.
 ALAT       =    15.0993111142
 B/A-ratio  =     0.6967161561
 C/A-ratio  =     1.5701743372
 COS(beta)  =    -0.9522385774
  
  Lattice vectors:
  
 A1 = ( -10.7281130000,   0.0000000000, -10.6252900000)
 A2 = (   0.0000000000, -10.5199340000,   0.0000000000)
 A3 = (  10.9460580000,   0.0000000000,  21.0304350000)


Analysis of symmetry for initial positions (statically):
=====================================================================
 Subroutine PRICEL returns following result:
 
  LATTYP: Found a base centered monoclinic cell.
 ALAT       =    11.4612951749
 B/A-ratio  =     0.4589330368
 C/A-ratio  =     0.9080498422
 COS(beta)  =    -0.8078353742
  
  Lattice vectors:
  
 A1 = (  -2.5185695000,  -2.6299835000,   5.1475362500)
 A2 = (  -2.5185695000,   2.6299835000,   5.1475362500)
 A3 = (  -0.2179450000,   0.0000000000, -10.4051450000)
 
   8 primitive cells build up your supercell.
 

 Routine SETGRP: Setting up the symmetry group for a 
 simple monoclinic supercell.


 Subroutine GETGRP returns: Found  2 space group operations
 (whereof  1 operations were pure point group operations)
 out of a pool of  4 trial point group operations.


The static configuration has the point symmetry C_1 .
 The point group associated with its full space group is C_2 .


Analysis of symmetry for dynamics (positions and initial velocities):
=====================================================================
 Subroutine PRICEL returns following result:
 
  LATTYP: Found a base centered monoclinic cell.
 ALAT       =    11.4612951749
 B/A-ratio  =     0.4589330368
 C/A-ratio  =     0.9080498422
 COS(beta)  =    -0.8078353742
  
  Lattice vectors:
  
 A1 = (  -2.5185695000,  -2.6299835000,   5.1475362500)
 A2 = (  -2.5185695000,   2.6299835000,   5.1475362500)
 A3 = (  -0.2179450000,   0.0000000000, -10.4051450000)
 
   8 primitive cells build up your supercell.
 

 Routine SETGRP: Setting up the symmetry group for a 
 simple monoclinic supercell.


 Subroutine GETGRP returns: Found  2 space group operations
 (whereof  1 operations were pure point group operations)
 out of a pool of  4 trial point group operations.


The dynamic configuration has the point symmetry C_1 .
 The point group associated with its full space group is C_2 .


Analysis of structural, dynamic, and magnetic symmetry:
=====================================================================
 Subroutine PRICEL returns following result:
 
  LATTYP: Found a base centered monoclinic cell.
 ALAT       =    11.4612951749
 B/A-ratio  =     0.4589330368
 C/A-ratio  =     0.9080498422
 COS(beta)  =    -0.8078353742
  
  Lattice vectors:
  
 A1 = (  -2.5185695000,  -2.6299835000,   5.1475362500)
 A2 = (  -2.5185695000,   2.6299835000,   5.1475362500)
 A3 = (  -0.2179450000,   0.0000000000, -10.4051450000)
 
   8 primitive cells build up your supercell.
 

 Routine SETGRP: Setting up the symmetry group for a 
 simple monoclinic supercell.


 Subroutine GETGRP returns: Found  2 space group operations
 (whereof  1 operations were pure point group operations)
 out of a pool of  4 trial point group operations.


The magnetic configuration has the point symmetry C_1 .
 The point group associated with its full space group is C_2 .


 Subroutine INISYM returns: Found  2 space group operations
 (whereof  1 operations are pure point group operations),
 and found     8 'primitive' translations

 
 
 KPOINTS: Automatic mesh                          

Automatic generation of k-mesh.
Space group operators:
 irot       det(A)        alpha          n_x          n_y          n_z        tau_x        tau_y        tau_z
    1     1.000000     0.000001     1.000000     0.000000     0.000000     0.000000     0.000000     0.000000
    2     1.000000   180.000000     0.000000     1.000000     0.000000    -0.250000     0.000000    -0.250000
 
 Subroutine IBZKPT returns following result:
 ===========================================
 
 Found      8 irreducible k-points:
 
 Following reciprocal coordinates:
            Coordinates               Weight
  0.000000  0.000000  0.000000      1.000000
  0.500000  0.000000 -0.000000      1.000000
  0.000000  0.500000  0.000000      1.000000
  0.500000  0.500000 -0.000000      1.000000
  0.000000  0.000000  0.500000      1.000000
  0.500000  0.000000  0.500000      1.000000
  0.000000  0.500000  0.500000      1.000000
  0.500000  0.500000  0.500000      1.000000
 
 Following cartesian coordinates:
            Coordinates               Weight
  0.000000  0.000000  0.000000      1.000000
  0.047594  0.000000 -0.000997      1.000000
  0.000000  0.047529  0.000000      1.000000
  0.047594  0.047529 -0.000997      1.000000
 -0.001007  0.000000  0.048074      1.000000
  0.046587  0.000000  0.047077      1.000000
 -0.001007  0.047529  0.048074      1.000000
  0.046587  0.047529  0.047077      1.000000
 
 TETIRR: Found     24 inequivalent tetrahedra from       48
 
 Subroutine IBZKPT_HF returns following result:
 ==============================================
 
 Found      8 k-points in 1st BZ
 the following      8 k-points will be used (e.g. in the exchange kernel)
 Following reciprocal coordinates:   # in IRBZ
  0.000000  0.000000  0.000000    0.12500000   1 t-inv F
  0.500000  0.000000 -0.000000    0.12500000   2 t-inv F
  0.000000  0.500000  0.000000    0.12500000   3 t-inv F
  0.500000  0.500000 -0.000000    0.12500000   4 t-inv F
  0.000000  0.000000  0.500000    0.12500000   5 t-inv F
  0.500000  0.000000  0.500000    0.12500000   6 t-inv F
  0.000000  0.500000  0.500000    0.12500000   7 t-inv F
  0.500000  0.500000  0.500000    0.12500000   8 t-inv F


--------------------------------------------------------------------------------------------------------




 Dimension of arrays:
   k-points           NKPTS =      8   k-points in BZ     NKDIM =      8   number of bands    NBANDS=    512
   number of dos      NEDOS =    301   number of ions     NIONS =     64
   non local maximal  LDIM  =      6   non local SUM 2l+1 LMDIM =     18
   total plane-waves  NPLWV = 829440
   max r-space proj   IRMAX =      1   max aug-charges    IRDMAX=  22921
   dimension x,y,z NGX =    96 NGY =   96 NGZ =   90
   dimension x,y,z NGXF=   192 NGYF=  192 NGZF=  180
   support grid    NGXF=   192 NGYF=  192 NGZF=  180
   ions per type =              32  16  16
   NGX,Y,Z   is equivalent  to a cutoff of  15.18, 15.17, 14.38 a.u.
   NGXF,Y,Z  is equivalent  to a cutoff of  30.36, 30.34, 28.75 a.u.

 SYSTEM =  CuFeS2                                  
 POSCAR =  Fe16 Cu16 S32                           

 Startparameter for this run:
   NWRITE =      2    write-flag & timer
   PREC   = accura    normal or accurate (medium, high low for compatibility)
   ISTART =      0    job   : 0-new  1-cont  2-samecut
   ICHARG =      1    charge: 1-file 2-atom 10-const
   ISPIN  =      2    spin polarized calculation?
   LNONCOLLINEAR =      F non collinear calculations
   LSORBIT =      F    spin-orbit coupling
   INIWAV =      1    electr: 0-lowe 1-rand  2-diag
   LASPH  =      F    aspherical Exc in radial PAW
   METAGGA=      F    non-selfconsistent MetaGGA calc.

 Electronic Relaxation 1
   ENCUT  =  700.0 eV  51.45 Ry    7.17 a.u.  22.68 22.69 22.45*2*pi/ulx,y,z
   ENINI  =  700.0     initial cutoff
   ENAUG  =  758.2 eV  augmentation charge cutoff
   NELM   =    500;   NELMIN=  2; NELMDL= -5     # of ELM steps 
   EDIFF  = 0.1E-07   stopping-criterion for ELM
   LREAL  =      F    real-space projection
   NLSPLINE    = F    spline interpolate recip. space projectors
   LCOMPAT=      F    compatible to vasp.4.4
   GGA_COMPAT  = T    GGA compatible to vasp.4.4-vasp.4.6
   LMAXPAW     = -100 max onsite density
   LMAXMIX     =    4 max onsite mixed and CHGCAR
   VOSKOWN=      0    Vosko Wilk Nusair interpolation
   ROPT   =    0.00000   0.00000   0.00000
 Ionic relaxation
   EDIFFG = -.1E-04   stopping-criterion for IOM
   NSW    =      0    number of steps for IOM
   NBLOCK =      1;   KBLOCK =      1    inner block; outer block 
   IBRION =     -1    ionic relax: 0-MD 1-quasi-New 2-CG
   NFREE  =      0    steps in history (QN), initial steepest desc. (CG)
   ISIF   =      2    stress and relaxation
   IWAVPR =     10    prediction:  0-non 1-charg 2-wave 3-comb
   ISYM   =      2    0-nonsym 1-usesym 2-fastsym
   LCORR  =      T    Harris-Foulkes like correction to forces

   POTIM  = 0.5000    time-step for ionic-motion
   TEIN   =    0.0    initial temperature
   TEBEG  =    0.0;   TEEND  =   0.0 temperature during run
   SMASS  =  -3.00    Nose mass-parameter (am)
   estimated Nose-frequenzy (Omega)   =  0.10E-29 period in steps =****** mass=  -0.253E-26a.u.
   SCALEE = 1.0000    scale energy and forces
   NPACO  =    256;   APACO  = 16.0  distance and # of slots for P.C.
   PSTRESS=    0.0 pullay stress

  Mass of Ions in am
   POMASS =  32.07 63.55 55.85
  Ionic Valenz
   ZVAL   =   6.00 17.00 14.00
  Atomic Wigner-Seitz radii
   RWIGS  =  -1.00 -1.00 -1.00
  virtual crystal weights 
   VCA    =   1.00  1.00  1.00
   NELECT =     688.0000    total number of electrons
   NUPDOWN=      -1.0000    fix difference up-down

 DOS related values:
   EMIN   =  10.00;   EMAX   =-10.00  energy-range for DOS
   EFERMI =   0.00
   ISMEAR =    -5;   SIGMA  =   0.03  broadening in eV -4-tet -1-fermi 0-gaus

 Electronic relaxation 2 (details)
   IALGO  =     38    algorithm
   LDIAG  =      T    sub-space diagonalisation (order eigenvalues)
   LSUBROT=      F    optimize rotation matrix (better conditioning)
   TURBO    =      0    0=normal 1=particle mesh
   IRESTART =      0    0=no restart 2=restart with 2 vectors
   NREBOOT  =      0    no. of reboots
   NMIN     =      0    reboot dimension
   EREF     =   0.00    reference energy to select bands
   IMIX   =      4    mixing-type and parameters
     AMIX     =   0.40;   BMIX     =  1.00
     AMIX_MAG =   1.60;   BMIX_MAG =  1.00
     AMIN     =   0.10
     WC   =   100.;   INIMIX=   1;  MIXPRE=   1;  MAXMIX= -45

 Intra band minimization:
   WEIMIN = 0.0000     energy-eigenvalue tresh-hold
   EBREAK =  0.49E-11  absolut break condition
   DEPER  =   0.30     relativ break condition  

   TIME   =   0.40     timestep for ELM

  volume/ion in A,a.u.               =      17.97       121.25
  Fermi-wavevector in a.u.,A,eV,Ry     =   1.379466  2.606812 25.890874  1.902926
  Thomas-Fermi vector in A             =   2.504433
 
 Write flags
   LWAVE        =      T    write WAVECAR
   LDOWNSAMPLE  =      F    k-point downsampling of WAVECAR
   LCHARG       =      T    write CHGCAR
   LVTOT        =      F    write LOCPOT, total local potential
   LVHAR        =      F    write LOCPOT, Hartree potential only
   LELF         =      F    write electronic localiz. function (ELF)
   LORBIT       =     11    0 simple, 1 ext, 2 COOP (PROOUT), +10 PAW based schemes


 Dipole corrections
   LMONO  =      F    monopole corrections only (constant potential shift)
   LDIPOL =      F    correct potential (dipole corrections)
   IDIPOL =      0    1-x, 2-y, 3-z, 4-all directions 
   EPSILON=  1.0000000 bulk dielectric constant

 LDA+U is selected, type is set to LDAUTYPE =  2
   angular momentum for each species LDAUL =     2    2    2
   U (eV)           for each species LDAUU =   0.0  0.1  4.7
   J (eV)           for each species LDAUJ =   0.0  0.0  0.0
 Exchange correlation treatment:
   GGA     =    PS    GGA type
   LEXCH   =    14    internal setting for exchange type
   VOSKOWN=      0    Vosko Wilk Nusair interpolation
   LHFCALC =     F    Hartree Fock is set to
   LHFONE  =     F    Hartree Fock one center treatment
   AEXX    =    0.0000 exact exchange contribution

 Linear response parameters
   LEPSILON=     F    determine dielectric tensor
   LRPA    =     F    only Hartree local field effects (RPA)
   LNABLA  =     F    use nabla operator in PAW spheres
   LVEL    =     F    velocity operator in full k-point grid
   LINTERFAST=   F  fast interpolation
   KINTER  =     0    interpolate to denser k-point grid
   CSHIFT  =0.1000    complex shift for real part using Kramers Kronig
   OMEGAMAX=  -1.0    maximum frequency
   DEG_THRESHOLD= 0.2000000E-02 threshold for treating states as degnerate
   RTIME   =   -0.100 relaxation time in fs
  (WPLASMAI=    0.000 imaginary part of plasma frequency in eV, 0.658/RTIME)
   DFIELD  = 0.0000000 0.0000000 0.0000000 field for delta impulse in time
 
 Orbital magnetization related:
   ORBITALMAG=     F  switch on orbital magnetization
   LCHIMAG   =     F  perturbation theory with respect to B field
   DQ        =  0.001000  dq finite difference perturbation B field
   LLRAUG    =     F  two centre corrections for induced B field

 PEAD related settings:
   LPEAD      =     T    switch on PEAD
   IPEAD      =     4    finite difference order for dpsi/dk
   LCALCPOL   =     T    calculate macroscopic polarization
   LCALCEPS   =     F    calculate dielectric tensor
   EFIELD_PEAD=    0.0000    0.0000    0.0000
   SKIP_EDOTP =     F
   LRPA       =     F
   SKIP_SCF   =     F


--------------------------------------------------------------------------------------------------------


 Static calculation
 charge density and potential will be updated during run
 spin polarized calculation
 Variant of blocked Davidson
 Davidson routine will perform the subspace rotation
 perform sub-space diagonalisation
    after iterative eigenvector-optimisation
 modified Broyden-mixing scheme, WC =      100.0
 initial mixing is a Kerker type mixing with AMIX =  0.4000 and BMIX =      1.0000
 Hartree-type preconditioning will be used
 using additional bands          168
 reciprocal scheme for non local part
 use partial core corrections
 calculate Harris-corrections to forces 
   (improved forces if not selfconsistent)
 use gradient corrections 
 use of overlap-Matrix (Vanderbilt PP)
 Fermi weights with tetrahedron method with Bloechl corrections


--------------------------------------------------------------------------------------------------------


  energy-cutoff  :      700.00
  volume of cell :     1149.95
      direct lattice vectors                 reciprocal lattice vectors
    10.510168000  0.000000000  0.220145000     0.095187719  0.000000000 -0.001993791
     0.000000000 10.519934000  0.000000000     0.000000000  0.095057631  0.000000000
     0.217945000  0.000000000 10.405145000    -0.002013917  0.000000000  0.096148485

  length of vectors
    10.512473316 10.519934000 10.407427275     0.095208598  0.095057631  0.096169574


 
 k-points in units of 2pi/SCALE and weight: Automatic mesh                          
   0.00000000  0.00000000  0.00000000       0.125
   0.04759386  0.00000000 -0.00099690       0.125
   0.00000000  0.04752882  0.00000000       0.125
   0.04759386  0.04752882 -0.00099690       0.125
  -0.00100696  0.00000000  0.04807424       0.125
   0.04658690  0.00000000  0.04707735       0.125
  -0.00100696  0.04752882  0.04807424       0.125
   0.04658690  0.04752882  0.04707735       0.125
 
 k-points in reciprocal lattice and weights: Automatic mesh                          
   0.00000000  0.00000000  0.00000000       0.125
   0.50000000  0.00000000 -0.00000000       0.125
   0.00000000  0.50000000  0.00000000       0.125
   0.50000000  0.50000000 -0.00000000       0.125
   0.00000000  0.00000000  0.50000000       0.125
   0.50000000  0.00000000  0.50000000       0.125
   0.00000000  0.50000000  0.50000000       0.125
   0.50000000  0.50000000  0.50000000       0.125
 
 position of ions in fractional coordinates (direct lattice) 
   0.12625600  0.12232200  0.12540300
   0.62625600  0.12232200  0.12540300
   0.12625600  0.62232200  0.12540300
   0.62625600  0.62232200  0.12540300
   0.37374400  0.37232200  0.12459700
   0.87374400  0.37232200  0.12459700
   0.37374400  0.87232200  0.12459700
   0.87374400  0.87232200  0.12459700
   0.12500000  0.37224400  0.87500000
   0.62500000  0.37224400  0.87500000
   0.12500000  0.87224400  0.87500000
   0.62500000  0.87224400  0.87500000
   0.37500000  0.12428400  0.87500000
   0.87500000  0.12428400  0.87500000
   0.37500000  0.62428400  0.87500000
   0.87500000  0.62428400  0.87500000
   0.12374400  0.12232200  0.62459700
   0.62374400  0.12232200  0.62459700
   0.12374400  0.62232200  0.62459700
   0.62374400  0.62232200  0.62459700
   0.37625600  0.37232200  0.62540300
   0.87625600  0.37232200  0.62540300
   0.37625600  0.87232200  0.62540300
   0.87625600  0.87232200  0.62540300
   0.37500000  0.12224400  0.37500000
   0.87500000  0.12224400  0.37500000
   0.37500000  0.62224400  0.37500000
   0.87500000  0.62224400  0.37500000
   0.12500000  0.37428400  0.37500000
   0.62500000  0.37428400  0.37500000
   0.12500000  0.87428400  0.37500000
   0.62500000  0.87428400  0.37500000
   0.99906700  0.00224600  0.49999800
   0.49906700  0.00224600  0.49999800
   0.99906700  0.50224600  0.49999800
   0.49906700  0.50224600  0.49999800
   0.25093300  0.00224600  0.25000200
   0.75093300  0.00224600  0.25000200
   0.25093300  0.50224600  0.25000200
   0.75093300  0.50224600  0.25000200
   0.24906700  0.25224600  0.99999800
   0.74906700  0.25224600  0.99999800
   0.24906700  0.75224600  0.99999800
   0.74906700  0.75224600  0.99999800
   0.00093300  0.25224600  0.75000200
   0.50093300  0.25224600  0.75000200
   0.00093300  0.75224600  0.75000200
   0.50093300  0.75224600  0.75000200
   0.99947200  0.00216800  0.00026600
   0.49947200  0.00216800  0.00026600
   0.99947200  0.50216800  0.00026600
   0.49947200  0.50216800  0.00026600
   0.25052800  0.00216800  0.74973400
   0.75052800  0.00216800  0.74973400
   0.25052800  0.50216800  0.74973400
   0.75052800  0.50216800  0.74973400
   0.24947200  0.25216800  0.50026600
   0.74947200  0.25216800  0.50026600
   0.24947200  0.75216800  0.50026600
   0.74947200  0.75216800  0.50026600
   0.00052800  0.25216800  0.24973400
   0.50052800  0.25216800  0.24973400
   0.00052800  0.75216800  0.24973400
   0.50052800  0.75216800  0.24973400
 
 position of ions in cartesian coordinates  (Angst):
   1.35430273  1.28681937  1.33263103
   6.60938673  1.28681937  1.44270353
   1.35430273  6.54678637  1.33263103
   6.60938673  6.54678637  1.44270353
   3.95526752  3.91680287  1.37872772
   9.21035152  3.91680287  1.48880022
   3.95526752  9.17676987  1.37872772
   9.21035152  9.17676987  1.48880022
   1.50447288  3.91598231  9.13202000
   6.75955688  3.91598231  9.24209250
   1.50447288  9.17594931  9.13202000
   6.75955688  9.17594931  9.24209250
   4.13201488  1.30745948  9.18705625
   9.38709888  1.30745948  9.29712875
   4.13201488  6.56742648  9.18705625
   9.38709888  6.56742648  9.29712875
   1.43669802  1.28681937  6.52626397
   6.69178202  1.28681937  6.63633647
   1.43669802  6.54678637  6.52626397
   6.69178202  6.54678637  6.63633647
   4.09081723  3.91680287  6.59023978
   9.34590123  3.91680287  6.70031228
   4.09081723  9.17676987  6.59023978
   9.34590123  9.17676987  6.70031228
   4.02304238  1.28599881  3.98448375
   9.27812638  1.28599881  4.09455625
   4.02304238  6.54596581  3.98448375
   9.27812638  6.54596581  4.09455625
   1.39550038  3.93744298  3.92944750
   6.65058438  3.93744298  4.03952000
   1.39550038  9.19740998  3.92944750
   6.65058438  9.19740998  4.03952000
  10.60933408  0.02362777  5.42249129
   5.35425008  0.02362777  5.31241879
  10.60933408  5.28359477  5.42249129
   5.35425008  5.28359477  5.31241879
   2.69183467  0.02362777  2.65654871
   7.94691867  0.02362777  2.76662121
   2.69183467  5.28359477  2.65654871
   7.94691867  5.28359477  2.76662121
   2.83568058  2.65361127 10.45995504
   8.09076458  2.65361127 10.57002754
   2.83568058  7.91357827 10.45995504
   8.09076458  7.91357827 10.57002754
   0.17326517  2.65361127  7.80408496
   5.42834917  2.65361127  7.91415746
   0.17326517  7.91357827  7.80408496
   5.42834917  7.91357827  7.91415746
  10.50467660  0.02280722  0.22279653
   5.24959260  0.02280722  0.11272403
  10.50467660  5.28277422  0.22279653
   5.24959260  5.28277422  0.11272403
   2.79649215  0.02280722  7.85624347
   8.05157615  0.02280722  7.96631597
   2.79649215  5.28277422  7.85624347
   8.05157615  5.28277422  7.96631597
   2.73102310  2.65279072  5.26026028
   7.98610710  2.65279072  5.37033278
   2.73102310  7.91275772  5.26026028
   7.98610710  7.91275772  5.37033278
   0.05997765  2.65279072  2.59863472
   5.31506165  2.65279072  2.70870722
   0.05997765  7.91275772  2.59863472
   5.31506165  7.91275772  2.70870722
 


--------------------------------------------------------------------------------------------------------


 k-point  1 :   0.0000 0.0000 0.0000  plane waves:   48411
 k-point  2 :   0.5000 0.0000-0.0000  plane waves:   48372
 k-point  3 :   0.0000 0.5000 0.0000  plane waves:   48398
 k-point  4 :   0.5000 0.5000-0.0000  plane waves:   48408
 k-point  5 :   0.0000 0.0000 0.5000  plane waves:   48338
 k-point  6 :   0.5000 0.0000 0.5000  plane waves:   48384
 k-point  7 :   0.0000 0.5000 0.5000  plane waves:   48336
 k-point  8 :   0.5000 0.5000 0.5000  plane waves:   48288

 maximum and minimum number of plane-waves per node :     48411    48288

 maximum number of plane-waves:     48411
 maximum index in each direction: 
   IXMAX=   22   IYMAX=   22   IZMAX=   22
   IXMIN=  -23   IYMIN=  -23   IZMIN=  -22


 serial   3D FFT for wavefunctions
 parallel 3D FFT for charge:
    minimum data exchange during FFTs selected (reduces bandwidth)


 total amount of memory used by VASP MPI-rank0   349631. kBytes
=======================================================================

   base      :      30000. kBytes
   nonl-proj :     217907. kBytes
   fftplans  :       4588. kBytes
   grid      :      69719. kBytes
   one-center:       1990. kBytes
   wavefun   :      25427. kBytes
 
     INWAV:  cpu time    0.0001: real time    0.0002
 Broyden mixing: mesh for mixing (old mesh)
   NGX = 45   NGY = 45   NGZ = 45
  (NGX  =192   NGY  =192   NGZ  =180)
  gives a total of  91125 points

 initial charge density was supplied:
 number of electron     688.0000090 magnetization      -0.0000000
 keeping initial charge density in first step


--------------------------------------------------------------------------------------------------------


 Maximum index for augmentation-charges          897 (set IRDMAX)


--------------------------------------------------------------------------------------------------------


 First call to EWALD:  gamma=   0.169
 Maximum number of real-space cells 3x 3x 3
 Maximum number of reciprocal cells 3x 3x 3

    FEWALD:  cpu time    0.0029: real time    0.0030


--------------------------------------- Iteration      1(   1)  ---------------------------------------


    POTLOK:  cpu time    0.3342: real time    0.3570
    SETDIJ:  cpu time    0.0148: real time    0.0149
     EDDAV:  cpu time   84.5108: real time   85.2009
 BZINTS: Fermi energy: 14.835539;688.000000 electrons
         Band energy:***********;  BLOECHL correction: -0.025246
       DOS:  cpu time    0.0389: real time    0.0390
    --------------------------------------------
      LOOP:  cpu time   84.8988: real time   85.6118

 eigenvalue-minimisations  : 16384
 total energy-change (2. order) : 0.6035038E+04  (-0.5170152E+05)
 number of electron     688.0000090 magnetization      -0.0000000
 augmentation part      688.0000090 magnetization      -0.0000000

 Free energy of the ion-electron system (eV)
  ---------------------------------------------------
  alpha Z        PSCENC =      2357.61781200
  Ewald energy   TEWEN  =    -62487.75905942
  -Hartree energ DENC   =    -42831.96285947
  -exchange      EXHF   =         0.00000000
  -V(xc)+E(xc)   XCENC  =      3283.24901962
  PAW double counting   =    112172.40918864  -115864.60158339
  entropy T*S    EENTRO =         0.00000000
  eigenvalues    EBANDS =     -4613.97940674
  atomic energy  EATOM  =    114020.06510763
  Solvation  Ediel_sol  =         0.00000000
  ---------------------------------------------------
  free energy    TOTEN  =      6035.03821886 eV

  energy without entropy =     6035.03821886  energy(sigma->0) =     6035.03821886


--------------------------------------------------------------------------------------------------------




--------------------------------------- Iteration      1(   2)  ---------------------------------------


     EDDAV:  cpu time   96.0503: real time   96.7877
 BZINTS: Fermi energy:  5.425597;688.000000 electrons
         Band energy:***********;  BLOECHL correction: -0.000002
       DOS:  cpu time    0.0232: real time    0.0233
    --------------------------------------------
      LOOP:  cpu time   96.0735: real time   96.8110

 eigenvalue-minimisations  : 17664
 total energy-change (2. order) :-0.6126584E+04  (-0.6018148E+04)
 number of electron     688.0000090 magnetization      -0.0000000
 augmentation part      688.0000090 magnetization      -0.0000000

 Free energy of the ion-electron system (eV)
  ---------------------------------------------------
  alpha Z        PSCENC =      2357.61781200
  Ewald energy   TEWEN  =    -62487.75905942
  -Hartree energ DENC   =    -42831.96285947
  -exchange      EXHF   =         0.00000000
  -V(xc)+E(xc)   XCENC  =      3283.24901962
  PAW double counting   =    112172.40918864  -115864.60158339
  entropy T*S    EENTRO =         0.00000000
  eigenvalues    EBANDS =    -10740.56311373
  atomic energy  EATOM  =    114020.06510763
  Solvation  Ediel_sol  =         0.00000000
  ---------------------------------------------------
  free energy    TOTEN  =       -91.54548813 eV

  energy without entropy =      -91.54548813  energy(sigma->0) =      -91.54548813


--------------------------------------------------------------------------------------------------------




--------------------------------------- Iteration      1(   3)  ---------------------------------------


     EDDAV:  cpu time  163.2064: real time  164.3279
 BZINTS: Fermi energy:  5.014445;688.000000 electrons
         Band energy:***********;  BLOECHL correction:  0.000000
       DOS:  cpu time    0.0067: real time    0.0067
    --------------------------------------------
      LOOP:  cpu time  163.2131: real time  164.3346

 eigenvalue-minimisations  : 23296
 total energy-change (2. order) :-0.2509587E+03  (-0.2500442E+03)
 number of electron     688.0000090 magnetization      -0.0000000
 augmentation part      688.0000090 magnetization      -0.0000000

 Free energy of the ion-electron system (eV)
  ---------------------------------------------------
  alpha Z        PSCENC =      2357.61781200
  Ewald energy   TEWEN  =    -62487.75905942
  -Hartree energ DENC   =    -42831.96285947
  -exchange      EXHF   =         0.00000000
  -V(xc)+E(xc)   XCENC  =      3283.24901962
  PAW double counting   =    112172.40918864  -115864.60158339
  entropy T*S    EENTRO =         0.00000000
  eigenvalues    EBANDS =    -10991.52180888
  atomic energy  EATOM  =    114020.06510763
  Solvation  Ediel_sol  =         0.00000000
  ---------------------------------------------------
  free energy    TOTEN  =      -342.50418328 eV

  energy without entropy =     -342.50418328  energy(sigma->0) =     -342.50418328


--------------------------------------------------------------------------------------------------------




--------------------------------------- Iteration      1(   4)  ---------------------------------------


     EDDAV:  cpu time  111.4544: real time  112.2647
 BZINTS: Fermi energy:  4.853917;688.000000 electrons
         Band energy:***********;  BLOECHL correction:  0.000000
       DOS:  cpu time    0.0067: real time    0.0067
    --------------------------------------------
      LOOP:  cpu time  111.4611: real time  112.2714

 eigenvalue-minimisations  : 18688
 total energy-change (2. order) :-0.3427418E+01  (-0.3427272E+01)
 number of electron     688.0000090 magnetization      -0.0000000
 augmentation part      688.0000090 magnetization      -0.0000000

 Free energy of the ion-electron system (eV)
  ---------------------------------------------------
  alpha Z        PSCENC =      2357.61781200
  Ewald energy   TEWEN  =    -62487.75905942
  -Hartree energ DENC   =    -42831.96285947
  -exchange      EXHF   =         0.00000000
  -V(xc)+E(xc)   XCENC  =      3283.24901962
  PAW double counting   =    112172.40918864  -115864.60158339
  entropy T*S    EENTRO =         0.00000000
  eigenvalues    EBANDS =    -10994.94922731
  atomic energy  EATOM  =    114020.06510763
  Solvation  Ediel_sol  =         0.00000000
  ---------------------------------------------------
  free energy    TOTEN  =      -345.93160171 eV

  energy without entropy =     -345.93160171  energy(sigma->0) =     -345.93160171


--------------------------------------------------------------------------------------------------------




--------------------------------------- Iteration      1(   5)  ---------------------------------------


     EDDAV:  cpu time  160.3044: real time  161.4042
 BZINTS: Fermi energy:  4.872856;688.000000 electrons
         Band energy:***********;  BLOECHL correction:  0.000000
       DOS:  cpu time    0.0058: real time    0.0058
    CHARGE:  cpu time    1.4163: real time    1.4253
    MIXING:  cpu time    0.0080: real time    0.0081
    --------------------------------------------
      LOOP:  cpu time  161.7345: real time  162.8434

 eigenvalue-minimisations  : 22784
 total energy-change (2. order) :-0.1045176E+00  (-0.1045170E+00)
 number of electron     688.0000183 magnetization      -0.0000000
 augmentation part      283.8793656 magnetization      -0.0000000

 Broyden mixing:
  rms(total) = 0.32516E+01    rms(broyden)= 0.32512E+01
  rms(prec ) = 0.36538E+01
  weight for this iteration     100.00

 Free energy of the ion-electron system (eV)
  ---------------------------------------------------
  alpha Z        PSCENC =      2357.61781200
  Ewald energy   TEWEN  =    -62487.75905942
  -Hartree energ DENC   =    -42831.96285947
  -exchange      EXHF   =         0.00000000
  -V(xc)+E(xc)   XCENC  =      3283.24901962
  PAW double counting   =    112172.40918864  -115864.60158339
  entropy T*S    EENTRO =         0.00000000
  eigenvalues    EBANDS =    -10995.05374493
  atomic energy  EATOM  =    114020.06510763
  Solvation  Ediel_sol  =         0.00000000
  ---------------------------------------------------
  free energy    TOTEN  =      -346.03611933 eV

  energy without entropy =     -346.03611933  energy(sigma->0) =     -346.03611933


--------------------------------------------------------------------------------------------------------




--------------------------------------- Iteration      1(   6)  ---------------------------------------


    POTLOK:  cpu time    0.1437: real time    0.1447
    SETDIJ:  cpu time    0.0130: real time    0.0131
     EDDAV:  cpu time  175.7554: real time  176.9664
 BZINTS: Fermi energy:  4.998869;688.000000 electrons
         Band energy:***********;  BLOECHL correction:  0.000000
       DOS:  cpu time    0.0058: real time    0.0059
    CHARGE:  cpu time    1.4548: real time    1.4645
    MIXING:  cpu time    0.0024: real time    0.0177
    --------------------------------------------
      LOOP:  cpu time  177.3753: real time  178.6122

 eigenvalue-minimisations  : 25600
 total energy-change (2. order) : 0.1364642E+02  (-0.1352341E+01)
 number of electron     688.0000182 magnetization      -0.0000000
 augmentation part      281.1314694 magnetization      -0.0000000

 Broyden mixing:
  rms(total) = 0.17857E+01    rms(broyden)= 0.17856E+01
  rms(prec ) = 0.19992E+01
  weight for this iteration     100.00

 eigenvalues of (default mixing * dielectric matrix)
  average eigenvalue GAMMA=   0.8278
  0.8278

 Free energy of the ion-electron system (eV)
  ---------------------------------------------------
  alpha Z        PSCENC =      2357.61781200
  Ewald energy   TEWEN  =    -62487.75905942
  -Hartree energ DENC   =    -42989.63614025
  -exchange      EXHF   =         0.00000000
  -V(xc)+E(xc)   XCENC  =      3287.23617072
  PAW double counting   =    113667.70443482  -117379.72450596
  entropy T*S    EENTRO =         0.00000000
  eigenvalues    EBANDS =    -10807.89351418
  atomic energy  EATOM  =    114020.06510763
  Solvation  Ediel_sol  =         0.00000000
  ---------------------------------------------------
  free energy    TOTEN  =      -332.38969464 eV

  energy without entropy =     -332.38969464  energy(sigma->0) =     -332.38969464


--------------------------------------------------------------------------------------------------------




--------------------------------------- Iteration      1(   7)  ---------------------------------------


    POTLOK:  cpu time    0.1448: real time    0.1458
    SETDIJ:  cpu time    0.0128: real time    0.0129
     EDDAV:  cpu time  143.0100: real time  144.0011
 BZINTS: Fermi energy:  4.952282;688.000000 electrons
         Band energy:***********;  BLOECHL correction:  0.000000
       DOS:  cpu time    0.0065: real time    0.0066
    CHARGE:  cpu time    1.4130: real time    1.4214
    MIXING:  cpu time    0.0018: real time    0.0644
    --------------------------------------------
      LOOP:  cpu time  144.5891: real time  145.6521

 eigenvalue-minimisations  : 21504
 total energy-change (2. order) : 0.3904232E+01  (-0.9163397E+00)
 number of electron     688.0000183 magnetization      -0.0000000
 augmentation part      283.0728402 magnetization      -0.0000000

 Broyden mixing:
  rms(total) = 0.13460E+01    rms(broyden)= 0.13460E+01
  rms(prec ) = 0.14129E+01
  weight for this iteration     100.00

 eigenvalues of (default mixing * dielectric matrix)
  average eigenvalue GAMMA=   0.9387
  1.3716  0.5058

 Free energy of the ion-electron system (eV)
  ---------------------------------------------------
  alpha Z        PSCENC =      2357.61781200
  Ewald energy   TEWEN  =    -62487.75905942
  -Hartree energ DENC   =    -42887.52981023
  -exchange      EXHF   =         0.00000000
  -V(xc)+E(xc)   XCENC  =      3285.75216636
  PAW double counting   =    113295.14266958  -116980.95518691
  entropy T*S    EENTRO =         0.00000000
  eigenvalues    EBANDS =    -10930.81916161
  atomic energy  EATOM  =    114020.06510763
  Solvation  Ediel_sol  =         0.00000000
  ---------------------------------------------------
  free energy    TOTEN  =      -328.48546259 eV

  energy without entropy =     -328.48546259  energy(sigma->0) =     -328.48546259


--------------------------------------------------------------------------------------------------------




--------------------------------------- Iteration      1(   8)  ---------------------------------------


    POTLOK:  cpu time    0.1433: real time    0.1443
    SETDIJ:  cpu time    0.0130: real time    0.0131
     EDDAV:  cpu time  148.7550: real time  149.7944
 BZINTS: Fermi energy:  4.960928;688.000000 electrons
         Band energy:***********;  BLOECHL correction:  0.000000
       DOS:  cpu time    0.0065: real time    0.0065
    CHARGE:  cpu time    1.4138: real time    1.4230
    MIXING:  cpu time    0.0015: real time    0.0015
    --------------------------------------------
      LOOP:  cpu time  150.3330: real time  151.3828

 eigenvalue-minimisations  : 22016
 total energy-change (2. order) : 0.5572884E+00  (-0.2965905E+00)
 number of electron     688.0000183 magnetization       0.0000000
 augmentation part      282.6482764 magnetization       0.0000000

 Broyden mixing:
  rms(total) = 0.50602E+00    rms(broyden)= 0.50601E+00
  rms(prec ) = 0.52918E+00
  weight for this iteration     100.00

 eigenvalues of (default mixing * dielectric matrix)
  average eigenvalue GAMMA=   1.0282
  1.8860  0.6976  0.5009

 Free energy of the ion-electron system (eV)
  ---------------------------------------------------
  alpha Z        PSCENC =      2357.61781200
  Ewald energy   TEWEN  =    -62487.75905942
  -Hartree energ DENC   =    -42916.96803110
  -exchange      EXHF   =         0.00000000
  -V(xc)+E(xc)   XCENC  =      3286.01631229
  PAW double counting   =    112965.72810928  -116658.08587655
  entropy T*S    EENTRO =         0.00000000
  eigenvalues    EBANDS =    -10894.54254836
  atomic energy  EATOM  =    114020.06510763
  Solvation  Ediel_sol  =         0.00000000
  ---------------------------------------------------
  free energy    TOTEN  =      -327.92817424 eV

  energy without entropy =     -327.92817424  energy(sigma->0) =     -327.92817424


--------------------------------------------------------------------------------------------------------




--------------------------------------- Iteration      1(   9)  ---------------------------------------


    POTLOK:  cpu time    0.1444: real time    0.1455
    SETDIJ:  cpu time    0.0131: real time    0.0132
     EDDAV:  cpu time  155.2115: real time  156.2952
 BZINTS: Fermi energy:  4.975898;688.000000 electrons
         Band energy:***********;  BLOECHL correction:  0.000000
       DOS:  cpu time    0.0064: real time    0.0065
    CHARGE:  cpu time    1.4145: real time    1.4246
    MIXING:  cpu time    0.0014: real time    0.0014
    --------------------------------------------
      LOOP:  cpu time  156.7914: real time  157.8865

 eigenvalue-minimisations  : 22784
 total energy-change (2. order) : 0.2210169E-01  (-0.6569014E-01)
 number of electron     688.0000183 magnetization       0.0000000
 augmentation part      282.1061790 magnetization       0.0000000

 Broyden mixing:
  rms(total) = 0.25296E+00    rms(broyden)= 0.25296E+00
  rms(prec ) = 0.26996E+00
  weight for this iteration     100.00

 eigenvalues of (default mixing * dielectric matrix)
  average eigenvalue GAMMA=   1.0664
  1.8295  1.2605  0.6660  0.5094

 Free energy of the ion-electron system (eV)
  ---------------------------------------------------
  alpha Z        PSCENC =      2357.61781200
  Ewald energy   TEWEN  =    -62487.75905942
  -Hartree energ DENC   =    -42952.48658177
  -exchange      EXHF   =         0.00000000
  -V(xc)+E(xc)   XCENC  =      3286.88654816
  PAW double counting   =    112848.47535925  -116544.42336951
  entropy T*S    EENTRO =         0.00000000
  eigenvalues    EBANDS =    -10856.28188890
  atomic energy  EATOM  =    114020.06510763
  Solvation  Ediel_sol  =         0.00000000
  ---------------------------------------------------
  free energy    TOTEN  =      -327.90607256 eV

  energy without entropy =     -327.90607256  energy(sigma->0) =     -327.90607256


--------------------------------------------------------------------------------------------------------




--------------------------------------- Iteration      1(  10)  ---------------------------------------


    POTLOK:  cpu time    0.1429: real time    0.1439
    SETDIJ:  cpu time    0.0128: real time    0.0129
     EDDAV:  cpu time  155.7908: real time  156.8596
 BZINTS: Fermi energy:  4.949334;688.000000 electrons
         Band energy:***********;  BLOECHL correction:  0.000000
       DOS:  cpu time    0.0066: real time    0.0066
    CHARGE:  cpu time    1.6819: real time    1.6911
    MIXING:  cpu time    0.0017: real time    0.0017
    --------------------------------------------
      LOOP:  cpu time  157.6367: real time  158.7159

 eigenvalue-minimisations  : 22272
 total energy-change (2. order) :-0.4106888E-01  (-0.6901130E-01)
 number of electron     688.0000183 magnetization       0.0000000
 augmentation part      282.1857086 magnetization       0.0000000

 Broyden mixing:
  rms(total) = 0.27760E+00    rms(broyden)= 0.27759E+00
  rms(prec ) = 0.32575E+00
  weight for this iteration     100.00

 eigenvalues of (default mixing * dielectric matrix)
  average eigenvalue GAMMA=   0.9639
  1.8327  1.4554  0.6426  0.5530  0.3357

 Free energy of the ion-electron system (eV)
  ---------------------------------------------------
  alpha Z        PSCENC =      2357.61781200
  Ewald energy   TEWEN  =    -62487.75905942
  -Hartree energ DENC   =    -42935.13980554
  -exchange      EXHF   =         0.00000000
  -V(xc)+E(xc)   XCENC  =      3286.14831703
  PAW double counting   =    112617.21287444  -116310.28630532
  entropy T*S    EENTRO =         0.00000000
  eigenvalues    EBANDS =    -10875.80608225
  atomic energy  EATOM  =    114020.06510763
  Solvation  Ediel_sol  =         0.00000000
  ---------------------------------------------------
  free energy    TOTEN  =      -327.94714143 eV

  energy without entropy =     -327.94714143  energy(sigma->0) =     -327.94714143


--------------------------------------------------------------------------------------------------------




--------------------------------------- Iteration      1(  11)  ---------------------------------------


    POTLOK:  cpu time    0.1556: real time    0.1605
    SETDIJ:  cpu time    0.0151: real time    0.0152
     EDDAV:  cpu time  128.5782: real time  129.4926
 BZINTS: Fermi energy:  4.962175;688.000000 electrons
         Band energy:***********;  BLOECHL correction:  0.000000
       DOS:  cpu time    0.0066: real time    0.0066
    CHARGE:  cpu time    1.4132: real time    1.4228
    MIXING:  cpu time    0.0017: real time    0.0027
    --------------------------------------------
      LOOP:  cpu time  130.1704: real time  131.1002

 eigenvalue-minimisations  : 19968
 total energy-change (2. order) : 0.2577894E-01  (-0.3369643E-01)
 number of electron     688.0000183 magnetization       0.0000000
 augmentation part      282.2509771 magnetization       0.0000000

 Broyden mixing:
  rms(total) = 0.92810E-01    rms(broyden)= 0.92804E-01
  rms(prec ) = 0.95099E-01
  weight for this iteration     100.00

 eigenvalues of (default mixing * dielectric matrix)
  average eigenvalue GAMMA=   1.1063
  2.1272  2.1272  0.8075  0.6204  0.6204  0.3354

 Free energy of the ion-electron system (eV)
  ---------------------------------------------------
  alpha Z        PSCENC =      2357.61781200
  Ewald energy   TEWEN  =    -62487.75905942
  -Hartree energ DENC   =    -42939.53933349
  -exchange      EXHF   =         0.00000000
  -V(xc)+E(xc)   XCENC  =      3286.51901004
  PAW double counting   =    112505.01716224  -116198.02663344
  entropy T*S    EENTRO =         0.00000000
  eigenvalues    EBANDS =    -10871.81542805
  atomic energy  EATOM  =    114020.06510763
  Solvation  Ediel_sol  =         0.00000000
  ---------------------------------------------------
  free energy    TOTEN  =      -327.92136249 eV

  energy without entropy =     -327.92136249  energy(sigma->0) =     -327.92136249


--------------------------------------------------------------------------------------------------------




--------------------------------------- Iteration      1(  12)  ---------------------------------------


    POTLOK:  cpu time    0.1422: real time    0.1451
    SETDIJ:  cpu time    0.0131: real time    0.0131
     EDDAV:  cpu time  141.7715: real time  142.7580
 BZINTS: Fermi energy:  4.962399;688.000000 electrons
         Band energy:***********;  BLOECHL correction:  0.000000
       DOS:  cpu time    0.0066: real time    0.0066
    CHARGE:  cpu time    1.4138: real time    1.4222
    MIXING:  cpu time    0.0017: real time    0.0017
    --------------------------------------------
      LOOP:  cpu time  143.3489: real time  144.3469

 eigenvalue-minimisations  : 20992
 total energy-change (2. order) :-0.1145641E-01  (-0.3635360E-02)
 number of electron     688.0000183 magnetization       0.0000000
 augmentation part      282.2186501 magnetization       0.0000000

 Broyden mixing:
  rms(total) = 0.36988E-01    rms(broyden)= 0.36986E-01
  rms(prec ) = 0.40552E-01
  weight for this iteration     100.00

 eigenvalues of (default mixing * dielectric matrix)
  average eigenvalue GAMMA=   1.1137
  2.2392  2.2392  1.0276  0.6943  0.6278  0.6278  0.3403

 Free energy of the ion-electron system (eV)
  ---------------------------------------------------
  alpha Z        PSCENC =      2357.61781200
  Ewald energy   TEWEN  =    -62487.75905942
  -Hartree energ DENC   =    -42942.07835743
  -exchange      EXHF   =         0.00000000
  -V(xc)+E(xc)   XCENC  =      3286.55299729
  PAW double counting   =    112346.22573579  -116040.05260457
  entropy T*S    EENTRO =         0.00000000
  eigenvalues    EBANDS =    -10868.50445019
  atomic energy  EATOM  =    114020.06510763
  Solvation  Ediel_sol  =         0.00000000
  ---------------------------------------------------
  free energy    TOTEN  =      -327.93281890 eV

  energy without entropy =     -327.93281890  energy(sigma->0) =     -327.93281890


--------------------------------------------------------------------------------------------------------




--------------------------------------- Iteration      1(  13)  ---------------------------------------


    POTLOK:  cpu time    0.1428: real time    0.1440
    SETDIJ:  cpu time    0.0130: real time    0.0130
     EDDAV:  cpu time  167.1042: real time  168.2221
 BZINTS: Fermi energy:  4.961405;688.000000 electrons
         Band energy:***********;  BLOECHL correction:  0.000000
       DOS:  cpu time    0.0068: real time    0.0068
    CHARGE:  cpu time    1.4150: real time    1.4250
    MIXING:  cpu time    0.0017: real time    0.0017
    --------------------------------------------
      LOOP:  cpu time  168.6835: real time  169.8127

 eigenvalue-minimisations  : 23040
 total energy-change (2. order) :-0.1864564E-02  (-0.7962813E-03)
 number of electron     688.0000183 magnetization       0.0000000
 augmentation part      282.2270960 magnetization       0.0000000

 Broyden mixing:
  rms(total) = 0.21414E-01    rms(broyden)= 0.21414E-01
  rms(prec ) = 0.23023E-01
  weight for this iteration     100.00

 eigenvalues of (default mixing * dielectric matrix)
  average eigenvalue GAMMA=   1.1276
  2.2859  2.2859  1.1202  1.1202  0.6701  0.5983  0.5983  0.3419

 Free energy of the ion-electron system (eV)
  ---------------------------------------------------
  alpha Z        PSCENC =      2357.61781200
  Ewald energy   TEWEN  =    -62487.75905942
  -Hartree energ DENC   =    -42940.72013889
  -exchange      EXHF   =         0.00000000
  -V(xc)+E(xc)   XCENC  =      3286.51884913
  PAW double counting   =    112294.03821283  -115987.55790652
  entropy T*S    EENTRO =         0.00000000
  eigenvalues    EBANDS =    -10870.13756021
  atomic energy  EATOM  =    114020.06510763
  Solvation  Ediel_sol  =         0.00000000
  ---------------------------------------------------
  free energy    TOTEN  =      -327.93468346 eV

  energy without entropy =     -327.93468346  energy(sigma->0) =     -327.93468346


--------------------------------------------------------------------------------------------------------




--------------------------------------- Iteration      1(  14)  ---------------------------------------


    POTLOK:  cpu time    0.1439: real time    0.1450
    SETDIJ:  cpu time    0.0130: real time    0.0130
     EDDAV:  cpu time  119.3796: real time  120.2427
 BZINTS: Fermi energy:  4.961871;688.000000 electrons
         Band energy:***********;  BLOECHL correction:  0.000000
       DOS:  cpu time    0.0067: real time    0.0067
    CHARGE:  cpu time    1.4143: real time    1.4245
    MIXING:  cpu time    0.0017: real time    0.0017
    --------------------------------------------
      LOOP:  cpu time  120.9593: real time  121.8337

 eigenvalue-minimisations  : 19200
 total energy-change (2. order) :-0.9505130E-03  (-0.2746010E-03)
 number of electron     688.0000183 magnetization       0.0000000
 augmentation part      282.2250550 magnetization       0.0000000

 Broyden mixing:
  rms(total) = 0.10804E-01    rms(broyden)= 0.10804E-01
  rms(prec ) = 0.11389E-01
  weight for this iteration     100.00

 eigenvalues of (default mixing * dielectric matrix)
  average eigenvalue GAMMA=   1.1916
  2.4496  2.4496  1.4522  1.4522  0.3415  0.6076  0.6076  0.7115  0.6529

 Free energy of the ion-electron system (eV)
  ---------------------------------------------------
  alpha Z        PSCENC =      2357.61781200
  Ewald energy   TEWEN  =    -62487.75905942
  -Hartree energ DENC   =    -42941.20795153
  -exchange      EXHF   =         0.00000000
  -V(xc)+E(xc)   XCENC  =      3286.53748127
  PAW double counting   =    112275.85420151  -115969.61905786
  entropy T*S    EENTRO =         0.00000000
  eigenvalues    EBANDS =    -10869.42416757
  atomic energy  EATOM  =    114020.06510763
  Solvation  Ediel_sol  =         0.00000000
  ---------------------------------------------------
  free energy    TOTEN  =      -327.93563397 eV

  energy without entropy =     -327.93563397  energy(sigma->0) =     -327.93563397


--------------------------------------------------------------------------------------------------------




--------------------------------------- Iteration      1(  15)  ---------------------------------------


    POTLOK:  cpu time    0.1431: real time    0.1441
    SETDIJ:  cpu time    0.0132: real time    0.0133
     EDDAV:  cpu time  162.2857: real time  163.3938
 BZINTS: Fermi energy:  4.962028;688.000000 electrons
         Band energy:***********;  BLOECHL correction:  0.000000
       DOS:  cpu time    0.0067: real time    0.0067
    CHARGE:  cpu time    1.4117: real time    1.4218
    MIXING:  cpu time    0.0019: real time    0.0019
    --------------------------------------------
      LOOP:  cpu time  163.8623: real time  164.9817

 eigenvalue-minimisations  : 22528
 total energy-change (2. order) :-0.4361073E-03  (-0.1116349E-03)
 number of electron     688.0000183 magnetization       0.0000000
 augmentation part      282.2214415 magnetization       0.0000000

 Broyden mixing:
  rms(total) = 0.56946E-02    rms(broyden)= 0.56940E-02
  rms(prec ) = 0.60665E-02
  weight for this iteration     100.00

 eigenvalues of (default mixing * dielectric matrix)
  average eigenvalue GAMMA=   1.2149
  2.8343  2.2585  1.8673  1.1537  1.1537  0.3415  0.6056  0.6056  0.7041  0.6252

 Free energy of the ion-electron system (eV)
  ---------------------------------------------------
  alpha Z        PSCENC =      2357.61781200
  Ewald energy   TEWEN  =    -62487.75905942
  -Hartree energ DENC   =    -42941.37716481
  -exchange      EXHF   =         0.00000000
  -V(xc)+E(xc)   XCENC  =      3286.53685668
  PAW double counting   =    112270.06862106  -115963.84105327
  entropy T*S    EENTRO =         0.00000000
  eigenvalues    EBANDS =    -10869.24718995
  atomic energy  EATOM  =    114020.06510763
  Solvation  Ediel_sol  =         0.00000000
  ---------------------------------------------------
  free energy    TOTEN  =      -327.93607008 eV

  energy without entropy =     -327.93607008  energy(sigma->0) =     -327.93607008


--------------------------------------------------------------------------------------------------------




--------------------------------------- Iteration      1(  16)  ---------------------------------------


    POTLOK:  cpu time    0.1431: real time    0.1441
    SETDIJ:  cpu time    0.0129: real time    0.0129
     EDDAV:  cpu time  107.4589: real time  108.2427
 BZINTS: Fermi energy:  4.962065;688.000000 electrons
         Band energy:***********;  BLOECHL correction:  0.000000
       DOS:  cpu time    0.0066: real time    0.0067
    CHARGE:  cpu time    1.4163: real time    1.4250
    MIXING:  cpu time    0.0021: real time    0.0027
    --------------------------------------------
      LOOP:  cpu time  109.0399: real time  109.8340

 eigenvalue-minimisations  : 17920
 total energy-change (2. order) :-0.1792681E-03  (-0.5230021E-04)
 number of electron     688.0000183 magnetization      -0.0000000
 augmentation part      282.2257129 magnetization      -0.0000000

 Broyden mixing:
  rms(total) = 0.38647E-02    rms(broyden)= 0.38643E-02
  rms(prec ) = 0.41404E-02
  weight for this iteration     100.00

 eigenvalues of (default mixing * dielectric matrix)
  average eigenvalue GAMMA=   1.2813
  3.1871  2.1702  2.1702  1.4034  1.4034  0.3416  0.8831  0.6035  0.6035  0.7112
  0.6169

 Free energy of the ion-electron system (eV)
  ---------------------------------------------------
  alpha Z        PSCENC =      2357.61781200
  Ewald energy   TEWEN  =    -62487.75905942
  -Hartree energ DENC   =    -42941.22777934
  -exchange      EXHF   =         0.00000000
  -V(xc)+E(xc)   XCENC  =      3286.53590347
  PAW double counting   =    112267.61786523  -115961.36951042
  entropy T*S    EENTRO =         0.00000000
  eigenvalues    EBANDS =    -10869.41658849
  atomic energy  EATOM  =    114020.06510763
  Solvation  Ediel_sol  =         0.00000000
  ---------------------------------------------------
  free energy    TOTEN  =      -327.93624935 eV

  energy without entropy =     -327.93624935  energy(sigma->0) =     -327.93624935


--------------------------------------------------------------------------------------------------------




--------------------------------------- Iteration      1(  17)  ---------------------------------------


    POTLOK:  cpu time    0.1422: real time    0.1435
    SETDIJ:  cpu time    0.0130: real time    0.0130
     EDDAV:  cpu time  151.4037: real time  152.4386
 BZINTS: Fermi energy:  4.962019;688.000000 electrons
         Band energy:***********;  BLOECHL correction:  0.000000
       DOS:  cpu time    0.0066: real time    0.0067
    CHARGE:  cpu time    1.4035: real time    1.4131
    MIXING:  cpu time    0.0021: real time    0.0021
    --------------------------------------------
      LOOP:  cpu time  152.9712: real time  154.0170

 eigenvalue-minimisations  : 21504
 total energy-change (2. order) :-0.8490738E-04  (-0.4065500E-04)
 number of electron     688.0000183 magnetization       0.0000000
 augmentation part      282.2230725 magnetization       0.0000000

 Broyden mixing:
  rms(total) = 0.20369E-02    rms(broyden)= 0.20363E-02
  rms(prec ) = 0.21792E-02
  weight for this iteration     100.00

 eigenvalues of (default mixing * dielectric matrix)
  average eigenvalue GAMMA=   1.3539
  3.9574  2.3347  2.3347  1.5374  1.5374  0.9766  0.3416  0.6022  0.6022  0.7179
  0.6929  0.6123

 Free energy of the ion-electron system (eV)
  ---------------------------------------------------
  alpha Z        PSCENC =      2357.61781200
  Ewald energy   TEWEN  =    -62487.75905942
  -Hartree energ DENC   =    -42941.33379210
  -exchange      EXHF   =         0.00000000
  -V(xc)+E(xc)   XCENC  =      3286.53737062
  PAW double counting   =    112269.85926464  -115963.63705375
  entropy T*S    EENTRO =         0.00000000
  eigenvalues    EBANDS =    -10869.28598387
  atomic energy  EATOM  =    114020.06510763
  Solvation  Ediel_sol  =         0.00000000
  ---------------------------------------------------
  free energy    TOTEN  =      -327.93633426 eV

  energy without entropy =     -327.93633426  energy(sigma->0) =     -327.93633426


--------------------------------------------------------------------------------------------------------




--------------------------------------- Iteration      1(  18)  ---------------------------------------


    POTLOK:  cpu time    0.1415: real time    0.1426
    SETDIJ:  cpu time    0.0131: real time    0.0132
     EDDAV:  cpu time  124.3274: real time  125.2244
 BZINTS: Fermi energy:  4.961991;688.000000 electrons
         Band energy:***********;  BLOECHL correction:  0.000000
       DOS:  cpu time    0.0067: real time    0.0067
    CHARGE:  cpu time    1.4086: real time    1.4174
    MIXING:  cpu time    0.0020: real time    0.0021
    --------------------------------------------
      LOOP:  cpu time  125.8993: real time  126.8063

 eigenvalue-minimisations  : 19200
 total energy-change (2. order) :-0.1836701E-04  (-0.1112860E-04)
 number of electron     688.0000183 magnetization       0.0000000
 augmentation part      282.2240960 magnetization       0.0000000

 Broyden mixing:
  rms(total) = 0.95969E-03    rms(broyden)= 0.95927E-03
  rms(prec ) = 0.10167E-02
  weight for this iteration     100.00

 eigenvalues of (default mixing * dielectric matrix)
  average eigenvalue GAMMA=   1.3531
  4.1784  2.4038  2.4038  1.7637  1.2090  1.2090  0.3416  0.9105  0.6021  0.6021
  0.7146  0.6068  0.6452

 Free energy of the ion-electron system (eV)
  ---------------------------------------------------
  alpha Z        PSCENC =      2357.61781200
  Ewald energy   TEWEN  =    -62487.75905942
  -Hartree energ DENC   =    -42941.28128947
  -exchange      EXHF   =         0.00000000
  -V(xc)+E(xc)   XCENC  =      3286.53577687
  PAW double counting   =    112271.48115699  -115965.24900105
  entropy T*S    EENTRO =         0.00000000
  eigenvalues    EBANDS =    -10869.34685618
  atomic energy  EATOM  =    114020.06510763
  Solvation  Ediel_sol  =         0.00000000
  ---------------------------------------------------
  free energy    TOTEN  =      -327.93635262 eV

  energy without entropy =     -327.93635262  energy(sigma->0) =     -327.93635262


--------------------------------------------------------------------------------------------------------




--------------------------------------- Iteration      1(  19)  ---------------------------------------


    POTLOK:  cpu time    0.1419: real time    0.1429
    SETDIJ:  cpu time    0.0132: real time    0.0132
     EDDAV:  cpu time  145.3316: real time  146.3363
 BZINTS: Fermi energy:  4.961994;688.000000 electrons
         Band energy:***********;  BLOECHL correction:  0.000000
       DOS:  cpu time    0.0067: real time    0.0067
    CHARGE:  cpu time    1.4147: real time    1.4232
    MIXING:  cpu time    0.0021: real time    0.0021
    --------------------------------------------
      LOOP:  cpu time  146.9102: real time  147.9245

 eigenvalue-minimisations  : 20992
 total energy-change (2. order) :-0.2186265E-05  (-0.1005448E-05)
 number of electron     688.0000183 magnetization       0.0000000
 augmentation part      282.2238818 magnetization       0.0000000

 Broyden mixing:
[...]
   -.417E+02 0.151E+02 -.115E+01   0.426E+02 -.152E+02 0.116E+01   -.855E+00 0.943E-01 -.138E-01   0.131E-04 0.106E-04 -.112E-05
   -.417E+02 0.151E+02 -.115E+01   0.426E+02 -.152E+02 0.116E+01   -.855E+00 0.943E-01 -.138E-01   0.131E-04 0.106E-04 -.112E-05
   -.417E+02 0.151E+02 -.115E+01   0.426E+02 -.152E+02 0.116E+01   -.855E+00 0.943E-01 -.138E-01   0.131E-04 0.106E-04 -.112E-05
   -.417E+02 0.151E+02 -.115E+01   0.426E+02 -.152E+02 0.116E+01   -.855E+00 0.943E-01 -.138E-01   0.131E-04 0.106E-04 -.112E-05
   0.417E+02 0.151E+02 0.115E+01   -.426E+02 -.152E+02 -.116E+01   0.855E+00 0.943E-01 0.138E-01   -.131E-04 0.106E-04 0.112E-05
   0.417E+02 0.151E+02 0.115E+01   -.426E+02 -.152E+02 -.116E+01   0.855E+00 0.943E-01 0.138E-01   -.131E-04 0.106E-04 0.112E-05
   0.417E+02 0.151E+02 0.115E+01   -.426E+02 -.152E+02 -.116E+01   0.855E+00 0.943E-01 0.138E-01   -.131E-04 0.106E-04 0.112E-05
   0.417E+02 0.151E+02 0.115E+01   -.426E+02 -.152E+02 -.116E+01   0.855E+00 0.943E-01 0.138E-01   -.131E-04 0.106E-04 0.112E-05
   0.203E-07 -.315E+02 -.460E-07   -.320E-13 0.323E+02 -.711E-14   -.743E-25 -.779E+00 -.103E-23   0.650E-10 0.245E-04 0.119E-08
   0.203E-07 -.315E+02 -.460E-07   -.249E-13 0.323E+02 0.346E-13   0.226E-25 -.779E+00 0.620E-24   -.870E-10 0.245E-04 -.119E-08
   0.203E-07 -.315E+02 -.460E-07   -.284E-13 0.323E+02 0.142E-13   -.275E-24 -.779E+00 0.207E-24   0.650E-10 0.245E-04 0.119E-08
   0.203E-07 -.315E+02 -.460E-07   -.497E-13 0.323E+02 0.426E-13   0.840E-25 -.779E+00 0.103E-23   -.869E-10 0.245E-04 -.119E-08
   -.213E-08 0.533E+02 0.177E-06   -.409E-13 -.543E+02 -.693E-13   0.355E-24 0.949E+00 -.124E-23   -.674E-08 0.399E-05 0.136E-09
   -.213E-08 0.533E+02 0.177E-06   -.817E-13 -.543E+02 -.391E-13   -.104E-23 0.949E+00 0.827E-24   0.676E-08 0.399E-05 -.137E-09
   -.213E-08 0.533E+02 0.177E-06   -.711E-13 -.543E+02 0.000E+00   -.208E-23 0.949E+00 -.248E-23   -.674E-08 0.399E-05 0.136E-09
   -.213E-08 0.533E+02 0.177E-06   -.284E-13 -.543E+02 0.000E+00   0.115E-23 0.949E+00 0.145E-23   0.676E-08 0.399E-05 -.137E-09
   0.275E+01 -.139E+02 0.118E+01   -.272E+01 0.133E+02 -.121E+01   -.317E-01 0.559E+00 0.195E-01   0.334E-05 0.161E-04 -.808E-06
   0.275E+01 -.139E+02 0.118E+01   -.272E+01 0.133E+02 -.121E+01   -.317E-01 0.559E+00 0.195E-01   0.336E-05 0.161E-04 -.806E-06
   0.275E+01 -.139E+02 0.118E+01   -.272E+01 0.133E+02 -.121E+01   -.317E-01 0.559E+00 0.195E-01   0.334E-05 0.162E-04 -.812E-06
   0.275E+01 -.139E+02 0.118E+01   -.272E+01 0.133E+02 -.121E+01   -.317E-01 0.559E+00 0.195E-01   0.336E-05 0.162E-04 -.809E-06
   -.275E+01 -.139E+02 -.118E+01   0.272E+01 0.133E+02 0.121E+01   0.317E-01 0.559E+00 -.195E-01   -.337E-05 0.161E-04 0.809E-06
   -.275E+01 -.139E+02 -.118E+01   0.272E+01 0.133E+02 0.121E+01   0.317E-01 0.559E+00 -.195E-01   -.333E-05 0.161E-04 0.805E-06
   -.275E+01 -.139E+02 -.118E+01   0.272E+01 0.133E+02 0.121E+01   0.317E-01 0.559E+00 -.195E-01   -.337E-05 0.162E-04 0.812E-06
   -.275E+01 -.139E+02 -.118E+01   0.272E+01 0.133E+02 0.121E+01   0.317E-01 0.559E+00 -.195E-01   -.333E-05 0.162E-04 0.809E-06
   0.275E+01 -.139E+02 0.118E+01   -.272E+01 0.133E+02 -.121E+01   -.317E-01 0.559E+00 0.195E-01   0.333E-05 0.161E-04 -.809E-06
   0.275E+01 -.139E+02 0.118E+01   -.272E+01 0.133E+02 -.121E+01   -.317E-01 0.559E+00 0.195E-01   0.337E-05 0.161E-04 -.805E-06
   0.275E+01 -.139E+02 0.118E+01   -.272E+01 0.133E+02 -.121E+01   -.317E-01 0.559E+00 0.195E-01   0.333E-05 0.162E-04 -.813E-06
   0.275E+01 -.139E+02 0.118E+01   -.272E+01 0.133E+02 -.121E+01   -.317E-01 0.559E+00 0.195E-01   0.337E-05 0.162E-04 -.809E-06
   -.275E+01 -.139E+02 -.118E+01   0.272E+01 0.133E+02 0.121E+01   0.317E-01 0.559E+00 -.195E-01   -.336E-05 0.161E-04 0.809E-06
   -.275E+01 -.139E+02 -.118E+01   0.272E+01 0.133E+02 0.121E+01   0.317E-01 0.559E+00 -.195E-01   -.334E-05 0.161E-04 0.804E-06
   -.275E+01 -.139E+02 -.118E+01   0.272E+01 0.133E+02 0.121E+01   0.317E-01 0.559E+00 -.195E-01   -.336E-05 0.162E-04 0.813E-06
   -.275E+01 -.139E+02 -.118E+01   0.272E+01 0.133E+02 0.121E+01   0.317E-01 0.559E+00 -.195E-01   -.334E-05 0.162E-04 0.808E-06
   -.367E+01 -.135E+02 0.133E+01   0.360E+01 0.128E+02 -.137E+01   0.695E-01 0.736E+00 0.249E-01   0.583E-05 0.682E-05 0.646E-05
   -.367E+01 -.135E+02 0.133E+01   0.360E+01 0.128E+02 -.137E+01   0.695E-01 0.736E+00 0.249E-01   0.585E-05 0.682E-05 0.646E-05
   -.367E+01 -.135E+02 0.133E+01   0.360E+01 0.128E+02 -.137E+01   0.695E-01 0.736E+00 0.249E-01   0.583E-05 0.685E-05 0.646E-05
   -.367E+01 -.135E+02 0.133E+01   0.360E+01 0.128E+02 -.137E+01   0.695E-01 0.736E+00 0.249E-01   0.585E-05 0.685E-05 0.646E-05
   0.367E+01 -.135E+02 -.133E+01   -.360E+01 0.128E+02 0.137E+01   -.695E-01 0.736E+00 -.249E-01   -.585E-05 0.682E-05 -.646E-05
   0.367E+01 -.135E+02 -.133E+01   -.360E+01 0.128E+02 0.137E+01   -.695E-01 0.736E+00 -.249E-01   -.583E-05 0.682E-05 -.646E-05
   0.367E+01 -.135E+02 -.133E+01   -.360E+01 0.128E+02 0.137E+01   -.695E-01 0.736E+00 -.249E-01   -.585E-05 0.685E-05 -.646E-05
   0.367E+01 -.135E+02 -.133E+01   -.360E+01 0.128E+02 0.137E+01   -.695E-01 0.736E+00 -.249E-01   -.583E-05 0.685E-05 -.646E-05
   -.367E+01 -.135E+02 0.133E+01   0.360E+01 0.128E+02 -.137E+01   0.695E-01 0.736E+00 0.249E-01   0.583E-05 0.682E-05 0.646E-05
   -.367E+01 -.135E+02 0.133E+01   0.360E+01 0.128E+02 -.137E+01   0.695E-01 0.736E+00 0.249E-01   0.585E-05 0.682E-05 0.646E-05
   -.367E+01 -.135E+02 0.133E+01   0.360E+01 0.128E+02 -.137E+01   0.695E-01 0.736E+00 0.249E-01   0.583E-05 0.684E-05 0.646E-05
   -.367E+01 -.135E+02 0.133E+01   0.360E+01 0.128E+02 -.137E+01   0.695E-01 0.736E+00 0.249E-01   0.585E-05 0.684E-05 0.646E-05
   0.367E+01 -.135E+02 -.133E+01   -.360E+01 0.128E+02 0.137E+01   -.695E-01 0.736E+00 -.249E-01   -.585E-05 0.682E-05 -.646E-05
   0.367E+01 -.135E+02 -.133E+01   -.360E+01 0.128E+02 0.137E+01   -.695E-01 0.736E+00 -.249E-01   -.583E-05 0.682E-05 -.646E-05
   0.367E+01 -.135E+02 -.133E+01   -.360E+01 0.128E+02 0.137E+01   -.695E-01 0.736E+00 -.249E-01   -.585E-05 0.684E-05 -.646E-05
   0.367E+01 -.135E+02 -.133E+01   -.360E+01 0.128E+02 0.137E+01   -.695E-01 0.736E+00 -.249E-01   -.583E-05 0.684E-05 -.646E-05
 -----------------------------------------------------------------------------------------------
   0.455E-06 -.236E+02 0.146E-03   -.488E-13 0.224E-12 -.113E-11   -.944E-15 0.236E+02 0.000E+00   0.970E-12 0.764E-03 0.613E-12
 
 
 POSITION                                       TOTAL-FORCE (eV/Angst)
 -----------------------------------------------------------------------------------
      1.35430      1.28682      1.33263         0.000417     -0.005144      0.001132
      6.60939      1.28682      1.44270         0.000417     -0.005144      0.001132
      1.35430      6.54679      1.33263         0.000417     -0.005144      0.001132
      6.60939      6.54679      1.44270         0.000417     -0.005144      0.001132
      3.95527      3.91680      1.37873        -0.000417     -0.005144     -0.001132
      9.21035      3.91680      1.48880        -0.000417     -0.005144     -0.001132
      3.95527      9.17677      1.37873        -0.000417     -0.005144     -0.001132
      9.21035      9.17677      1.48880        -0.000417     -0.005144     -0.001132
      1.50447      3.91598      9.13202        -0.000000     -0.005094     -0.000000
      6.75956      3.91598      9.24209        -0.000000     -0.005094     -0.000000
      1.50447      9.17595      9.13202        -0.000000     -0.005094     -0.000000
      6.75956      9.17595      9.24209        -0.000000     -0.005094     -0.000000
      4.13201      1.30746      9.18706        -0.000000     -0.000834     -0.000000
      9.38710      1.30746      9.29713        -0.000000     -0.000834     -0.000000
      4.13201      6.56743      9.18706        -0.000000     -0.000834     -0.000000
      9.38710      6.56743      9.29713        -0.000000     -0.000834     -0.000000
      1.43670      1.28682      6.52626        -0.000417     -0.005144     -0.001132
      6.69178      1.28682      6.63634        -0.000417     -0.005144     -0.001132
      1.43670      6.54679      6.52626        -0.000417     -0.005144     -0.001132
      6.69178      6.54679      6.63634        -0.000417     -0.005144     -0.001132
      4.09082      3.91680      6.59024         0.000417     -0.005144      0.001132
      9.34590      3.91680      6.70031         0.000417     -0.005144      0.001132
      4.09082      9.17677      6.59024         0.000417     -0.005144      0.001132
      9.34590      9.17677      6.70031         0.000417     -0.005144      0.001132
      4.02304      1.28600      3.98448        -0.000000     -0.005094     -0.000000
      9.27813      1.28600      4.09456        -0.000000     -0.005094     -0.000000
      4.02304      6.54597      3.98448        -0.000000     -0.005094     -0.000000
      9.27813      6.54597      4.09456        -0.000000     -0.005094     -0.000000
      1.39550      3.93744      3.92945        -0.000000     -0.000834     -0.000000
      6.65058      3.93744      4.03952        -0.000000     -0.000834     -0.000000
      1.39550      9.19741      3.92945        -0.000000     -0.000834     -0.000000
      6.65058      9.19741      4.03952        -0.000000     -0.000834     -0.000000
     10.60933      0.02363      5.42249         0.002282      0.003714     -0.005190
      5.35425      0.02363      5.31242         0.002282      0.003714     -0.005190
     10.60933      5.28359      5.42249         0.002282      0.003714     -0.005190
      5.35425      5.28359      5.31242         0.002282      0.003714     -0.005190
      2.69183      0.02363      2.65655        -0.002282      0.003714      0.005190
      7.94692      0.02363      2.76662        -0.002282      0.003714      0.005190
      2.69183      5.28359      2.65655        -0.002282      0.003714      0.005190
      7.94692      5.28359      2.76662        -0.002282      0.003714      0.005190
      2.83568      2.65361     10.45996         0.002282      0.003714     -0.005190
      8.09076      2.65361     10.57003         0.002282      0.003714     -0.005190
      2.83568      7.91358     10.45996         0.002282      0.003714     -0.005190
      8.09076      7.91358     10.57003         0.002282      0.003714     -0.005190
      0.17327      2.65361      7.80408        -0.002282      0.003714      0.005190
      5.42835      2.65361      7.91416        -0.002282      0.003714      0.005190
      0.17327      7.91358      7.80408        -0.002282      0.003714      0.005190
      5.42835      7.91358      7.91416        -0.002282      0.003714      0.005190
     10.50468      0.02281      0.22280         0.003258      0.004394     -0.010692
      5.24959      0.02281      0.11272         0.003258      0.004394     -0.010692
     10.50468      5.28277      0.22280         0.003258      0.004394     -0.010692
      5.24959      5.28277      0.11272         0.003258      0.004394     -0.010692
      2.79649      0.02281      7.85624        -0.003258      0.004394      0.010692
      8.05158      0.02281      7.96632        -0.003258      0.004394      0.010692
      2.79649      5.28277      7.85624        -0.003258      0.004394      0.010692
      8.05158      5.28277      7.96632        -0.003258      0.004394      0.010692
      2.73102      2.65279      5.26026         0.003258      0.004394     -0.010692
      7.98611      2.65279      5.37033         0.003258      0.004394     -0.010692
      2.73102      7.91276      5.26026         0.003258      0.004394     -0.010692
      7.98611      7.91276      5.37033         0.003258      0.004394     -0.010692
      0.05998      2.65279      2.59863        -0.003258      0.004394      0.010692
      5.31506      2.65279      2.70871        -0.003258      0.004394      0.010692
      0.05998      7.91276      2.59863        -0.003258      0.004394      0.010692
      5.31506      7.91276      2.70871        -0.003258      0.004394      0.010692
 -----------------------------------------------------------------------------------
    total drift:                                0.000000     -0.008231      0.000146


--------------------------------------------------------------------------------------------------------



  FREE ENERGIE OF THE ION-ELECTRON SYSTEM (eV)
  ---------------------------------------------------
  free  energy   TOTEN  =      -327.93635594 eV

  energy  without entropy=     -327.93635594  energy(sigma->0) =     -327.93635594
 


--------------------------------------------------------------------------------------------------------


    POTLOK:  cpu time    0.1530: real time    0.1537


--------------------------------------------------------------------------------------------------------


 writing wavefunctions
     LOOP+:  cpu time 3578.8695: real time 3604.2631
    4ORBIT:  cpu time    0.0000: real time    0.0000
 


 total charge     
 
# of ion       s       p       d       tot
------------------------------------------
    1        1.314   2.410   0.000   3.724
    2        1.314   2.410   0.000   3.724
    3        1.314   2.410   0.000   3.724
    4        1.314   2.410   0.000   3.724
    5        1.314   2.410   0.000   3.724
    6        1.314   2.410   0.000   3.724
    7        1.314   2.410   0.000   3.724
    8        1.314   2.410   0.000   3.724
    9        1.314   2.407   0.000   3.722
   10        1.314   2.407   0.000   3.722
   11        1.314   2.407   0.000   3.722
   12        1.314   2.407   0.000   3.722
   13        1.313   2.412   0.000   3.725
   14        1.313   2.412   0.000   3.725
   15        1.313   2.412   0.000   3.725
   16        1.313   2.412   0.000   3.725
   17        1.314   2.410   0.000   3.724
   18        1.314   2.410   0.000   3.724
   19        1.314   2.410   0.000   3.724
   20        1.314   2.410   0.000   3.724
   21        1.314   2.410   0.000   3.724
   22        1.314   2.410   0.000   3.724
   23        1.314   2.410   0.000   3.724
   24        1.314   2.410   0.000   3.724
   25        1.314   2.407   0.000   3.722
   26        1.314   2.407   0.000   3.722
   27        1.314   2.407   0.000   3.722
   28        1.314   2.407   0.000   3.722
   29        1.313   2.412   0.000   3.725
   30        1.313   2.412   0.000   3.725
   31        1.313   2.412   0.000   3.725
   32        1.313   2.412   0.000   3.725
   33        0.259   6.202   8.917  15.378
   34        0.259   6.202   8.917  15.378
   35        0.259   6.202   8.917  15.378
   36        0.259   6.202   8.917  15.378
   37        0.259   6.202   8.917  15.378
   38        0.259   6.202   8.917  15.378
   39        0.259   6.202   8.917  15.378
   40        0.259   6.202   8.917  15.378
   41        0.259   6.202   8.917  15.378
   42        0.259   6.202   8.917  15.378
   43        0.259   6.202   8.917  15.378
   44        0.259   6.202   8.917  15.378
   45        0.259   6.202   8.917  15.378
   46        0.259   6.202   8.917  15.378
   47        0.259   6.202   8.917  15.378
   48        0.259   6.202   8.917  15.378
   49        0.350   6.351   5.821  12.521
   50        0.350   6.351   5.821  12.521
   51        0.350   6.351   5.821  12.521
   52        0.350   6.351   5.821  12.521
   53        0.350   6.351   5.821  12.521
   54        0.350   6.351   5.821  12.521
   55        0.350   6.351   5.821  12.521
   56        0.350   6.351   5.821  12.521
   57        0.350   6.351   5.821  12.521
   58        0.350   6.351   5.821  12.521
   59        0.350   6.351   5.821  12.521
   60        0.350   6.351   5.821  12.521
   61        0.350   6.351   5.821  12.521
   62        0.350   6.351   5.821  12.521
   63        0.350   6.351   5.821  12.521
   64        0.350   6.351   5.821  12.521
--------------------------------------------------
tot         51.788 277.955 235.795 565.538
 


 magnetization (x)
 
# of ion       s       p       d       tot
------------------------------------------
    1       -0.000  -0.010   0.000  -0.010
    2       -0.000  -0.010   0.000  -0.010
    3       -0.000  -0.010   0.000  -0.010
    4       -0.000  -0.010   0.000  -0.010
    5        0.000   0.010   0.000   0.010
    6        0.000   0.010   0.000   0.010
    7        0.000   0.010   0.000   0.010
    8        0.000   0.010   0.000   0.010
    9        0.000   0.000   0.000   0.000
   10        0.000   0.000   0.000   0.000
   11        0.000   0.000   0.000   0.000
   12       -0.000   0.000   0.000   0.000
   13       -0.000  -0.000   0.000  -0.000
   14       -0.000  -0.000   0.000  -0.000
   15       -0.000  -0.000   0.000  -0.000
   16       -0.000  -0.000   0.000  -0.000
   17        0.000   0.010   0.000   0.010
   18        0.000   0.010   0.000   0.010
   19        0.000   0.010   0.000   0.010
   20        0.000   0.010   0.000   0.010
   21       -0.000  -0.010   0.000  -0.010
   22       -0.000  -0.010   0.000  -0.010
   23       -0.000  -0.010   0.000  -0.010
   24       -0.000  -0.010   0.000  -0.010
   25        0.000   0.000   0.000   0.000
   26       -0.000   0.000   0.000   0.000
   27        0.000   0.000   0.000   0.000
   28       -0.000   0.000   0.000   0.000
   29       -0.000  -0.000   0.000  -0.000
   30       -0.000  -0.000   0.000  -0.000
   31       -0.000  -0.000   0.000  -0.000
   32       -0.000  -0.000   0.000  -0.000
   33        0.000   0.001  -0.001  -0.000
   34        0.000   0.001  -0.001  -0.000
   35        0.000   0.001  -0.001  -0.000
   36        0.000   0.001  -0.001  -0.000
   37       -0.000  -0.001   0.001   0.000
   38       -0.000  -0.001   0.001   0.000
   39       -0.000  -0.001   0.001   0.000
   40       -0.000  -0.001   0.001   0.000
   41        0.000   0.001  -0.001  -0.000
   42        0.000   0.001  -0.001  -0.000
   43        0.000   0.001  -0.001  -0.000
   44        0.000   0.001  -0.001  -0.000
   45       -0.000  -0.001   0.001   0.000
   46       -0.000  -0.001   0.001   0.000
   47       -0.000  -0.001   0.001   0.000
   48       -0.000  -0.001   0.001   0.000
   49        0.020   0.054   3.670   3.743
   50        0.020   0.054   3.670   3.743
   51        0.020   0.054   3.670   3.743
   52        0.020   0.054   3.670   3.743
   53       -0.020  -0.054  -3.670  -3.743
   54       -0.020  -0.054  -3.670  -3.743
   55       -0.020  -0.054  -3.670  -3.743
   56       -0.020  -0.054  -3.670  -3.743
   57        0.020   0.054   3.670   3.743
   58        0.020   0.054   3.670   3.743
   59        0.020   0.054   3.670   3.743
   60        0.020   0.054   3.670   3.743
   61       -0.020  -0.054  -3.670  -3.743
   62       -0.020  -0.054  -3.670  -3.743
   63       -0.020  -0.054  -3.670  -3.743
   64       -0.020  -0.054  -3.670  -3.743
--------------------------------------------------
tot          0.000   0.000  -0.000  -0.000
 
 BZINTS: Fermi energy:  4.961983;688.000000 electrons
         Band energy:***********;  BLOECHL correction:  0.000000

 total amount of memory used by VASP MPI-rank0   349631. kBytes
=======================================================================

   base      :      30000. kBytes
   nonl-proj :     217907. kBytes
   fftplans  :       4588. kBytes
   grid      :      69719. kBytes
   one-center:       1990. kBytes
   wavefun   :      25427. kBytes
 
  
  
 General timing and accounting informations for this job:
 ========================================================
  
                  Total CPU time used (sec):     3638.105
                            User time (sec):     3626.866
                          System time (sec):       11.239
                         Elapsed time (sec):     3665.032
  
                   Maximum memory used (kb):      729996.
                   Average memory used (kb):           0.
  
                          Minor page faults:       457174
                          Major page faults:         5668
                 Voluntary context switches:         7185
