       N       E                     dE             d eps       ncg     rms          rms(c)
DAV:   1     0.604542621540E+04    0.60454E+04   -0.51685E+05 16384   0.197E+03
DAV:   2    -0.908054255394E+02   -0.61362E+04   -0.60269E+04 18688   0.446E+02
DAV:   3    -0.331751370100E+03   -0.24095E+03   -0.24021E+03 21248   0.963E+01
DAV:   4    -0.335178476314E+03   -0.34271E+01   -0.34269E+01 20992   0.117E+01
DAV:   5    -0.335282494380E+03   -0.10402E+00   -0.10402E+00 20224   0.197E+00    0.221E+01
DAV:   6    -0.329155424537E+03    0.61271E+01   -0.73799E+00 27136   0.963E+00    0.123E+01
DAV:   7    -0.327572413338E+03    0.15830E+01   -0.57735E+00 22272   0.735E+00    0.838E+00
DAV:   8    -0.327275824842E+03    0.29659E+00   -0.58606E+00 24320   0.667E+00    0.707E+00
DAV:   9    -0.327084606534E+03    0.19122E+00   -0.23830E+00 21504   0.408E+00    0.272E+00
DAV:  10    -0.327086896135E+03   -0.22896E-02   -0.11116E-01 25344   0.967E-01    0.135E+00
DAV:  11    -0.327092166180E+03   -0.52700E-02   -0.39196E-02 22784   0.477E-01    0.623E-01
DAV:  12    -0.327096423357E+03   -0.42572E-02   -0.16439E-02 21504   0.214E-01    0.227E-01
DAV:  13    -0.327097003337E+03   -0.57998E-03   -0.17868E-03 20992   0.799E-02    0.141E-01
DAV:  14    -0.327097379179E+03   -0.37584E-03   -0.10128E-03 23040   0.388E-02    0.731E-02
DAV:  15    -0.327097561419E+03   -0.18224E-03   -0.47326E-04 19968   0.231E-02    0.361E-02
DAV:  16    -0.327097612110E+03   -0.50691E-04   -0.12080E-04 22016   0.132E-02    0.241E-02
DAV:  17    -0.327097647926E+03   -0.35816E-04   -0.15914E-04 20480   0.126E-02    0.129E-02
DAV:  18    -0.327097656069E+03   -0.81432E-05   -0.59765E-05 20992   0.839E-03    0.608E-03
DAV:  19    -0.327097656747E+03   -0.67805E-06   -0.30606E-06 18944   0.239E-03    0.527E-03
DAV:  20    -0.327097657080E+03   -0.33317E-06   -0.18879E-06 23040   0.166E-03    0.191E-03
DAV:  21    -0.327097657210E+03   -0.12989E-06   -0.51985E-07 21248   0.904E-04    0.138E-03
DAV:  22    -0.327097657259E+03   -0.49302E-07   -0.76660E-08 24320   0.316E-04    0.829E-04
DAV:  23    -0.327097657281E+03   -0.21188E-07   -0.23860E-08 14848   0.174E-04    0.307E-04
DAV:  24    -0.327097657293E+03   -0.12034E-07   -0.21655E-08 15616   0.156E-04    0.264E-04
DAV:  25    -0.327097657297E+03   -0.42201E-08   -0.50141E-09 12800   0.938E-05
   1 F= -.32709766E+03 E0= -.32709766E+03  d E =0.000000E+00  mag=     0.0000
