 vasp.5.4.4.18Apr17-6-g9f103f2a35 (build Oct 30 2023 17:30:16) complex          
  
 executed on             LinuxIFC date 2024.06.30  20:56:50
 running on  256 total cores
 distrk:  each k-point on  256 cores,    1 groups
 distr:  one band on NCORES_PER_BAND=   1 cores,  256 groups


--------------------------------------------------------------------------------------------------------


 INCAR:
 POTCAR:    PAW_PBE S 06Sep2000                   
 POTCAR:     PAW_PBE Cu_pv 06Sep2000              
 POTCAR:     PAW_PBE Fe_pv 02Aug2007              

 ----------------------------------------------------------------------------- 
|                                                                             |
|           W    W    AA    RRRRR   N    N  II  N    N   GGGG   !!!           |
|           W    W   A  A   R    R  NN   N  II  NN   N  G    G  !!!           |
|           W    W  A    A  R    R  N N  N  II  N N  N  G       !!!           |
|           W WW W  AAAAAA  RRRRR   N  N N  II  N  N N  G  GGG   !            |
|           WW  WW  A    A  R   R   N   NN  II  N   NN  G    G                |
|           W    W  A    A  R    R  N    N  II  N    N   GGGG   !!!           |
|                                                                             |
|      For optimal performance we recommend to set                            |
|        NCORE= 4 - approx SQRT( number of cores)                             |
|      NCORE specifies how many cores store one orbital (NPAR=cpu/NCORE).     |
|      This setting can  greatly improve the performance of VASP for DFT.     |
|      The default,   NCORE=1            might be grossly inefficient         |
|      on modern multi-core architectures or massively parallel machines.     |
|      Do your own testing !!!!                                               |
|      Unfortunately you need to use the default for GW and RPA calculations. |
|      (for HF NCORE is supported but not extensively tested yet)             |
|                                                                             |
 ----------------------------------------------------------------------------- 

 POTCAR:    PAW_PBE S 06Sep2000                   
   SHA256 =  0fc7481fb0695f01bdc6462160264c5c84044ae9ec85a907d398b887a2bc3132 S/
   COPYR  = (c) Copyright 06Sep2000 Georg Kresse                                
   COPYR  = This file is part of the software VASP. Any use, copying, and all ot
   COPYR  = If you do not have a valid VASP license, you may not use, copy or di
   VRHFIN =S : s2p4                                                             
   LEXCH  = PE                                                                  
   EATOM  =   276.8230 eV,   20.3459 Ry                                         
                                                                                
   TITEL  = PAW_PBE S 06Sep2000                                                 
   LULTRA =        F    use ultrasoft PP ?                                      
   IUNSCR =        1    unscreen: 0-lin 1-nonlin 2-no                           
   RPACOR =    1.500    partial core radius                                     
   POMASS =   32.066; ZVAL   =    6.000    mass and valenz                      
   RCORE  =    1.900    outmost cutoff radius                                   
   RWIGS  =    2.200; RWIGS  =    1.164    wigner-seitz radius (au A)           
   ENMAX  =  258.689; ENMIN  =  194.016 eV                                      
   ICORE  =        2    local potential                                         
   LCOR   =        T    correct aug charges                                     
   LPAW   =        T    paw PP                                                  
   EAUG   =  335.092                                                            
   DEXC   =    0.000                                                            
   RMAX   =    1.942    core radius for proj-oper                               
   RAUG   =    1.300    factor for augmentation sphere                          
   RDEP   =    1.954    radius for radial grids                                 
   RDEPT  =    1.744    core radius for aug-charge                              
                                                                                
   Atomic configuration                                                         
    6 entries                                                                   
     n  l   j            E        occ.                                          
     1  0  0.50     -2405.8406   2.0000                                         
     2  0  0.50      -211.7007   2.0000                                         
     2  1  1.50      -156.4958   6.0000                                         
     3  0  0.50       -17.2562   2.0000                                         
     3  1  0.50        -7.0085   4.0000                                         
     3  2  1.50        -6.8029   0.0000                                         
   Description                                                                  
     l       E           TYP  RCUT    TYP  RCUT                                 
     0    -17.2561641     23  1.900                                             
     0    -15.8743224     23  1.900                                             
     1     -7.0085400     23  1.900                                             
     1     -2.7779785     23  1.900                                             
     2     -6.8029130     23  1.900                                             
  local pseudopotential read in
  partial core-charges read in
  partial kinetic energy density read in
  atomic valenz-charges read in
  non local Contribution for L=           0  read in
    real space projection operators read in
  non local Contribution for L=           0  read in
    real space projection operators read in
  non local Contribution for L=           1  read in
    real space projection operators read in
  non local Contribution for L=           1  read in
    real space projection operators read in
    PAW grid and wavefunctions read in
 
   number of l-projection  operators is LMAX  =           4
   number of lm-projection operators is LMMAX =           8
 
 POTCAR:     PAW_PBE Cu_pv 06Sep2000              
   SHA256 =  cb7b504e2ea725fe1f25c85a9ac77d4012ce94cd394135b722c4e25ec297f1cb Cu
   COPYR  = (c) Copyright 06Sep2000 Georg Kresse                                
   COPYR  = This file is part of the software VASP. Any use, copying, and all ot
   COPYR  = If you do not have a valid VASP license, you may not use, copy or di
   VRHFIN =Cu: d10 p1                                                           
   LEXCH  = PE                                                                  
   EATOM  =  4120.1201 eV,  302.8203 Ry                                         
                                                                                
   TITEL  = PAW_PBE Cu_pv 06Sep2000                                             
   LULTRA =        F    use ultrasoft PP ?                                      
   IUNSCR =        1    unscreen: 0-lin 1-nonlin 2-no                           
   RPACOR =    1.500    partial core radius                                     
   POMASS =   63.546; ZVAL   =   17.000    mass and valenz                      
   RCORE  =    2.000    outmost cutoff radius                                   
   RWIGS  =    2.000; RWIGS  =    1.058    wigner-seitz radius (au A)           
   ENMAX  =  368.648; ENMIN  =  276.486 eV                                      
   RCLOC  =    1.304    cutoff for local pot                                    
   LCOR   =        T    correct aug charges                                     
   LPAW   =        T    paw PP                                                  
   EAUG   =  758.233                                                            
   DEXC   =    0.000                                                            
   RMAX   =    2.046    core radius for proj-oper                               
   RAUG   =    1.300    factor for augmentation sphere                          
   RDEP   =    2.025    radius for radial grids                                 
   RDEPT  =    1.558    core radius for aug-charge                              
                                                                                
   Atomic configuration                                                         
    8 entries                                                                   
     n  l   j            E        occ.                                          
     1  0  0.50     -8850.2467   2.0000                                         
     2  0  0.50     -1062.3498   2.0000                                         
     2  1  1.50      -916.8226   6.0000                                         
     3  0  0.50      -114.6929   2.0000                                         
     3  1  1.50       -72.1325   6.0000                                         
     3  2  2.50        -5.0394  10.0000                                         
     4  0  0.50        -4.6097   1.0000                                         
     4  3  2.50        -1.3606   0.0000                                         
   Description                                                                  
     l       E           TYP  RCUT    TYP  RCUT                                 
     1    -72.1324777     23  1.700                                             
     1     -1.3605826     23  1.700                                             
     2     -5.0393776     23  2.000                                             
     2     -6.3999602     23  2.000                                             
     0     -4.6097062     23  1.800                                             
     0     14.1620818     23  1.800                                             
  local pseudopotential read in
  partial core-charges read in
  partial kinetic energy density read in
  atomic valenz-charges read in
  non local Contribution for L=           1  read in
    real space projection operators read in
  non local Contribution for L=           1  read in
    real space projection operators read in
  non local Contribution for L=           2  read in
    real space projection operators read in
  non local Contribution for L=           2  read in
    real space projection operators read in
  non local Contribution for L=           0  read in
    real space projection operators read in
  non local Contribution for L=           0  read in
    real space projection operators read in
    PAW grid and wavefunctions read in
 
   number of l-projection  operators is LMAX  =           6
   number of lm-projection operators is LMMAX =          18
 
 POTCAR:     PAW_PBE Fe_pv 02Aug2007              
   SHA256 =  5d22e414b1f82158bf2c7ecb8b97b28fd0923e48cadc1c3bf74d524558f5dd32 Fe
   COPYR  = (c) Copyright 02Aug2007 Georg Kresse                                
   COPYR  = This file is part of the software VASP. Any use, copying, and all ot
   COPYR  = If you do not have a valid VASP license, you may not use, copy or di
   VRHFIN =Fe:  3pd7s1                                                          
   LEXCH  = PE                                                                  
   EATOM  =  2457.4239 eV,  180.6156 Ry                                         
                                                                                
   TITEL  = PAW_PBE Fe_pv 02Aug2007                                             
   LULTRA =        F    use ultrasoft PP ?                                      
   IUNSCR =        1    unscreen: 0-lin 1-nonlin 2-no                           
   RPACOR =    1.750    partial core radius                                     
   POMASS =   55.847; ZVAL   =   14.000    mass and valenz                      
   RCORE  =    2.200    outmost cutoff radius                                   
   RWIGS  =    2.200; RWIGS  =    1.164    wigner-seitz radius (au A)           
   ENMAX  =  293.238; ENMIN  =  219.928 eV                                      
   ICORE  =        3    local potential                                         
   LCOR   =        T    correct aug charges                                     
   LPAW   =        T    paw PP                                                  
   EAUG   =  578.342                                                            
   DEXC   =    0.000                                                            
   RMAX   =    2.249    core radius for proj-oper                               
   RAUG   =    1.300    factor for augmentation sphere                          
   RDEP   =    2.296    radius for radial grids                                 
   RDEPT  =    1.766    core radius for aug-charge                              
                                                                                
   Atomic configuration                                                         
    8 entries                                                                   
     n  l   j            E        occ.                                          
     1  0  0.50     -6993.8440   2.0000                                         
     2  0  0.50      -814.6047   2.0000                                         
     2  1  1.50      -693.3689   6.0000                                         
     3  0  0.50       -89.4732   2.0000                                         
     3  1  1.50       -55.6373   6.0000                                         
     3  2  2.50        -3.8151   7.0000                                         
     4  0  0.50        -4.2551   1.0000                                         
     4  3  2.50        -1.3606   0.0000                                         
   Description                                                                  
     l       E           TYP  RCUT    TYP  RCUT                                 
     1    -55.6372668     23  2.000                                             
     1     -5.4423304     23  2.000                                             
     2     -3.8151096     23  2.200                                             
     2     -5.1756922     23  2.200                                             
     0     -4.2550951     23  2.200                                             
     0     27.2116520     23  2.200                                             
     3     -1.3605826     23  2.200                                             
  local pseudopotential read in
  partial core-charges read in
  partial kinetic energy density read in
  atomic valenz-charges read in
  non local Contribution for L=           1  read in
    real space projection operators read in
  non local Contribution for L=           1  read in
    real space projection operators read in
  non local Contribution for L=           2  read in
    real space projection operators read in
  non local Contribution for L=           2  read in
    real space projection operators read in
  non local Contribution for L=           0  read in
    real space projection operators read in
  non local Contribution for L=           0  read in
    real space projection operators read in
    PAW grid and wavefunctions read in
 
   number of l-projection  operators is LMAX  =           6
   number of lm-projection operators is LMMAX =          18
 

 ----------------------------------------------------------------------------- 
|                                                                             |
|  ADVICE TO THIS USER RUNNING 'VASP/VAMP'   (HEAR YOUR MASTER'S VOICE ...):  |
|                                                                             |
|      You have a (more or less) 'large supercell' and for larger cells       |
|      it might be more efficient to use real space projection opertators     |
|      So try LREAL= Auto  in the INCAR   file.                               |
|      Mind:          For very  accurate calculation you might also keep the  |
|      reciprocal projection scheme          (i.e. LREAL=.FALSE.)             |
|                                                                             |
 ----------------------------------------------------------------------------- 


 ----------------------------------------------------------------------------- 
|                                                                             |
|  ADVICE TO THIS USER RUNNING 'VASP/VAMP'   (HEAR YOUR MASTER'S VOICE ...):  |
|                                                                             |
|      You enforced a specific xc-type in the INCAR file,                     |
|      a different type was found on the POTCAR file                          |
|          I HOPE YOU KNOW, WHAT YOU ARE  DOING                               |
|                                                                             |
 ----------------------------------------------------------------------------- 

  PAW_PBE S 06Sep2000                   :
 energy of atom  1       EATOM= -276.8230
 kinetic energy error for atom=    0.0007 (will be added to EATOM!!)
   PAW_PBE Cu_pv 06Sep2000              :
 energy of atom  2       EATOM=-4120.1201
 kinetic energy error for atom=    0.0094 (will be added to EATOM!!)
   PAW_PBE Fe_pv 02Aug2007              :
 energy of atom  3       EATOM=-2457.4239
 kinetic energy error for atom=    0.0025 (will be added to EATOM!!)
 
 
 POSCAR: Fe16 Cu16 S32                           
  positions in direct lattice
  No initial velocities read in
 exchange correlation table for  LEXCH =       14
   RHO(1)=    0.500       N(1)  =     2000
   RHO(2)=  100.500       N(2)  =     4000
 


--------------------------------------------------------------------------------------------------------


 ion  position               nearest neighbor table
   1  0.126  0.119  0.126-  41 2.25  61 2.26  37 2.28  49 2.30
   2  0.626  0.119  0.126-  42 2.25  62 2.26  38 2.28  50 2.30
   3  0.126  0.619  0.126-  43 2.25  63 2.26  39 2.28  51 2.30
   4  0.626  0.619  0.126-  44 2.25  64 2.26  40 2.28  52 2.30
   5  0.374  0.369  0.124-  39 2.25  52 2.26  41 2.28  62 2.30
   6  0.874  0.369  0.124-  40 2.25  51 2.26  42 2.28  61 2.30
   7  0.374  0.869  0.124-  37 2.25  50 2.26  43 2.28  64 2.30
   8  0.874  0.869  0.124-  38 2.25  49 2.26  44 2.28  63 2.30
   9  0.125  0.370  0.875-  41 2.27  45 2.27  51 2.27  55 2.27
  10  0.625  0.370  0.875-  42 2.27  46 2.27  52 2.27  56 2.27
  11  0.125  0.870  0.875-  43 2.27  47 2.27  49 2.27  53 2.27
  12  0.625  0.870  0.875-  44 2.27  48 2.27  50 2.27  54 2.27
  13  0.375  0.122  0.875-  41 2.26  46 2.26  50 2.29  53 2.29
  14  0.875  0.122  0.875-  42 2.26  45 2.26  49 2.29  54 2.29
  15  0.375  0.622  0.875-  43 2.26  48 2.26  52 2.29  55 2.29
  16  0.875  0.622  0.875-  44 2.26  47 2.26  51 2.29  56 2.29
  17  0.124  0.119  0.624-  45 2.25  57 2.26  33 2.28  53 2.30
  18  0.624  0.119  0.624-  46 2.25  58 2.26  34 2.28  54 2.30
  19  0.124  0.619  0.624-  47 2.25  59 2.26  35 2.28  55 2.30
  20  0.624  0.619  0.624-  48 2.25  60 2.26  36 2.28  56 2.30
  21  0.376  0.369  0.626-  36 2.25  55 2.26  46 2.28  57 2.30
  22  0.876  0.369  0.626-  35 2.25  56 2.26  45 2.28  58 2.30
  23  0.376  0.869  0.626-  34 2.25  53 2.26  48 2.28  59 2.30
  24  0.876  0.869  0.626-  33 2.25  54 2.26  47 2.28  60 2.30
  25  0.375  0.120  0.375-  34 2.27  37 2.27  57 2.27  62 2.27
  26  0.875  0.120  0.375-  33 2.27  38 2.27  58 2.27  61 2.27
  27  0.375  0.620  0.375-  36 2.27  39 2.27  59 2.27  64 2.27
  28  0.875  0.620  0.375-  35 2.27  40 2.27  60 2.27  63 2.27
  29  0.125  0.372  0.375-  35 2.26  39 2.26  57 2.29  61 2.29
  30  0.625  0.372  0.375-  36 2.26  40 2.26  58 2.29  62 2.29
  31  0.125  0.872  0.375-  33 2.26  37 2.26  59 2.29  63 2.29
  32  0.625  0.872  0.375-  34 2.26  38 2.26  60 2.29  64 2.29
  33  0.998  0.005  0.500-  24 2.25  31 2.26  26 2.27  17 2.28
  34  0.498  0.005  0.500-  23 2.25  32 2.26  25 2.27  18 2.28
  35  0.998  0.505  0.500-  22 2.25  29 2.26  28 2.27  19 2.28
  36  0.498  0.505  0.500-  21 2.25  30 2.26  27 2.27  20 2.28
  37  0.252  0.005  0.250-   7 2.25  31 2.26  25 2.27   1 2.28
  38  0.752  0.005  0.250-   8 2.25  32 2.26  26 2.27   2 2.28
  39  0.252  0.505  0.250-   5 2.25  29 2.26  27 2.27   3 2.28
  40  0.752  0.505  0.250-   6 2.25  30 2.26  28 2.27   4 2.28
  41  0.248  0.255  0.000-   1 2.25  13 2.26   9 2.27   5 2.28
  42  0.748  0.255  0.000-   2 2.25  14 2.26  10 2.27   6 2.28
  43  0.248  0.755  0.000-   3 2.25  15 2.26  11 2.27   7 2.28
  44  0.748  0.755  0.000-   4 2.25  16 2.26  12 2.27   8 2.28
  45  0.002  0.255  0.750-  17 2.25  14 2.26   9 2.27  22 2.28
  46  0.502  0.255  0.750-  18 2.25  13 2.26  10 2.27  21 2.28
  47  0.002  0.755  0.750-  19 2.25  16 2.26  11 2.27  24 2.28
  48  0.502  0.755  0.750-  20 2.25  15 2.26  12 2.27  23 2.28
  49  0.999  0.005  0.001-   8 2.26  11 2.27  14 2.29   1 2.30
  50  0.499  0.005  0.001-   7 2.26  12 2.27  13 2.29   2 2.30
  51  0.999  0.505  0.001-   6 2.26   9 2.27  16 2.29   3 2.30
  52  0.499  0.505  0.001-   5 2.26  10 2.27  15 2.29   4 2.30
  53  0.251  0.005  0.749-  23 2.26  11 2.27  13 2.29  17 2.30
  54  0.751  0.005  0.749-  24 2.26  12 2.27  14 2.29  18 2.30
  55  0.251  0.505  0.749-  21 2.26   9 2.27  15 2.29  19 2.30
  56  0.751  0.505  0.749-  22 2.26  10 2.27  16 2.29  20 2.30
  57  0.249  0.255  0.501-  17 2.26  25 2.27  29 2.29  21 2.30
  58  0.749  0.255  0.501-  18 2.26  26 2.27  30 2.29  22 2.30
  59  0.249  0.755  0.501-  19 2.26  27 2.27  31 2.29  23 2.30
  60  0.749  0.755  0.501-  20 2.26  28 2.27  32 2.29  24 2.30
  61  0.001  0.255  0.249-   1 2.26  26 2.27  29 2.29   6 2.30
  62  0.501  0.255  0.249-   2 2.26  25 2.27  30 2.29   5 2.30
  63  0.001  0.755  0.249-   3 2.26  28 2.27  31 2.29   8 2.30
  64  0.501  0.755  0.249-   4 2.26  27 2.27  32 2.29   7 2.30
 
  LATTYP: Found a simple monoclinic cell.
 ALAT       =    15.4949519005
 B/A-ratio  =     0.6795717772
 C/A-ratio  =     1.5626324851
 COS(beta)  =    -0.9569910104
  
  Lattice vectors:
  
 A1 = ( -11.0063570000,   0.0000000000, -10.9065870000)
 A2 = (   0.0000000000, -10.5299320000,   0.0000000000)
 A3 = (  11.5147140000,   0.0000000000,  21.2996860000)


Analysis of symmetry for initial positions (statically):
=====================================================================
 Subroutine PRICEL returns following result:
 
  LATTYP: Found a base centered monoclinic cell.
 ALAT       =    11.1901469490
 B/A-ratio  =     0.4705001663
 C/A-ratio  =     0.9298827117
 COS(beta)  =    -0.7999321075
  
  Lattice vectors:
  
 A1 = (  -2.3703215000,  -2.6324830000,   5.0681775000)
 A2 = (  -2.3703215000,   2.6324830000,   5.0681775000)
 A3 = (  -0.5083570000,   0.0000000000, -10.3930990000)
 
   8 primitive cells build up your supercell.
 

 Routine SETGRP: Setting up the symmetry group for a 
 simple monoclinic supercell.


 Subroutine GETGRP returns: Found  2 space group operations
 (whereof  1 operations were pure point group operations)
 out of a pool of  4 trial point group operations.


The static configuration has the point symmetry C_1 .
 The point group associated with its full space group is C_2 .


Analysis of symmetry for dynamics (positions and initial velocities):
=====================================================================
 Subroutine PRICEL returns following result:
 
  LATTYP: Found a base centered monoclinic cell.
 ALAT       =    11.1901469490
 B/A-ratio  =     0.4705001663
 C/A-ratio  =     0.9298827117
 COS(beta)  =    -0.7999321075
  
  Lattice vectors:
  
 A1 = (  -2.3703215000,  -2.6324830000,   5.0681775000)
 A2 = (  -2.3703215000,   2.6324830000,   5.0681775000)
 A3 = (  -0.5083570000,   0.0000000000, -10.3930990000)
 
   8 primitive cells build up your supercell.
 

 Routine SETGRP: Setting up the symmetry group for a 
 simple monoclinic supercell.


 Subroutine GETGRP returns: Found  2 space group operations
 (whereof  1 operations were pure point group operations)
 out of a pool of  4 trial point group operations.


The dynamic configuration has the point symmetry C_1 .
 The point group associated with its full space group is C_2 .


Analysis of structural, dynamic, and magnetic symmetry:
=====================================================================
 Subroutine PRICEL returns following result:
 
  LATTYP: Found a base centered monoclinic cell.
 ALAT       =    11.1901469490
 B/A-ratio  =     0.4705001663
 C/A-ratio  =     0.9298827117
 COS(beta)  =    -0.7999321075
  
  Lattice vectors:
  
 A1 = (  -2.3703215000,  -2.6324830000,   5.0681775000)
 A2 = (  -2.3703215000,   2.6324830000,   5.0681775000)
 A3 = (  -0.5083570000,   0.0000000000, -10.3930990000)
 
   8 primitive cells build up your supercell.
 

 Routine SETGRP: Setting up the symmetry group for a 
 simple monoclinic supercell.


 Subroutine GETGRP returns: Found  2 space group operations
 (whereof  1 operations were pure point group operations)
 out of a pool of  4 trial point group operations.


The magnetic configuration has the point symmetry C_1 .
 The point group associated with its full space group is C_2 .


 Subroutine INISYM returns: Found  2 space group operations
 (whereof  1 operations are pure point group operations),
 and found     8 'primitive' translations

 
 
 KPOINTS: Automatic mesh                          

Automatic generation of k-mesh.
Space group operators:
 irot       det(A)        alpha          n_x          n_y          n_z        tau_x        tau_y        tau_z
    1     1.000000     0.000000     1.000000     0.000000     0.000000     0.000000     0.000000     0.000000
    2     1.000000   180.000000     0.000000     1.000000     0.000000    -0.250000    -0.000000    -0.250000
 
 Subroutine IBZKPT returns following result:
 ===========================================
 
 Found      8 irreducible k-points:
 
 Following reciprocal coordinates:
            Coordinates               Weight
  0.000000  0.000000  0.000000      1.000000
  0.500000  0.000000 -0.000000      1.000000
  0.000000  0.500000  0.000000      1.000000
  0.500000  0.500000 -0.000000      1.000000
 -0.000000  0.000000  0.500000      1.000000
  0.500000  0.000000  0.500000      1.000000
 -0.000000  0.500000  0.500000      1.000000
  0.500000  0.500000  0.500000      1.000000
 
 Following cartesian coordinates:
            Coordinates               Weight
  0.000000  0.000000  0.000000      1.000000
  0.047742  0.000000 -0.002335      1.000000
  0.000000  0.047484  0.000000      1.000000
  0.047742  0.047484 -0.002335      1.000000
 -0.002359  0.000000  0.048224      1.000000
  0.045384  0.000000  0.045889      1.000000
 -0.002359  0.047484  0.048224      1.000000
  0.045384  0.047484  0.045889      1.000000
 
 TETIRR: Found     24 inequivalent tetrahedra from       48
 
 Subroutine IBZKPT_HF returns following result:
 ==============================================
 
 Found      8 k-points in 1st BZ
 the following      8 k-points will be used (e.g. in the exchange kernel)
 Following reciprocal coordinates:   # in IRBZ
  0.000000  0.000000  0.000000    0.12500000   1 t-inv F
  0.500000  0.000000 -0.000000    0.12500000   2 t-inv F
  0.000000  0.500000  0.000000    0.12500000   3 t-inv F
  0.500000  0.500000 -0.000000    0.12500000   4 t-inv F
 -0.000000  0.000000  0.500000    0.12500000   5 t-inv F
  0.500000  0.000000  0.500000    0.12500000   6 t-inv F
 -0.000000  0.500000  0.500000    0.12500000   7 t-inv F
  0.500000  0.500000  0.500000    0.12500000   8 t-inv F


--------------------------------------------------------------------------------------------------------




 Dimension of arrays:
   k-points           NKPTS =      8   k-points in BZ     NKDIM =      8   number of bands    NBANDS=    512
   number of dos      NEDOS =    301   number of ions     NIONS =     64
   non local maximal  LDIM  =      6   non local SUM 2l+1 LMDIM =     18
   total plane-waves  NPLWV = 829440
   max r-space proj   IRMAX =      1   max aug-charges    IRDMAX=  22996
   dimension x,y,z NGX =    96 NGY =   96 NGZ =   90
   dimension x,y,z NGXF=   192 NGYF=  192 NGZF=  180
   support grid    NGXF=   192 NGYF=  192 NGZF=  180
   ions per type =              32  16  16
   NGX,Y,Z   is equivalent  to a cutoff of  15.18, 15.16, 14.38 a.u.
   NGXF,Y,Z  is equivalent  to a cutoff of  30.37, 30.31, 28.76 a.u.

 SYSTEM =  CuFeS2                                  
 POSCAR =  Fe16 Cu16 S32                           

 Startparameter for this run:
   NWRITE =      2    write-flag & timer
   PREC   = accura    normal or accurate (medium, high low for compatibility)
   ISTART =      0    job   : 0-new  1-cont  2-samecut
   ICHARG =      1    charge: 1-file 2-atom 10-const
   ISPIN  =      2    spin polarized calculation?
   LNONCOLLINEAR =      F non collinear calculations
   LSORBIT =      F    spin-orbit coupling
   INIWAV =      1    electr: 0-lowe 1-rand  2-diag
   LASPH  =      F    aspherical Exc in radial PAW
   METAGGA=      F    non-selfconsistent MetaGGA calc.

 Electronic Relaxation 1
   ENCUT  =  700.0 eV  51.45 Ry    7.17 a.u.  22.67 22.72 22.45*2*pi/ulx,y,z
   ENINI  =  700.0     initial cutoff
   ENAUG  =  758.2 eV  augmentation charge cutoff
   NELM   =    500;   NELMIN=  2; NELMDL= -5     # of ELM steps 
   EDIFF  = 0.1E-07   stopping-criterion for ELM
   LREAL  =      F    real-space projection
   NLSPLINE    = F    spline interpolate recip. space projectors
   LCOMPAT=      F    compatible to vasp.4.4
   GGA_COMPAT  = T    GGA compatible to vasp.4.4-vasp.4.6
   LMAXPAW     = -100 max onsite density
   LMAXMIX     =    4 max onsite mixed and CHGCAR
   VOSKOWN=      0    Vosko Wilk Nusair interpolation
   ROPT   =    0.00000   0.00000   0.00000
 Ionic relaxation
   EDIFFG = -.1E-04   stopping-criterion for IOM
   NSW    =      0    number of steps for IOM
   NBLOCK =      1;   KBLOCK =      1    inner block; outer block 
   IBRION =     -1    ionic relax: 0-MD 1-quasi-New 2-CG
   NFREE  =      0    steps in history (QN), initial steepest desc. (CG)
   ISIF   =      2    stress and relaxation
   IWAVPR =     10    prediction:  0-non 1-charg 2-wave 3-comb
   ISYM   =      2    0-nonsym 1-usesym 2-fastsym
   LCORR  =      T    Harris-Foulkes like correction to forces

   POTIM  = 0.5000    time-step for ionic-motion
   TEIN   =    0.0    initial temperature
   TEBEG  =    0.0;   TEEND  =   0.0 temperature during run
   SMASS  =  -3.00    Nose mass-parameter (am)
   estimated Nose-frequenzy (Omega)   =  0.10E-29 period in steps =****** mass=  -0.252E-26a.u.
   SCALEE = 1.0000    scale energy and forces
   NPACO  =    256;   APACO  = 16.0  distance and # of slots for P.C.
   PSTRESS=    0.0 pullay stress

  Mass of Ions in am
   POMASS =  32.07 63.55 55.85
  Ionic Valenz
   ZVAL   =   6.00 17.00 14.00
  Atomic Wigner-Seitz radii
   RWIGS  =  -1.00 -1.00 -1.00
  virtual crystal weights 
   VCA    =   1.00  1.00  1.00
   NELECT =     688.0000    total number of electrons
   NUPDOWN=      -1.0000    fix difference up-down

 DOS related values:
   EMIN   =  10.00;   EMAX   =-10.00  energy-range for DOS
   EFERMI =   0.00
   ISMEAR =    -5;   SIGMA  =   0.03  broadening in eV -4-tet -1-fermi 0-gaus

 Electronic relaxation 2 (details)
   IALGO  =     38    algorithm
   LDIAG  =      T    sub-space diagonalisation (order eigenvalues)
   LSUBROT=      F    optimize rotation matrix (better conditioning)
   TURBO    =      0    0=normal 1=particle mesh
   IRESTART =      0    0=no restart 2=restart with 2 vectors
   NREBOOT  =      0    no. of reboots
   NMIN     =      0    reboot dimension
   EREF     =   0.00    reference energy to select bands
   IMIX   =      4    mixing-type and parameters
     AMIX     =   0.40;   BMIX     =  1.00
     AMIX_MAG =   1.60;   BMIX_MAG =  1.00
     AMIN     =   0.10
     WC   =   100.;   INIMIX=   1;  MIXPRE=   1;  MAXMIX= -45

 Intra band minimization:
   WEIMIN = 0.0000     energy-eigenvalue tresh-hold
   EBREAK =  0.49E-11  absolut break condition
   DEPER  =   0.30     relativ break condition  

   TIME   =   0.40     timestep for ELM

  volume/ion in A,a.u.               =      17.91       120.85
  Fermi-wavevector in a.u.,A,eV,Ry     =   1.380995  2.609702 25.948301  1.907146
  Thomas-Fermi vector in A             =   2.505820
 
 Write flags
   LWAVE        =      T    write WAVECAR
   LDOWNSAMPLE  =      F    k-point downsampling of WAVECAR
   LCHARG       =      T    write CHGCAR
   LVTOT        =      F    write LOCPOT, total local potential
   LVHAR        =      F    write LOCPOT, Hartree potential only
   LELF         =      F    write electronic localiz. function (ELF)
   LORBIT       =     11    0 simple, 1 ext, 2 COOP (PROOUT), +10 PAW based schemes


 Dipole corrections
   LMONO  =      F    monopole corrections only (constant potential shift)
   LDIPOL =      F    correct potential (dipole corrections)
   IDIPOL =      0    1-x, 2-y, 3-z, 4-all directions 
   EPSILON=  1.0000000 bulk dielectric constant

 LDA+U is selected, type is set to LDAUTYPE =  2
   angular momentum for each species LDAUL =     2    2    2
   U (eV)           for each species LDAUU =   0.0  0.1  4.7
   J (eV)           for each species LDAUJ =   0.0  0.0  0.0
 Exchange correlation treatment:
   GGA     =    PS    GGA type
   LEXCH   =    14    internal setting for exchange type
   VOSKOWN=      0    Vosko Wilk Nusair interpolation
   LHFCALC =     F    Hartree Fock is set to
   LHFONE  =     F    Hartree Fock one center treatment
   AEXX    =    0.0000 exact exchange contribution

 Linear response parameters
   LEPSILON=     F    determine dielectric tensor
   LRPA    =     F    only Hartree local field effects (RPA)
   LNABLA  =     F    use nabla operator in PAW spheres
   LVEL    =     F    velocity operator in full k-point grid
   LINTERFAST=   F  fast interpolation
   KINTER  =     0    interpolate to denser k-point grid
   CSHIFT  =0.1000    complex shift for real part using Kramers Kronig
   OMEGAMAX=  -1.0    maximum frequency
   DEG_THRESHOLD= 0.2000000E-02 threshold for treating states as degnerate
   RTIME   =   -0.100 relaxation time in fs
  (WPLASMAI=    0.000 imaginary part of plasma frequency in eV, 0.658/RTIME)
   DFIELD  = 0.0000000 0.0000000 0.0000000 field for delta impulse in time
 
 Orbital magnetization related:
   ORBITALMAG=     F  switch on orbital magnetization
   LCHIMAG   =     F  perturbation theory with respect to B field
   DQ        =  0.001000  dq finite difference perturbation B field
   LLRAUG    =     F  two centre corrections for induced B field

 PEAD related settings:
   LPEAD      =     T    switch on PEAD
   IPEAD      =     4    finite difference order for dpsi/dk
   LCALCPOL   =     T    calculate macroscopic polarization
   LCALCEPS   =     F    calculate dielectric tensor
   EFIELD_PEAD=    0.0000    0.0000    0.0000
   SKIP_EDOTP =     F
   LRPA       =     F
   SKIP_SCF   =     F


--------------------------------------------------------------------------------------------------------


 Static calculation
 charge density and potential will be updated during run
 spin polarized calculation
 Variant of blocked Davidson
 Davidson routine will perform the subspace rotation
 perform sub-space diagonalisation
    after iterative eigenvector-optimisation
 modified Broyden-mixing scheme, WC =      100.0
 initial mixing is a Kerker type mixing with AMIX =  0.4000 and BMIX =      1.0000
 Hartree-type preconditioning will be used
 using additional bands          168
 reciprocal scheme for non local part
 use partial core corrections
 calculate Harris-corrections to forces 
   (improved forces if not selfconsistent)
 use gradient corrections 
 use of overlap-Matrix (Vanderbilt PP)
 Fermi weights with tetrahedron method with Bloechl corrections


--------------------------------------------------------------------------------------------------------


  energy-cutoff  :      700.00
  volume of cell :     1146.14
      direct lattice vectors                 reciprocal lattice vectors
    10.498000000  0.000000000  0.513488000     0.095484684  0.000000000 -0.004670436
     0.000000000 10.529932000  0.000000000     0.000000000  0.094967375  0.000000000
     0.508357000  0.000000000 10.393099000    -0.004717576  0.000000000  0.096448443

  length of vectors
    10.510550601 10.529932000 10.405524190     0.095598838  0.094967375  0.096563749


 
 k-points in units of 2pi/SCALE and weight: Automatic mesh                          
   0.00000000  0.00000000  0.00000000       0.125
   0.04774234  0.00000000 -0.00233522       0.125
   0.00000000  0.04748369  0.00000000       0.125
   0.04774234  0.04748369 -0.00233522       0.125
  -0.00235879  0.00000000  0.04822422       0.125
   0.04538355  0.00000000  0.04588900       0.125
  -0.00235879  0.04748369  0.04822422       0.125
   0.04538355  0.04748369  0.04588900       0.125
 
 k-points in reciprocal lattice and weights: Automatic mesh                          
   0.00000000  0.00000000  0.00000000       0.125
   0.50000000  0.00000000 -0.00000000       0.125
   0.00000000  0.50000000  0.00000000       0.125
   0.50000000  0.50000000 -0.00000000       0.125
  -0.00000000  0.00000000  0.50000000       0.125
   0.50000000  0.00000000  0.50000000       0.125
  -0.00000000  0.50000000  0.50000000       0.125
   0.50000000  0.50000000  0.50000000       0.125
 
 position of ions in fractional coordinates (direct lattice) 
   0.12648300  0.11865900  0.12592300
   0.62648300  0.11865900  0.12592300
   0.12648300  0.61865900  0.12592300
   0.62648300  0.61865900  0.12592300
   0.37351700  0.36865900  0.12407700
   0.87351700  0.36865900  0.12407700
   0.37351700  0.86865900  0.12407700
   0.87351700  0.86865900  0.12407700
   0.12500000  0.37042500  0.87500000
   0.62500000  0.37042500  0.87500000
   0.12500000  0.87042500  0.87500000
   0.62500000  0.87042500  0.87500000
   0.37500000  0.12189500  0.87500000
   0.87500000  0.12189500  0.87500000
   0.37500000  0.62189500  0.87500000
   0.87500000  0.62189500  0.87500000
   0.12351700  0.11865900  0.62407700
   0.62351700  0.11865900  0.62407700
   0.12351700  0.61865900  0.62407700
   0.62351700  0.61865900  0.62407700
   0.37648300  0.36865900  0.62592300
   0.87648300  0.36865900  0.62592300
   0.37648300  0.86865900  0.62592300
   0.87648300  0.86865900  0.62592300
   0.37500000  0.12042500  0.37500000
   0.87500000  0.12042500  0.37500000
   0.37500000  0.62042500  0.37500000
   0.87500000  0.62042500  0.37500000
   0.12500000  0.37189500  0.37500000
   0.62500000  0.37189500  0.37500000
   0.12500000  0.87189500  0.37500000
   0.62500000  0.87189500  0.37500000
   0.99755600  0.00514400  0.50002200
   0.49755600  0.00514400  0.50002200
   0.99755600  0.50514400  0.50002200
   0.49755600  0.50514400  0.50002200
   0.25244400  0.00514400  0.24997800
   0.75244400  0.00514400  0.24997800
   0.25244400  0.50514400  0.24997800
   0.75244400  0.50514400  0.24997800
   0.24755600  0.25514400  0.00002200
   0.74755600  0.25514400  0.00002200
   0.24755600  0.75514400  0.00002200
   0.74755600  0.75514400  0.00002200
   0.00244400  0.25514400  0.74997800
   0.50244400  0.25514400  0.74997800
   0.00244400  0.75514400  0.74997800
   0.50244400  0.75514400  0.74997800
   0.99853500  0.00503800  0.00090300
   0.49853500  0.00503800  0.00090300
   0.99853500  0.50503800  0.00090300
   0.49853500  0.50503800  0.00090300
   0.25146500  0.00503800  0.74909700
   0.75146500  0.00503800  0.74909700
   0.25146500  0.50503800  0.74909700
   0.75146500  0.50503800  0.74909700
   0.24853500  0.25503800  0.50090300
   0.74853500  0.25503800  0.50090300
   0.24853500  0.75503800  0.50090300
   0.74853500  0.75503800  0.50090300
   0.00146500  0.25503800  0.24909700
   0.50146500  0.25503800  0.24909700
   0.00146500  0.75503800  0.24909700
   0.50146500  0.75503800  0.24909700
 
 position of ions in cartesian coordinates  (Angst):
   1.39183237  1.24947120  1.37367771
   6.64083237  1.24947120  1.63042171
   1.39183237  6.51443720  1.37367771
   6.64083237  6.51443720  1.63042171
   3.98425688  3.88195420  1.48134104
   9.23325688  3.88195420  1.73808504
   3.98425688  9.14692020  1.48134104
   9.23325688  9.14692020  1.73808504
   1.75706237  3.90055006  9.15814762
   7.00606237  3.90055006  9.41489162
   1.75706237  9.16551606  9.15814762
   7.00606237  9.16551606  9.41489162
   4.38156237  1.28354606  9.28651962
   9.63056237  1.28354606  9.54326362
   4.38156237  6.54851206  9.28651962
   9.63056237  6.54851206  9.54326362
   1.61393538  1.24947120  6.54951854
   6.86293538  1.24947120  6.80626254
   1.61393538  6.51443720  6.54951854
   6.86293538  6.51443720  6.80626254
   4.27051087  3.88195420  6.69859921
   9.51951087  3.88195420  6.95534321
   4.27051087  9.14692020  6.69859921
   9.51951087  9.14692020  6.95534321
   4.12738387  1.26806706  4.08997012
   9.37638387  1.26806706  4.34671413
   4.12738387  6.53303306  4.08997012
   9.37638387  6.53303306  4.34671413
   1.50288387  3.91602906  3.96159812
   6.75188387  3.91602906  4.21834212
   1.50288387  9.18099506  3.96159812
   6.75188387  9.18099506  4.21834212
  10.72653257  0.05416597  5.70901118
   5.47753257  0.05416597  5.45226718
  10.72653257  5.31913197  5.70901118
   5.47753257  5.31913197  5.45226718
   2.77723518  0.05416597  2.72767307
   8.02623518  0.05416597  2.98441707
   2.77723518  5.31913197  2.72767307
   8.02623518  5.31913197  2.98441707
   2.59885407  2.68664897  0.12734568
   7.84785407  2.68664897  0.38408968
   2.59885407  7.95161497  0.12734568
   7.84785407  7.95161497  0.38408968
   0.40691368  2.68664897  7.79585057
   5.65591368  2.68664897  8.05259457
   0.40691368  7.95161497  7.79585057
   5.65591368  7.95161497  8.05259457
  10.48307948  0.05304980  0.52212071
   5.23407948  0.05304980  0.26537671
  10.48307948  5.31801580  0.52212071
   5.23407948  5.31801580  0.26537671
   3.02068827  0.05304980  7.91456354
   8.26968827  0.05304980  8.17130754
   3.02068827  5.31801580  7.91456354
   8.26968827  5.31801580  8.17130754
   2.86375798  2.68553280  5.33355421
   8.11275798  2.68553280  5.59029821
   2.86375798  7.95049880  5.33355421
   8.11275798  7.95049880  5.59029821
   0.14200977  2.68553280  2.58964204
   5.39100977  2.68553280  2.84638604
   0.14200977  7.95049880  2.58964204
   5.39100977  7.95049880  2.84638604
 


--------------------------------------------------------------------------------------------------------


 k-point  1 :   0.0000 0.0000 0.0000  plane waves:   48235
 k-point  2 :   0.5000 0.0000-0.0000  plane waves:   48224
 k-point  3 :   0.0000 0.5000 0.0000  plane waves:   48282
 k-point  4 :   0.5000 0.5000-0.0000  plane waves:   48228
 k-point  5 :  -0.0000 0.0000 0.5000  plane waves:   48170
 k-point  6 :   0.5000 0.0000 0.5000  plane waves:   48262
 k-point  7 :  -0.0000 0.5000 0.5000  plane waves:   48160
 k-point  8 :   0.5000 0.5000 0.5000  plane waves:   48168

 maximum and minimum number of plane-waves per node :     48282    48160

 maximum number of plane-waves:     48282
 maximum index in each direction: 
   IXMAX=   22   IYMAX=   22   IZMAX=   22
   IXMIN=  -23   IYMIN=  -23   IZMIN=  -22


 serial   3D FFT for wavefunctions
 parallel 3D FFT for charge:
    minimum data exchange during FFTs selected (reduces bandwidth)


 total amount of memory used by VASP MPI-rank0   348353. kBytes
=======================================================================

   base      :      30000. kBytes
   nonl-proj :     216760. kBytes
   fftplans  :       4588. kBytes
   grid      :      69719. kBytes
   one-center:       1990. kBytes
   wavefun   :      25296. kBytes
 
     INWAV:  cpu time    0.0001: real time    0.0004
 Broyden mixing: mesh for mixing (old mesh)
   NGX = 45   NGY = 45   NGZ = 45
  (NGX  =192   NGY  =192   NGZ  =180)
  gives a total of  91125 points

 initial charge density was supplied:
 number of electron     687.9999838 magnetization      -0.0000000
 keeping initial charge density in first step


--------------------------------------------------------------------------------------------------------


 Maximum index for augmentation-charges          898 (set IRDMAX)


--------------------------------------------------------------------------------------------------------


 First call to EWALD:  gamma=   0.169
 Maximum number of real-space cells 3x 3x 3
 Maximum number of reciprocal cells 3x 3x 3

    FEWALD:  cpu time    0.0027: real time    0.0030


--------------------------------------- Iteration      1(   1)  ---------------------------------------


    POTLOK:  cpu time    0.3875: real time    0.4160
    SETDIJ:  cpu time    0.0150: real time    0.0152
     EDDAV:  cpu time   84.4964: real time   85.1812
 BZINTS: Fermi energy: 14.890816;688.000000 electrons
         Band energy:***********;  BLOECHL correction: -0.014120
       DOS:  cpu time    0.0381: real time    0.0383
    --------------------------------------------
      LOOP:  cpu time   84.9371: real time   85.6508

 eigenvalue-minimisations  : 16384
 total energy-change (2. order) : 0.6045426E+04  (-0.5168486E+05)
 number of electron     687.9999838 magnetization      -0.0000000
 augmentation part      687.9999838 magnetization      -0.0000000

 Free energy of the ion-electron system (eV)
  ---------------------------------------------------
  alpha Z        PSCENC =      2365.46604464
  Ewald energy   TEWEN  =    -62588.20786318
  -Hartree energ DENC   =    -42782.98454237
  -exchange      EXHF   =         0.00000000
  -V(xc)+E(xc)   XCENC  =      3283.06258381
  PAW double counting   =    112095.85910443  -115786.62766005
  entropy T*S    EENTRO =         0.00000000
  eigenvalues    EBANDS =     -4561.20655950
  atomic energy  EATOM  =    114020.06510763
  Solvation  Ediel_sol  =         0.00000000
  ---------------------------------------------------
  free energy    TOTEN  =      6045.42621540 eV

  energy without entropy =     6045.42621540  energy(sigma->0) =     6045.42621540


--------------------------------------------------------------------------------------------------------




--------------------------------------- Iteration      1(   2)  ---------------------------------------


     EDDAV:  cpu time  104.9013: real time  105.6772
 BZINTS: Fermi energy:  5.496095;688.000000 electrons
         Band energy:***********;  BLOECHL correction: -0.001283
       DOS:  cpu time    0.0280: real time    0.0281
    --------------------------------------------
      LOOP:  cpu time  104.9293: real time  105.7053

 eigenvalue-minimisations  : 18688
 total energy-change (2. order) :-0.6136232E+04  (-0.6026896E+04)
 number of electron     687.9999838 magnetization      -0.0000000
 augmentation part      687.9999838 magnetization      -0.0000000

 Free energy of the ion-electron system (eV)
  ---------------------------------------------------
  alpha Z        PSCENC =      2365.46604464
  Ewald energy   TEWEN  =    -62588.20786318
  -Hartree energ DENC   =    -42782.98454237
  -exchange      EXHF   =         0.00000000
  -V(xc)+E(xc)   XCENC  =      3283.06258381
  PAW double counting   =    112095.85910443  -115786.62766005
  entropy T*S    EENTRO =         0.00000000
  eigenvalues    EBANDS =    -10697.43820044
  atomic energy  EATOM  =    114020.06510763
  Solvation  Ediel_sol  =         0.00000000
  ---------------------------------------------------
  free energy    TOTEN  =       -90.80542554 eV

  energy without entropy =      -90.80542554  energy(sigma->0) =      -90.80542554


--------------------------------------------------------------------------------------------------------




--------------------------------------- Iteration      1(   3)  ---------------------------------------


     EDDAV:  cpu time  139.1120: real time  140.0803
 BZINTS: Fermi energy:  5.083856;688.000000 electrons
         Band energy:***********;  BLOECHL correction:  0.000000
       DOS:  cpu time    0.0062: real time    0.0062
    --------------------------------------------
      LOOP:  cpu time  139.1182: real time  140.0865

 eigenvalue-minimisations  : 21248
 total energy-change (2. order) :-0.2409459E+03  (-0.2402119E+03)
 number of electron     687.9999838 magnetization      -0.0000000
 augmentation part      687.9999838 magnetization      -0.0000000

 Free energy of the ion-electron system (eV)
  ---------------------------------------------------
  alpha Z        PSCENC =      2365.46604464
  Ewald energy   TEWEN  =    -62588.20786318
  -Hartree energ DENC   =    -42782.98454237
  -exchange      EXHF   =         0.00000000
  -V(xc)+E(xc)   XCENC  =      3283.06258381
  PAW double counting   =    112095.85910443  -115786.62766005
  entropy T*S    EENTRO =         0.00000000
  eigenvalues    EBANDS =    -10938.38414500
  atomic energy  EATOM  =    114020.06510763
  Solvation  Ediel_sol  =         0.00000000
  ---------------------------------------------------
  free energy    TOTEN  =      -331.75137010 eV

  energy without entropy =     -331.75137010  energy(sigma->0) =     -331.75137010


--------------------------------------------------------------------------------------------------------




--------------------------------------- Iteration      1(   4)  ---------------------------------------


     EDDAV:  cpu time  140.1126: real time  141.0887
 BZINTS: Fermi energy:  4.951978;688.000000 electrons
         Band energy:***********;  BLOECHL correction:  0.000000
       DOS:  cpu time    0.0061: real time    0.0061
    --------------------------------------------
      LOOP:  cpu time  140.1187: real time  141.0948

 eigenvalue-minimisations  : 20992
 total energy-change (2. order) :-0.3427106E+01  (-0.3426888E+01)
 number of electron     687.9999838 magnetization      -0.0000000
 augmentation part      687.9999838 magnetization      -0.0000000

 Free energy of the ion-electron system (eV)
  ---------------------------------------------------
  alpha Z        PSCENC =      2365.46604464
  Ewald energy   TEWEN  =    -62588.20786318
  -Hartree energ DENC   =    -42782.98454237
  -exchange      EXHF   =         0.00000000
  -V(xc)+E(xc)   XCENC  =      3283.06258381
  PAW double counting   =    112095.85910443  -115786.62766005
  entropy T*S    EENTRO =         0.00000000
  eigenvalues    EBANDS =    -10941.81125121
  atomic energy  EATOM  =    114020.06510763
  Solvation  Ediel_sol  =         0.00000000
  ---------------------------------------------------
  free energy    TOTEN  =      -335.17847631 eV

  energy without entropy =     -335.17847631  energy(sigma->0) =     -335.17847631


--------------------------------------------------------------------------------------------------------




--------------------------------------- Iteration      1(   5)  ---------------------------------------


     EDDAV:  cpu time  130.3553: real time  131.2675
 BZINTS: Fermi energy:  4.915975;688.000000 electrons
         Band energy:***********;  BLOECHL correction:  0.000000
       DOS:  cpu time    0.0060: real time    0.0060
    CHARGE:  cpu time    1.4108: real time    1.4192
    MIXING:  cpu time    0.0061: real time    0.0062
    --------------------------------------------
      LOOP:  cpu time  131.7782: real time  132.6989

 eigenvalue-minimisations  : 20224
 total energy-change (2. order) :-0.1040181E+00  (-0.1040177E+00)
 number of electron     688.0000076 magnetization      -0.0000000
 augmentation part      283.6708490 magnetization      -0.0000000

 Broyden mixing:
  rms(total) = 0.22055E+01    rms(broyden)= 0.22053E+01
  rms(prec ) = 0.24755E+01
  weight for this iteration     100.00

 Free energy of the ion-electron system (eV)
  ---------------------------------------------------
  alpha Z        PSCENC =      2365.46604464
  Ewald energy   TEWEN  =    -62588.20786318
  -Hartree energ DENC   =    -42782.98454237
  -exchange      EXHF   =         0.00000000
  -V(xc)+E(xc)   XCENC  =      3283.06258381
  PAW double counting   =    112095.85910443  -115786.62766005
  entropy T*S    EENTRO =         0.00000000
  eigenvalues    EBANDS =    -10941.91526928
  atomic energy  EATOM  =    114020.06510763
  Solvation  Ediel_sol  =         0.00000000
  ---------------------------------------------------
  free energy    TOTEN  =      -335.28249438 eV

  energy without entropy =     -335.28249438  energy(sigma->0) =     -335.28249438


--------------------------------------------------------------------------------------------------------




--------------------------------------- Iteration      1(   6)  ---------------------------------------


    POTLOK:  cpu time    0.1449: real time    0.1461
    SETDIJ:  cpu time    0.0131: real time    0.0132
     EDDAV:  cpu time  193.2790: real time  194.5545
 BZINTS: Fermi energy:  5.060810;688.000000 electrons
         Band energy:***********;  BLOECHL correction:  0.000000
       DOS:  cpu time    0.0052: real time    0.0052
    CHARGE:  cpu time    1.4192: real time    1.4288
    MIXING:  cpu time    0.0025: real time    0.0201
    --------------------------------------------
      LOOP:  cpu time  194.8639: real time  196.1679

 eigenvalue-minimisations  : 27136
 total energy-change (2. order) : 0.6127070E+01  (-0.7379880E+00)
 number of electron     688.0000075 magnetization      -0.0000000
 augmentation part      281.2791046 magnetization      -0.0000000

 Broyden mixing:
  rms(total) = 0.12265E+01    rms(broyden)= 0.12265E+01
  rms(prec ) = 0.13699E+01
  weight for this iteration     100.00

 eigenvalues of (default mixing * dielectric matrix)
  average eigenvalue GAMMA=   0.8126
  0.8126

 Free energy of the ion-electron system (eV)
  ---------------------------------------------------
  alpha Z        PSCENC =      2365.46604464
  Ewald energy   TEWEN  =    -62588.20786318
  -Hartree energ DENC   =    -42928.51743800
  -exchange      EXHF   =         0.00000000
  -V(xc)+E(xc)   XCENC  =      3287.47359686
  PAW double counting   =    112894.78954044  -116602.76847609
  entropy T*S    EENTRO =         0.00000000
  eigenvalues    EBANDS =    -10777.45593683
  atomic energy  EATOM  =    114020.06510763
  Solvation  Ediel_sol  =         0.00000000
  ---------------------------------------------------
  free energy    TOTEN  =      -329.15542454 eV

  energy without entropy =     -329.15542454  energy(sigma->0) =     -329.15542454


--------------------------------------------------------------------------------------------------------




--------------------------------------- Iteration      1(   7)  ---------------------------------------


    POTLOK:  cpu time    0.1480: real time    0.1491
    SETDIJ:  cpu time    0.0136: real time    0.0137
     EDDAV:  cpu time  144.8977: real time  145.8896
 BZINTS: Fermi energy:  4.926745;688.000000 electrons
         Band energy:***********;  BLOECHL correction:  0.000000
       DOS:  cpu time    0.0059: real time    0.0059
    CHARGE:  cpu time    1.3989: real time    1.4075
    MIXING:  cpu time    0.0016: real time    0.0029
    --------------------------------------------
      LOOP:  cpu time  146.4657: real time  147.4686

 eigenvalue-minimisations  : 22272
 total energy-change (2. order) : 0.1583011E+01  (-0.5773464E+00)
 number of electron     688.0000075 magnetization      -0.0000000
 augmentation part      282.8997691 magnetization      -0.0000000

 Broyden mixing:
  rms(total) = 0.83825E+00    rms(broyden)= 0.83824E+00
  rms(prec ) = 0.92429E+00
  weight for this iteration     100.00

 eigenvalues of (default mixing * dielectric matrix)
  average eigenvalue GAMMA=   1.0304
  1.5012  0.5596

 Free energy of the ion-electron system (eV)
  ---------------------------------------------------
  alpha Z        PSCENC =      2365.46604464
  Ewald energy   TEWEN  =    -62588.20786318
  -Hartree energ DENC   =    -42821.00977259
  -exchange      EXHF   =         0.00000000
  -V(xc)+E(xc)   XCENC  =      3284.92952881
  PAW double counting   =    112593.68984313  -116279.64982850
  entropy T*S    EENTRO =         0.00000000
  eigenvalues    EBANDS =    -10902.85547328
  atomic energy  EATOM  =    114020.06510763
  Solvation  Ediel_sol  =         0.00000000
  ---------------------------------------------------
  free energy    TOTEN  =      -327.57241334 eV

  energy without entropy =     -327.57241334  energy(sigma->0) =     -327.57241334


--------------------------------------------------------------------------------------------------------




--------------------------------------- Iteration      1(   8)  ---------------------------------------


    POTLOK:  cpu time    0.1434: real time    0.1474
    SETDIJ:  cpu time    0.0132: real time    0.0133
     EDDAV:  cpu time  175.7744: real time  176.9397
 BZINTS: Fermi energy:  5.065359;688.000000 electrons
         Band energy:***********;  BLOECHL correction:  0.000000
       DOS:  cpu time    0.0051: real time    0.0051
    CHARGE:  cpu time    1.3999: real time    1.4089
    MIXING:  cpu time    0.0021: real time    0.0403
    --------------------------------------------
      LOOP:  cpu time  177.3381: real time  178.5547

 eigenvalue-minimisations  : 24320
 total energy-change (2. order) : 0.2965885E+00  (-0.5860649E+00)
 number of electron     688.0000075 magnetization      -0.0000000
 augmentation part      282.6464019 magnetization      -0.0000000

 Broyden mixing:
  rms(total) = 0.70680E+00    rms(broyden)= 0.70678E+00
  rms(prec ) = 0.83664E+00
  weight for this iteration     100.00

 eigenvalues of (default mixing * dielectric matrix)
  average eigenvalue GAMMA=   0.8564
  1.6151  0.4770  0.4770

 Free energy of the ion-electron system (eV)
  ---------------------------------------------------
  alpha Z        PSCENC =      2365.46604464
  Ewald energy   TEWEN  =    -62588.20786318
  -Hartree energ DENC   =    -42877.44106487
  -exchange      EXHF   =         0.00000000
  -V(xc)+E(xc)   XCENC  =      3287.21566983
  PAW double counting   =    112477.12969992  -116169.24465080
  entropy T*S    EENTRO =         0.00000000
  eigenvalues    EBANDS =    -10842.25876801
  atomic energy  EATOM  =    114020.06510763
  Solvation  Ediel_sol  =         0.00000000
  ---------------------------------------------------
  free energy    TOTEN  =      -327.27582484 eV

  energy without entropy =     -327.27582484  energy(sigma->0) =     -327.27582484


--------------------------------------------------------------------------------------------------------




--------------------------------------- Iteration      1(   9)  ---------------------------------------


    POTLOK:  cpu time    0.1456: real time    0.1467
    SETDIJ:  cpu time    0.0132: real time    0.0133
     EDDAV:  cpu time  139.3719: real time  140.3425
 BZINTS: Fermi energy:  4.961560;688.000000 electrons
         Band energy:***********;  BLOECHL correction:  0.000000
       DOS:  cpu time    0.0059: real time    0.0060
    CHARGE:  cpu time    1.3992: real time    1.4074
    MIXING:  cpu time    0.0019: real time    0.0019
    --------------------------------------------
      LOOP:  cpu time  140.9377: real time  141.9178

 eigenvalue-minimisations  : 21504
 total energy-change (2. order) : 0.1912183E+00  (-0.2383027E+00)
 number of electron     688.0000075 magnetization      -0.0000000
 augmentation part      282.3564158 magnetization      -0.0000000

 Broyden mixing:
  rms(total) = 0.27201E+00    rms(broyden)= 0.27200E+00
  rms(prec ) = 0.28108E+00
  weight for this iteration     100.00

 eigenvalues of (default mixing * dielectric matrix)
  average eigenvalue GAMMA=   0.8660
  1.9292  0.7133  0.4323  0.3892

 Free energy of the ion-electron system (eV)
  ---------------------------------------------------
  alpha Z        PSCENC =      2365.46604464
  Ewald energy   TEWEN  =    -62588.20786318
  -Hartree energ DENC   =    -42873.66673396
  -exchange      EXHF   =         0.00000000
  -V(xc)+E(xc)   XCENC  =      3286.43060876
  PAW double counting   =    112451.23763823  -116144.48720345
  entropy T*S    EENTRO =         0.00000000
  eigenvalues    EBANDS =    -10843.92220520
  atomic energy  EATOM  =    114020.06510763
  Solvation  Ediel_sol  =         0.00000000
  ---------------------------------------------------
  free energy    TOTEN  =      -327.08460653 eV

  energy without entropy =     -327.08460653  energy(sigma->0) =     -327.08460653


--------------------------------------------------------------------------------------------------------




--------------------------------------- Iteration      1(  10)  ---------------------------------------


    POTLOK:  cpu time    0.1455: real time    0.1466
    SETDIJ:  cpu time    0.0132: real time    0.0133
     EDDAV:  cpu time  180.2705: real time  181.4713
 BZINTS: Fermi energy:  4.968407;688.000000 electrons
         Band energy:***********;  BLOECHL correction:  0.000000
       DOS:  cpu time    0.0059: real time    0.0060
    CHARGE:  cpu time    1.3988: real time    1.4078
    MIXING:  cpu time    0.0016: real time    0.0016
    --------------------------------------------
      LOOP:  cpu time  181.8356: real time  183.0465

 eigenvalue-minimisations  : 25344
 total energy-change (2. order) :-0.2289601E-02  (-0.1111559E-01)
 number of electron     688.0000075 magnetization      -0.0000000
 augmentation part      282.1619105 magnetization      -0.0000000

 Broyden mixing:
  rms(total) = 0.13503E+00    rms(broyden)= 0.13503E+00
  rms(prec ) = 0.13973E+00
  weight for this iteration     100.00

 eigenvalues of (default mixing * dielectric matrix)
  average eigenvalue GAMMA=   0.9604
  1.7913  1.5019  0.6361  0.5395  0.3332

 Free energy of the ion-electron system (eV)
  ---------------------------------------------------
  alpha Z        PSCENC =      2365.46604464
  Ewald energy   TEWEN  =    -62588.20786318
  -Hartree energ DENC   =    -42885.27805595
  -exchange      EXHF   =         0.00000000
  -V(xc)+E(xc)   XCENC  =      3286.72138411
  PAW double counting   =    112413.81274173  -116107.67780884
  entropy T*S    EENTRO =         0.00000000
  eigenvalues    EBANDS =    -10831.98844627
  atomic energy  EATOM  =    114020.06510763
  Solvation  Ediel_sol  =         0.00000000
  ---------------------------------------------------
  free energy    TOTEN  =      -327.08689614 eV

  energy without entropy =     -327.08689614  energy(sigma->0) =     -327.08689614


--------------------------------------------------------------------------------------------------------




--------------------------------------- Iteration      1(  11)  ---------------------------------------


    POTLOK:  cpu time    0.1473: real time    0.1486
    SETDIJ:  cpu time    0.0131: real time    0.0132
     EDDAV:  cpu time  158.7685: real time  159.8294
 BZINTS: Fermi energy:  4.964008;688.000000 electrons
         Band energy:***********;  BLOECHL correction:  0.000000
       DOS:  cpu time    0.0060: real time    0.0060
    CHARGE:  cpu time    1.3968: real time    1.4052
    MIXING:  cpu time    0.0019: real time    0.0019
    --------------------------------------------
      LOOP:  cpu time  160.3336: real time  161.4044

 eigenvalue-minimisations  : 22784
 total energy-change (2. order) :-0.5270044E-02  (-0.3919580E-02)
 number of electron     688.0000075 magnetization      -0.0000000
 augmentation part      282.2521047 magnetization      -0.0000000

 Broyden mixing:
  rms(total) = 0.62308E-01    rms(broyden)= 0.62308E-01
  rms(prec ) = 0.64566E-01
  weight for this iteration     100.00

 eigenvalues of (default mixing * dielectric matrix)
  average eigenvalue GAMMA=   1.1088
  2.1405  2.1405  0.8183  0.6138  0.6138  0.3260

 Free energy of the ion-electron system (eV)
  ---------------------------------------------------
  alpha Z        PSCENC =      2365.46604464
  Ewald energy   TEWEN  =    -62588.20786318
  -Hartree energ DENC   =    -42878.05509839
  -exchange      EXHF   =         0.00000000
  -V(xc)+E(xc)   XCENC  =      3286.48420784
  PAW double counting   =    112315.22357000  -116007.42181524
  entropy T*S    EENTRO =         0.00000000
  eigenvalues    EBANDS =    -10840.64631948
  atomic energy  EATOM  =    114020.06510763
  Solvation  Ediel_sol  =         0.00000000
  ---------------------------------------------------
  free energy    TOTEN  =      -327.09216618 eV

  energy without entropy =     -327.09216618  energy(sigma->0) =     -327.09216618


--------------------------------------------------------------------------------------------------------




--------------------------------------- Iteration      1(  12)  ---------------------------------------


    POTLOK:  cpu time    0.1454: real time    0.1467
    SETDIJ:  cpu time    0.0130: real time    0.0131
     EDDAV:  cpu time  148.4572: real time  149.4599
 BZINTS: Fermi energy:  4.965665;688.000000 electrons
         Band energy:***********;  BLOECHL correction:  0.000000
       DOS:  cpu time    0.0060: real time    0.0060
    CHARGE:  cpu time    1.4018: real time    1.4105
    MIXING:  cpu time    0.0021: real time    0.0021
    --------------------------------------------
      LOOP:  cpu time  150.0256: real time  151.0383

 eigenvalue-minimisations  : 21504
 total energy-change (2. order) :-0.4257177E-02  (-0.1643906E-02)
 number of electron     688.0000075 magnetization      -0.0000000
 augmentation part      282.2440501 magnetization      -0.0000000

 Broyden mixing:
  rms(total) = 0.22693E-01    rms(broyden)= 0.22691E-01
  rms(prec ) = 0.24318E-01
  weight for this iteration     100.00

 eigenvalues of (default mixing * dielectric matrix)
  average eigenvalue GAMMA=   1.0976
  2.2183  2.2183  0.9962  0.3257  0.6140  0.6140  0.6966

 Free energy of the ion-electron system (eV)
  ---------------------------------------------------
  alpha Z        PSCENC =      2365.46604464
  Ewald energy   TEWEN  =    -62588.20786318
  -Hartree energ DENC   =    -42879.80138073
  -exchange      EXHF   =         0.00000000
  -V(xc)+E(xc)   XCENC  =      3286.53698339
  PAW double counting   =    112244.50791899  -115937.03985483
  entropy T*S    EENTRO =         0.00000000
  eigenvalues    EBANDS =    -10838.62337926
  atomic energy  EATOM  =    114020.06510763
  Solvation  Ediel_sol  =         0.00000000
  ---------------------------------------------------
  free energy    TOTEN  =      -327.09642336 eV

  energy without entropy =     -327.09642336  energy(sigma->0) =     -327.09642336


--------------------------------------------------------------------------------------------------------




--------------------------------------- Iteration      1(  13)  ---------------------------------------


    POTLOK:  cpu time    0.1475: real time    0.1485
    SETDIJ:  cpu time    0.0129: real time    0.0130
     EDDAV:  cpu time  142.6002: real time  143.5552
 BZINTS: Fermi energy:  4.965025;688.000000 electrons
         Band energy:***********;  BLOECHL correction:  0.000000
       DOS:  cpu time    0.0060: real time    0.0060
    CHARGE:  cpu time    1.3995: real time    1.4086
    MIXING:  cpu time    0.0017: real time    0.0017
    --------------------------------------------
      LOOP:  cpu time  144.1678: real time  145.1329

 eigenvalue-minimisations  : 20992
 total energy-change (2. order) :-0.5799800E-03  (-0.1786788E-03)
 number of electron     688.0000075 magnetization      -0.0000000
 augmentation part      282.2449426 magnetization      -0.0000000

 Broyden mixing:
  rms(total) = 0.14146E-01    rms(broyden)= 0.14145E-01
  rms(prec ) = 0.14963E-01
  weight for this iteration     100.00

 eigenvalues of (default mixing * dielectric matrix)
  average eigenvalue GAMMA=   1.1079
  2.2504  2.2504  1.0702  1.0702  0.3256  0.6099  0.6099  0.6771

 Free energy of the ion-electron system (eV)
  ---------------------------------------------------
  alpha Z        PSCENC =      2365.46604464
  Ewald energy   TEWEN  =    -62588.20786318
  -Hartree energ DENC   =    -42879.35151888
  -exchange      EXHF   =         0.00000000
  -V(xc)+E(xc)   XCENC  =      3286.52989329
  PAW double counting   =    112224.39174367  -115916.77637271
  entropy T*S    EENTRO =         0.00000000
  eigenvalues    EBANDS =    -10839.21403779
  atomic energy  EATOM  =    114020.06510763
  Solvation  Ediel_sol  =         0.00000000
  ---------------------------------------------------
  free energy    TOTEN  =      -327.09700334 eV

  energy without entropy =     -327.09700334  energy(sigma->0) =     -327.09700334


--------------------------------------------------------------------------------------------------------




--------------------------------------- Iteration      1(  14)  ---------------------------------------


    POTLOK:  cpu time    0.1441: real time    0.1479
    SETDIJ:  cpu time    0.0130: real time    0.0131
     EDDAV:  cpu time  166.9902: real time  168.1075
 BZINTS: Fermi energy:  4.964952;688.000000 electrons
         Band energy:***********;  BLOECHL correction:  0.000000
       DOS:  cpu time    0.0060: real time    0.0060
    CHARGE:  cpu time    1.6326: real time    1.6425
    MIXING:  cpu time    0.0021: real time    0.0022
    --------------------------------------------
      LOOP:  cpu time  168.7880: real time  169.9191

 eigenvalue-minimisations  : 23040
 total energy-change (2. order) :-0.3758416E-03  (-0.1012805E-03)
 number of electron     688.0000075 magnetization      -0.0000000
 augmentation part      282.2442365 magnetization      -0.0000000

 Broyden mixing:
  rms(total) = 0.73131E-02    rms(broyden)= 0.73128E-02
  rms(prec ) = 0.75865E-02
  weight for this iteration     100.00

 eigenvalues of (default mixing * dielectric matrix)
  average eigenvalue GAMMA=   1.1903
  2.4320  2.4320  1.4663  1.4663  0.3256  0.6029  0.6029  0.7168  0.6675

 Free energy of the ion-electron system (eV)
  ---------------------------------------------------
  alpha Z        PSCENC =      2365.46604464
  Ewald energy   TEWEN  =    -62588.20786318
  -Hartree energ DENC   =    -42879.55207810
  -exchange      EXHF   =         0.00000000
  -V(xc)+E(xc)   XCENC  =      3286.54072249
  PAW double counting   =    112212.04836930  -115904.57438604
  entropy T*S    EENTRO =         0.00000000
  eigenvalues    EBANDS =    -10838.88329592
  atomic energy  EATOM  =    114020.06510763
  Solvation  Ediel_sol  =         0.00000000
  ---------------------------------------------------
  free energy    TOTEN  =      -327.09737918 eV

  energy without entropy =     -327.09737918  energy(sigma->0) =     -327.09737918


--------------------------------------------------------------------------------------------------------




--------------------------------------- Iteration      1(  15)  ---------------------------------------


    POTLOK:  cpu time    0.1593: real time    0.1603
    SETDIJ:  cpu time    0.0158: real time    0.0159
     EDDAV:  cpu time  130.6658: real time  131.5635
 BZINTS: Fermi energy:  4.964791;688.000000 electrons
         Band energy:***********;  BLOECHL correction:  0.000000
       DOS:  cpu time    0.0059: real time    0.0059
    CHARGE:  cpu time    1.3975: real time    1.4066
    MIXING:  cpu time    0.0022: real time    0.0022
    --------------------------------------------
      LOOP:  cpu time  132.2466: real time  133.1545

 eigenvalue-minimisations  : 19968
 total energy-change (2. order) :-0.1822403E-03  (-0.4732633E-04)
 number of electron     688.0000075 magnetization       0.0000000
 augmentation part      282.2422331 magnetization       0.0000000

 Broyden mixing:
  rms(total) = 0.36102E-02    rms(broyden)= 0.36098E-02
  rms(prec ) = 0.38571E-02
  weight for this iteration     100.00

 eigenvalues of (default mixing * dielectric matrix)
  average eigenvalue GAMMA=   1.1889
  2.6466  2.3345  1.7737  1.1346  1.1346  0.3256  0.6056  0.6056  0.7039  0.6249

 Free energy of the ion-electron system (eV)
  ---------------------------------------------------
  alpha Z        PSCENC =      2365.46604464
  Ewald energy   TEWEN  =    -62588.20786318
  -Hartree energ DENC   =    -42879.59144974
  -exchange      EXHF   =         0.00000000
  -V(xc)+E(xc)   XCENC  =      3286.53956482
  PAW double counting   =    112206.54102939  -115899.04764236
  entropy T*S    EENTRO =         0.00000000
  eigenvalues    EBANDS =    -10838.86235262
  atomic energy  EATOM  =    114020.06510763
  Solvation  Ediel_sol  =         0.00000000
  ---------------------------------------------------
  free energy    TOTEN  =      -327.09756142 eV

  energy without entropy =     -327.09756142  energy(sigma->0) =     -327.09756142


--------------------------------------------------------------------------------------------------------




--------------------------------------- Iteration      1(  16)  ---------------------------------------


    POTLOK:  cpu time    0.1425: real time    0.1472
    SETDIJ:  cpu time    0.0131: real time    0.0132
     EDDAV:  cpu time  154.7830: real time  155.8130
 BZINTS: Fermi energy:  4.964597;688.000000 electrons
         Band energy:***********;  BLOECHL correction:  0.000000
       DOS:  cpu time    0.0060: real time    0.0060
    CHARGE:  cpu time    1.3971: real time    1.4058
    MIXING:  cpu time    0.0024: real time    0.0031
    --------------------------------------------
      LOOP:  cpu time  156.3440: real time  157.3882

 eigenvalue-minimisations  : 22016
 total energy-change (2. order) :-0.5069120E-04  (-0.1207953E-04)
 number of electron     688.0000075 magnetization       0.0000000
 augmentation part      282.2451981 magnetization       0.0000000

 Broyden mixing:
  rms(total) = 0.24061E-02    rms(broyden)= 0.24059E-02
  rms(prec ) = 0.25455E-02
  weight for this iteration     100.00

 eigenvalues of (default mixing * dielectric matrix)
  average eigenvalue GAMMA=   1.2481
  2.9241  2.1475  2.1475  1.3843  1.3843  0.3256  0.8833  0.6049  0.6049  0.7076
  0.6146

 Free energy of the ion-electron system (eV)
  ---------------------------------------------------
  alpha Z        PSCENC =      2365.46604464
  Ewald energy   TEWEN  =    -62588.20786318
  -Hartree energ DENC   =    -42879.46628261
  -exchange      EXHF   =         0.00000000
  -V(xc)+E(xc)   XCENC  =      3286.53940500
  PAW double counting   =    112205.51210788  -115897.99858833
  entropy T*S    EENTRO =         0.00000000
  eigenvalues    EBANDS =    -10839.00754314
  atomic energy  EATOM  =    114020.06510763
  Solvation  Ediel_sol  =         0.00000000
  ---------------------------------------------------
  free energy    TOTEN  =      -327.09761211 eV

  energy without entropy =     -327.09761211  energy(sigma->0) =     -327.09761211


--------------------------------------------------------------------------------------------------------




--------------------------------------- Iteration      1(  17)  ---------------------------------------


    POTLOK:  cpu time    0.1460: real time    0.1483
    SETDIJ:  cpu time    0.0130: real time    0.0131
     EDDAV:  cpu time  135.7939: real time  136.7133
 BZINTS: Fermi energy:  4.964462;688.000000 electrons
         Band energy:***********;  BLOECHL correction:  0.000000
       DOS:  cpu time    0.0060: real time    0.0060
    CHARGE:  cpu time    1.3994: real time    1.4078
    MIXING:  cpu time    0.0022: real time    0.0022
    --------------------------------------------
      LOOP:  cpu time  137.3605: real time  138.2907

 eigenvalue-minimisations  : 20480
 total energy-change (2. order) :-0.3581554E-04  (-0.1591449E-04)
 number of electron     688.0000075 magnetization       0.0000000
 augmentation part      282.2444832 magnetization       0.0000000

 Broyden mixing:
  rms(total) = 0.12873E-02    rms(broyden)= 0.12869E-02
  rms(prec ) = 0.13873E-02
  weight for this iteration     100.00

 eigenvalues of (default mixing * dielectric matrix)
  average eigenvalue GAMMA=   1.3533
  3.9252  2.3243  2.3243  1.5375  1.5375  0.3256  1.0077  0.6059  0.6059  0.7528
  0.6845  0.6078

 Free energy of the ion-electron system (eV)
  ---------------------------------------------------
  alpha Z        PSCENC =      2365.46604464
  Ewald energy   TEWEN  =    -62588.20786318
  -Hartree energ DENC   =    -42879.52061847
  -exchange      EXHF   =         0.00000000
  -V(xc)+E(xc)   XCENC  =      3286.54115837
  PAW double counting   =    112206.36887915  -115898.87292024
  entropy T*S    EENTRO =         0.00000000
  eigenvalues    EBANDS =    -10838.93743583
  atomic energy  EATOM  =    114020.06510763
  Solvation  Ediel_sol  =         0.00000000
  ---------------------------------------------------
  free energy    TOTEN  =      -327.09764793 eV

  energy without entropy =     -327.09764793  energy(sigma->0) =     -327.09764793


--------------------------------------------------------------------------------------------------------




--------------------------------------- Iteration      1(  18)  ---------------------------------------


    POTLOK:  cpu time    0.1452: real time    0.1465
    SETDIJ:  cpu time    0.0130: real time    0.0130
     EDDAV:  cpu time  145.0710: real time  146.0456
 BZINTS: Fermi energy:  4.964240;688.000000 electrons
         Band energy:***********;  BLOECHL correction:  0.000000
       DOS:  cpu time    0.0060: real time    0.0060
    CHARGE:  cpu time    1.3981: real time    1.4061
    MIXING:  cpu time    0.0024: real time    0.0024
    --------------------------------------------
      LOOP:  cpu time  146.6355: real time  147.6195

 eigenvalue-minimisations  : 20992
 total energy-change (2. order) :-0.8143194E-05  (-0.5976495E-05)
 number of electron     688.0000075 magnetization       0.0000000
 augmentation part      282.2443308 magnetization       0.0000000

 Broyden mixing:
  rms(total) = 0.60753E-03    rms(broyden)= 0.60716E-03
  rms(prec ) = 0.63949E-03
  weight for this iteration     100.00

 eigenvalues of (default mixing * dielectric matrix)
  average eigenvalue GAMMA=   1.3339
  4.2089  2.3754  2.3754  1.6029  1.2214  1.2214  0.3256  0.7690  0.7690  0.6073
  0.6073  0.6286  0.6286

 Free energy of the ion-electron system (eV)
  ---------------------------------------------------
  alpha Z        PSCENC =      2365.46604464
  Ewald energy   TEWEN  =    -62588.20786318
  -Hartree energ DENC   =    -42879.49068337
  -exchange      EXHF   =         0.00000000
  -V(xc)+E(xc)   XCENC  =      3286.53949694
  PAW double counting   =    112207.42771785  -115899.92478486
  entropy T*S    EENTRO =         0.00000000
  eigenvalues    EBANDS =    -10838.97269173
  atomic energy  EATOM  =    114020.06510763
  Solvation  Ediel_sol  =         0.00000000
  ---------------------------------------------------
  free energy    TOTEN  =      -327.09765607 eV

  energy without entropy =     -327.09765607  energy(sigma->0) =     -327.09765607


--------------------------------------------------------------------------------------------------------




--------------------------------------- Iteration      1(  19)  ---------------------------------------


    POTLOK:  cpu time    0.1433: real time    0.1474
    SETDIJ:  cpu time    0.0131: real time    0.0131
     EDDAV:  cpu time  120.9223: real time  121.7587
 BZINTS: Fermi energy:  4.964142;688.000000 electrons
         Band energy:***********;  BLOECHL correction:  0.000000
       DOS:  cpu time    0.0059: real time    0.0060
    CHARGE:  cpu time    1.3985: real time    1.4076
    MIXING:  cpu time    0.0024: real time    0.0024
    --------------------------------------------
      LOOP:  cpu time  122.4854: real time  123.3351

 eigenvalue-minimisations  : 18944
 total energy-change (2. order) :-0.6780465E-06  (-0.3060587E-06)
 number of electron     688.0000075 magnetization       0.0000000
 augmentation part      282.2444526 magnetization       0.0000000

 Broyden mixing:
[...]
   -.404E+02 0.356E+02 -.225E+01   0.412E+02 -.358E+02 0.228E+01   -.813E+00 0.223E+00 -.285E-01   -.571E-05 0.106E-04 0.123E-05
   -.404E+02 0.356E+02 -.225E+01   0.412E+02 -.358E+02 0.228E+01   -.813E+00 0.223E+00 -.285E-01   -.570E-05 0.106E-04 0.123E-05
   -.404E+02 0.356E+02 -.225E+01   0.412E+02 -.358E+02 0.228E+01   -.813E+00 0.223E+00 -.285E-01   -.571E-05 0.106E-04 0.123E-05
   -.404E+02 0.356E+02 -.225E+01   0.412E+02 -.358E+02 0.228E+01   -.813E+00 0.223E+00 -.285E-01   -.570E-05 0.106E-04 0.123E-05
   0.404E+02 0.356E+02 0.225E+01   -.412E+02 -.358E+02 -.228E+01   0.813E+00 0.223E+00 0.285E-01   0.570E-05 0.106E-04 -.123E-05
   0.404E+02 0.356E+02 0.225E+01   -.412E+02 -.358E+02 -.228E+01   0.813E+00 0.223E+00 0.285E-01   0.570E-05 0.106E-04 -.123E-05
   0.404E+02 0.356E+02 0.225E+01   -.412E+02 -.358E+02 -.228E+01   0.813E+00 0.223E+00 0.285E-01   0.570E-05 0.106E-04 -.123E-05
   0.404E+02 0.356E+02 0.225E+01   -.412E+02 -.358E+02 -.228E+01   0.813E+00 0.223E+00 0.285E-01   0.570E-05 0.106E-04 -.123E-05
   -.106E-07 -.182E+02 -.159E-06   -.533E-13 0.189E+02 0.213E-13   -.184E-23 -.670E+00 -.258E-25   0.401E-09 0.333E-05 0.115E-08
   -.106E-07 -.182E+02 -.159E-06   -.782E-13 0.189E+02 0.320E-13   -.406E-24 -.670E+00 0.233E-24   -.423E-09 0.333E-05 -.115E-08
   -.106E-07 -.182E+02 -.159E-06   -.568E-13 0.189E+02 0.568E-13   0.361E-23 -.670E+00 -.116E-24   0.401E-09 0.334E-05 0.115E-08
   -.106E-07 -.182E+02 -.159E-06   -.959E-13 0.189E+02 0.533E-13   0.351E-24 -.670E+00 -.103E-24   -.423E-09 0.334E-05 -.115E-08
   -.994E-08 0.676E+02 -.128E-06   0.639E-13 -.686E+02 0.186E-12   -.416E-24 0.104E+01 0.646E-26   -.628E-08 0.227E-04 0.299E-09
   -.995E-08 0.676E+02 -.128E-06   0.853E-13 -.686E+02 0.206E-12   0.216E-24 0.104E+01 0.258E-25   0.630E-08 0.227E-04 -.300E-09
   -.994E-08 0.676E+02 -.128E-06   0.782E-13 -.686E+02 0.206E-12   0.601E-24 0.104E+01 -.646E-25   -.628E-08 0.227E-04 0.299E-09
   -.994E-08 0.676E+02 -.128E-06   0.568E-13 -.686E+02 0.227E-12   -.343E-24 0.104E+01 0.207E-24   0.630E-08 0.227E-04 -.300E-09
   0.545E+01 -.324E+02 0.404E+01   -.539E+01 0.312E+02 -.413E+01   -.516E-01 0.129E+01 0.799E-01   0.155E-05 -.318E-05 -.134E-05
   0.545E+01 -.324E+02 0.404E+01   -.539E+01 0.312E+02 -.413E+01   -.516E-01 0.129E+01 0.799E-01   0.158E-05 -.318E-05 -.134E-05
   0.545E+01 -.324E+02 0.404E+01   -.539E+01 0.312E+02 -.413E+01   -.516E-01 0.129E+01 0.799E-01   0.155E-05 -.315E-05 -.135E-05
   0.545E+01 -.324E+02 0.404E+01   -.539E+01 0.312E+02 -.413E+01   -.516E-01 0.129E+01 0.799E-01   0.158E-05 -.315E-05 -.135E-05
   -.545E+01 -.324E+02 -.404E+01   0.539E+01 0.312E+02 0.413E+01   0.516E-01 0.129E+01 -.799E-01   -.158E-05 -.318E-05 0.134E-05
   -.545E+01 -.324E+02 -.404E+01   0.539E+01 0.312E+02 0.413E+01   0.516E-01 0.129E+01 -.799E-01   -.155E-05 -.318E-05 0.134E-05
   -.545E+01 -.324E+02 -.404E+01   0.539E+01 0.312E+02 0.413E+01   0.516E-01 0.129E+01 -.799E-01   -.158E-05 -.315E-05 0.135E-05
   -.545E+01 -.324E+02 -.404E+01   0.539E+01 0.312E+02 0.413E+01   0.516E-01 0.129E+01 -.799E-01   -.155E-05 -.315E-05 0.134E-05
   0.545E+01 -.324E+02 0.404E+01   -.539E+01 0.312E+02 -.413E+01   -.516E-01 0.129E+01 0.799E-01   0.155E-05 -.318E-05 -.134E-05
   0.545E+01 -.324E+02 0.404E+01   -.539E+01 0.312E+02 -.413E+01   -.516E-01 0.129E+01 0.799E-01   0.158E-05 -.318E-05 -.134E-05
   0.545E+01 -.324E+02 0.404E+01   -.539E+01 0.312E+02 -.413E+01   -.516E-01 0.129E+01 0.799E-01   0.155E-05 -.315E-05 -.135E-05
   0.545E+01 -.324E+02 0.404E+01   -.539E+01 0.312E+02 -.413E+01   -.516E-01 0.129E+01 0.799E-01   0.158E-05 -.315E-05 -.134E-05
   -.545E+01 -.324E+02 -.404E+01   0.539E+01 0.312E+02 0.413E+01   0.516E-01 0.129E+01 -.799E-01   -.157E-05 -.318E-05 0.135E-05
   -.545E+01 -.324E+02 -.404E+01   0.539E+01 0.312E+02 0.413E+01   0.516E-01 0.129E+01 -.799E-01   -.155E-05 -.318E-05 0.134E-05
   -.545E+01 -.324E+02 -.404E+01   0.539E+01 0.312E+02 0.413E+01   0.516E-01 0.129E+01 -.799E-01   -.157E-05 -.315E-05 0.135E-05
   -.545E+01 -.324E+02 -.404E+01   0.539E+01 0.312E+02 0.413E+01   0.516E-01 0.129E+01 -.799E-01   -.155E-05 -.315E-05 0.134E-05
   -.896E+01 -.312E+02 0.516E+01   0.882E+01 0.295E+02 -.528E+01   0.148E+00 0.168E+01 0.101E+00   0.556E-05 0.816E-05 0.754E-05
   -.896E+01 -.312E+02 0.516E+01   0.882E+01 0.295E+02 -.528E+01   0.148E+00 0.168E+01 0.101E+00   0.558E-05 0.816E-05 0.754E-05
   -.896E+01 -.312E+02 0.516E+01   0.882E+01 0.295E+02 -.528E+01   0.148E+00 0.168E+01 0.101E+00   0.556E-05 0.819E-05 0.755E-05
   -.896E+01 -.312E+02 0.516E+01   0.882E+01 0.295E+02 -.528E+01   0.148E+00 0.168E+01 0.101E+00   0.558E-05 0.819E-05 0.754E-05
   0.896E+01 -.312E+02 -.516E+01   -.882E+01 0.295E+02 0.528E+01   -.148E+00 0.168E+01 -.101E+00   -.558E-05 0.816E-05 -.754E-05
   0.896E+01 -.312E+02 -.516E+01   -.882E+01 0.295E+02 0.528E+01   -.148E+00 0.168E+01 -.101E+00   -.556E-05 0.816E-05 -.754E-05
   0.896E+01 -.312E+02 -.516E+01   -.882E+01 0.295E+02 0.528E+01   -.148E+00 0.168E+01 -.101E+00   -.558E-05 0.819E-05 -.754E-05
   0.896E+01 -.312E+02 -.516E+01   -.882E+01 0.295E+02 0.528E+01   -.148E+00 0.168E+01 -.101E+00   -.556E-05 0.819E-05 -.754E-05
   -.896E+01 -.312E+02 0.516E+01   0.882E+01 0.295E+02 -.528E+01   0.148E+00 0.168E+01 0.101E+00   0.556E-05 0.817E-05 0.754E-05
   -.896E+01 -.312E+02 0.516E+01   0.882E+01 0.295E+02 -.528E+01   0.148E+00 0.168E+01 0.101E+00   0.558E-05 0.817E-05 0.754E-05
   -.896E+01 -.312E+02 0.516E+01   0.882E+01 0.295E+02 -.528E+01   0.148E+00 0.168E+01 0.101E+00   0.556E-05 0.819E-05 0.755E-05
   -.896E+01 -.312E+02 0.516E+01   0.882E+01 0.295E+02 -.528E+01   0.148E+00 0.168E+01 0.101E+00   0.558E-05 0.819E-05 0.754E-05
   0.896E+01 -.312E+02 -.516E+01   -.882E+01 0.295E+02 0.528E+01   -.148E+00 0.168E+01 -.101E+00   -.558E-05 0.817E-05 -.754E-05
   0.896E+01 -.312E+02 -.516E+01   -.882E+01 0.295E+02 0.528E+01   -.148E+00 0.168E+01 -.101E+00   -.555E-05 0.817E-05 -.754E-05
   0.896E+01 -.312E+02 -.516E+01   -.882E+01 0.295E+02 0.528E+01   -.148E+00 0.168E+01 -.101E+00   -.558E-05 0.819E-05 -.755E-05
   0.896E+01 -.312E+02 -.516E+01   -.882E+01 0.295E+02 0.528E+01   -.148E+00 0.168E+01 -.101E+00   -.555E-05 0.819E-05 -.754E-05
 -----------------------------------------------------------------------------------------------
   -.984E-06 -.539E+02 -.334E-04   -.167E-12 -.888E-13 0.963E-12   -.472E-15 0.539E+02 -.167E-15   0.720E-11 0.458E-03 0.503E-11
 
 
 POSITION                                       TOTAL-FORCE (eV/Angst)
 -----------------------------------------------------------------------------------
      1.39183      1.24947      1.37368         0.000524     -0.013695      0.002820
      6.64083      1.24947      1.63042         0.000524     -0.013695      0.002820
      1.39183      6.51444      1.37368         0.000524     -0.013695      0.002820
      6.64083      6.51444      1.63042         0.000524     -0.013695      0.002820
      3.98426      3.88195      1.48134        -0.000524     -0.013695     -0.002820
      9.23326      3.88195      1.73809        -0.000524     -0.013695     -0.002820
      3.98426      9.14692      1.48134        -0.000524     -0.013695     -0.002820
      9.23326      9.14692      1.73809        -0.000524     -0.013695     -0.002820
      1.75706      3.90055      9.15815        -0.000000     -0.009294     -0.000000
      7.00606      3.90055      9.41489        -0.000000     -0.009294     -0.000000
      1.75706      9.16552      9.15815        -0.000000     -0.009294     -0.000000
      7.00606      9.16552      9.41489        -0.000000     -0.009294     -0.000000
      4.38156      1.28355      9.28652        -0.000000     -0.005427     -0.000000
      9.63056      1.28355      9.54326        -0.000000     -0.005427     -0.000000
      4.38156      6.54851      9.28652        -0.000000     -0.005427     -0.000000
      9.63056      6.54851      9.54326        -0.000000     -0.005427     -0.000000
      1.61394      1.24947      6.54952        -0.000524     -0.013695     -0.002820
      6.86294      1.24947      6.80626        -0.000524     -0.013695     -0.002820
      1.61394      6.51444      6.54952        -0.000524     -0.013695     -0.002820
      6.86294      6.51444      6.80626        -0.000524     -0.013695     -0.002820
      4.27051      3.88195      6.69860         0.000524     -0.013695      0.002820
      9.51951      3.88195      6.95534         0.000524     -0.013695      0.002820
      4.27051      9.14692      6.69860         0.000524     -0.013695      0.002820
      9.51951      9.14692      6.95534         0.000524     -0.013695      0.002820
      4.12738      1.26807      4.08997        -0.000000     -0.009294     -0.000000
      9.37638      1.26807      4.34671        -0.000000     -0.009294     -0.000000
      4.12738      6.53303      4.08997        -0.000000     -0.009294     -0.000000
      9.37638      6.53303      4.34671        -0.000000     -0.009294     -0.000000
      1.50288      3.91603      3.96160        -0.000000     -0.005427     -0.000000
      6.75188      3.91603      4.21834        -0.000000     -0.005427     -0.000000
      1.50288      9.18100      3.96160        -0.000000     -0.005427     -0.000000
      6.75188      9.18100      4.21834        -0.000000     -0.005427     -0.000000
     10.72653      0.05417      5.70901         0.004429      0.009960     -0.008325
      5.47753      0.05417      5.45227         0.004429      0.009960     -0.008325
     10.72653      5.31913      5.70901         0.004429      0.009960     -0.008325
      5.47753      5.31913      5.45227         0.004429      0.009960     -0.008325
      2.77724      0.05417      2.72767        -0.004429      0.009960      0.008325
      8.02624      0.05417      2.98442        -0.004429      0.009960      0.008325
      2.77724      5.31913      2.72767        -0.004429      0.009960      0.008325
      8.02624      5.31913      2.98442        -0.004429      0.009960      0.008325
      2.59885      2.68665      0.12735         0.004429      0.009960     -0.008325
      7.84785      2.68665      0.38409         0.004429      0.009960     -0.008325
      2.59885      7.95161      0.12735         0.004429      0.009960     -0.008325
      7.84785      7.95161      0.38409         0.004429      0.009960     -0.008325
      0.40691      2.68665      7.79585        -0.004429      0.009960      0.008325
      5.65591      2.68665      8.05259        -0.004429      0.009960      0.008325
      0.40691      7.95161      7.79585        -0.004429      0.009960      0.008325
      5.65591      7.95161      8.05259        -0.004429      0.009960      0.008325
     10.48308      0.05305      0.52212         0.006278      0.011096     -0.018665
      5.23408      0.05305      0.26538         0.006278      0.011096     -0.018665
     10.48308      5.31802      0.52212         0.006278      0.011096     -0.018665
      5.23408      5.31802      0.26538         0.006278      0.011096     -0.018665
      3.02069      0.05305      7.91456        -0.006278      0.011096      0.018665
      8.26969      0.05305      8.17131        -0.006278      0.011096      0.018665
      3.02069      5.31802      7.91456        -0.006278      0.011096      0.018665
      8.26969      5.31802      8.17131        -0.006278      0.011096      0.018665
      2.86376      2.68553      5.33355         0.006278      0.011096     -0.018665
      8.11276      2.68553      5.59030         0.006278      0.011096     -0.018665
      2.86376      7.95050      5.33355         0.006278      0.011096     -0.018665
      8.11276      7.95050      5.59030         0.006278      0.011096     -0.018665
      0.14201      2.68553      2.58964        -0.006278      0.011096      0.018665
      5.39101      2.68553      2.84639        -0.006278      0.011096      0.018665
      0.14201      7.95050      2.58964        -0.006278      0.011096      0.018665
      5.39101      7.95050      2.84639        -0.006278      0.011096      0.018665
 -----------------------------------------------------------------------------------
    total drift:                               -0.000001      0.001037     -0.000033


--------------------------------------------------------------------------------------------------------



  FREE ENERGIE OF THE ION-ELECTRON SYSTEM (eV)
  ---------------------------------------------------
  free  energy   TOTEN  =      -327.09765730 eV

  energy  without entropy=     -327.09765730  energy(sigma->0) =     -327.09765730
 


--------------------------------------------------------------------------------------------------------


    POTLOK:  cpu time    0.1590: real time    0.1598


--------------------------------------------------------------------------------------------------------


 writing wavefunctions
     LOOP+:  cpu time 3704.9914: real time 3730.5864
    4ORBIT:  cpu time    0.0000: real time    0.0000
 


 total charge     
 
# of ion       s       p       d       tot
------------------------------------------
    1        1.315   2.407   0.000   3.722
    2        1.315   2.407   0.000   3.722
    3        1.315   2.407   0.000   3.722
    4        1.315   2.407   0.000   3.722
    5        1.315   2.407   0.000   3.722
    6        1.315   2.407   0.000   3.722
    7        1.315   2.407   0.000   3.722
    8        1.315   2.407   0.000   3.722
    9        1.316   2.402   0.000   3.718
   10        1.316   2.402   0.000   3.718
   11        1.316   2.402   0.000   3.718
   12        1.316   2.402   0.000   3.718
   13        1.313   2.411   0.000   3.724
   14        1.313   2.411   0.000   3.724
   15        1.313   2.411   0.000   3.724
   16        1.313   2.411   0.000   3.724
   17        1.315   2.407   0.000   3.722
   18        1.315   2.407   0.000   3.722
   19        1.315   2.407   0.000   3.722
   20        1.315   2.407   0.000   3.722
   21        1.315   2.407   0.000   3.722
   22        1.315   2.407   0.000   3.722
   23        1.315   2.407   0.000   3.722
   24        1.315   2.407   0.000   3.722
   25        1.316   2.402   0.000   3.718
   26        1.316   2.402   0.000   3.718
   27        1.316   2.402   0.000   3.718
   28        1.316   2.402   0.000   3.718
   29        1.313   2.411   0.000   3.724
   30        1.313   2.411   0.000   3.724
   31        1.313   2.411   0.000   3.724
   32        1.313   2.411   0.000   3.724
   33        0.258   6.201   8.917  15.376
   34        0.258   6.201   8.917  15.376
   35        0.258   6.201   8.917  15.376
   36        0.258   6.201   8.917  15.376
   37        0.258   6.201   8.917  15.376
   38        0.258   6.201   8.917  15.376
   39        0.258   6.201   8.917  15.376
   40        0.258   6.201   8.917  15.376
   41        0.258   6.201   8.917  15.376
   42        0.258   6.201   8.917  15.376
   43        0.258   6.201   8.917  15.376
   44        0.258   6.201   8.917  15.376
   45        0.258   6.201   8.917  15.376
   46        0.258   6.201   8.917  15.376
   47        0.258   6.201   8.917  15.376
   48        0.258   6.201   8.917  15.376
   49        0.348   6.348   5.824  12.520
   50        0.348   6.348   5.824  12.520
   51        0.348   6.348   5.824  12.520
   52        0.348   6.348   5.824  12.520
   53        0.348   6.348   5.824  12.520
   54        0.348   6.348   5.824  12.520
   55        0.348   6.348   5.824  12.520
   56        0.348   6.348   5.824  12.520
   57        0.348   6.348   5.824  12.520
   58        0.348   6.348   5.824  12.520
   59        0.348   6.348   5.824  12.520
   60        0.348   6.348   5.824  12.520
   61        0.348   6.348   5.824  12.520
   62        0.348   6.348   5.824  12.520
   63        0.348   6.348   5.824  12.520
   64        0.348   6.348   5.824  12.520
--------------------------------------------------
tot         51.773 277.808 235.847 565.428
 


 magnetization (x)
 
# of ion       s       p       d       tot
------------------------------------------
    1       -0.000  -0.024   0.000  -0.024
    2       -0.000  -0.024   0.000  -0.024
    3       -0.000  -0.024   0.000  -0.024
    4       -0.000  -0.024   0.000  -0.024
    5        0.000   0.024   0.000   0.024
    6        0.000   0.024   0.000   0.024
    7        0.000   0.024   0.000   0.024
    8        0.000   0.024   0.000   0.024
    9       -0.000   0.000   0.000  -0.000
   10       -0.000   0.000   0.000   0.000
   11       -0.000   0.000   0.000  -0.000
   12       -0.000   0.000   0.000   0.000
   13        0.000   0.000   0.000   0.000
   14        0.000   0.000   0.000   0.000
   15        0.000   0.000   0.000   0.000
   16        0.000   0.000   0.000   0.000
   17        0.000   0.024   0.000   0.024
   18        0.000   0.024   0.000   0.024
   19        0.000   0.024   0.000   0.024
   20        0.000   0.024   0.000   0.024
   21       -0.000  -0.024   0.000  -0.024
   22       -0.000  -0.024   0.000  -0.024
   23       -0.000  -0.024   0.000  -0.024
   24       -0.000  -0.024   0.000  -0.024
   25       -0.000   0.000   0.000   0.000
   26       -0.000   0.000   0.000   0.000
   27       -0.000   0.000   0.000   0.000
   28       -0.000   0.000   0.000   0.000
   29        0.000   0.000   0.000   0.000
   30        0.000   0.000   0.000   0.000
   31        0.000   0.000   0.000   0.000
   32        0.000   0.000   0.000   0.000
   33        0.000   0.001  -0.003  -0.002
   34        0.000   0.001  -0.003  -0.002
   35        0.000   0.001  -0.003  -0.002
   36        0.000   0.001  -0.003  -0.002
   37       -0.000  -0.001   0.003   0.002
   38       -0.000  -0.001   0.003   0.002
   39       -0.000  -0.001   0.003   0.002
   40       -0.000  -0.001   0.003   0.002
   41        0.000   0.001  -0.003  -0.002
   42        0.000   0.001  -0.003  -0.002
   43        0.000   0.001  -0.003  -0.002
   44        0.000   0.001  -0.003  -0.002
   45       -0.000  -0.001   0.003   0.002
   46       -0.000  -0.001   0.003   0.002
   47       -0.000  -0.001   0.003   0.002
   48       -0.000  -0.001   0.003   0.002
   49        0.020   0.054   3.665   3.739
   50        0.020   0.054   3.665   3.739
   51        0.020   0.054   3.665   3.739
   52        0.020   0.054   3.665   3.739
   53       -0.020  -0.054  -3.665  -3.739
   54       -0.020  -0.054  -3.665  -3.739
   55       -0.020  -0.054  -3.665  -3.739
   56       -0.020  -0.054  -3.665  -3.739
   57        0.020   0.054   3.665   3.739
   58        0.020   0.054   3.665   3.739
   59        0.020   0.054   3.665   3.739
   60        0.020   0.054   3.665   3.739
   61       -0.020  -0.054  -3.665  -3.739
   62       -0.020  -0.054  -3.665  -3.739
   63       -0.020  -0.054  -3.665  -3.739
   64       -0.020  -0.054  -3.665  -3.739
--------------------------------------------------
tot         -0.000   0.000   0.000   0.000
 
 BZINTS: Fermi energy:  4.962760;688.000000 electrons
         Band energy:***********;  BLOECHL correction:  0.000000

 total amount of memory used by VASP MPI-rank0   348353. kBytes
=======================================================================

   base      :      30000. kBytes
   nonl-proj :     216760. kBytes
   fftplans  :       4588. kBytes
   grid      :      69719. kBytes
   one-center:       1990. kBytes
   wavefun   :      25296. kBytes
 
  
  
 General timing and accounting informations for this job:
 ========================================================
  
                  Total CPU time used (sec):     3765.405
                            User time (sec):     3753.271
                          System time (sec):       12.134
                         Elapsed time (sec):     3792.748
  
                   Maximum memory used (kb):      705876.
                   Average memory used (kb):           0.
  
                          Minor page faults:       658609
                          Major page faults:         5710
                 Voluntary context switches:         7084
