       N       E                     dE             d eps       ncg     rms          rms(c)
DAV:   1    -0.303792215643E+03   -0.30379E+03   -0.13026E+03 19712   0.199E+02    0.307E+01
DAV:   2    -0.325745373196E+03   -0.21953E+02   -0.21983E+02 12288   0.224E+01    0.125E+01
DAV:   3    -0.326023652771E+03   -0.27828E+00   -0.34092E+00 19968   0.342E+00    0.914E+00
DAV:   4    -0.326022563108E+03    0.10897E-02   -0.13316E-01 13568   0.103E+00    0.790E+00
DAV:   5    -0.326022464073E+03    0.99035E-04   -0.10900E-02 17408   0.310E-01    0.687E+00
DAV:   6    -0.326022235740E+03    0.22833E-03   -0.55660E-04 16128   0.630E-02    0.631E+00
DAV:   7    -0.326021520487E+03    0.71525E-03   -0.52822E-04 17152   0.695E-02    0.481E+00
DAV:   8    -0.326021136394E+03    0.38409E-03   -0.38791E-04 14592   0.566E-02    0.302E+00
DAV:   9    -0.326021026572E+03    0.10982E-03   -0.65083E-05 16896   0.199E-02    0.243E+00
DAV:  10    -0.326020866070E+03    0.16050E-03   -0.22633E-04 15360   0.375E-02    0.107E+00
DAV:  11    -0.326020842598E+03    0.23472E-04   -0.29457E-05 16640   0.133E-02    0.609E-01
DAV:  12    -0.326020832862E+03    0.97363E-05   -0.69269E-06 16128   0.523E-03    0.323E-01
DAV:  13    -0.326020826144E+03    0.67173E-05   -0.58310E-06 16128   0.621E-03    0.835E-02
DAV:  14    -0.326020824868E+03    0.12767E-05   -0.13725E-06 17152   0.255E-03    0.114E-02
DAV:  15    -0.326020824659E+03    0.20819E-06   -0.18122E-07 16384   0.515E-04    0.323E-03
DAV:  16    -0.326020824675E+03   -0.15993E-07   -0.25222E-08 13824   0.294E-04    0.386E-04
DAV:  17    -0.326020824669E+03    0.68831E-08   -0.13727E-09 10752   0.718E-05
   1 F= -.32602082E+03 E0= -.32602082E+03  d E =0.000000E+00  mag=     0.0000
