 vasp.5.4.4.18Apr17-6-g9f103f2a35 (build Oct 30 2023 17:30:16) complex          
  
 executed on             LinuxIFC date 2024.06.29  18:26:03
 running on  256 total cores
 distrk:  each k-point on  256 cores,    1 groups
 distr:  one band on NCORES_PER_BAND=   1 cores,  256 groups


--------------------------------------------------------------------------------------------------------


 INCAR:
 POTCAR:    PAW_PBE S 06Sep2000                   
 POTCAR:     PAW_PBE Cu_pv 06Sep2000              
 POTCAR:     PAW_PBE Fe_pv 02Aug2007              

 ----------------------------------------------------------------------------- 
|                                                                             |
|           W    W    AA    RRRRR   N    N  II  N    N   GGGG   !!!           |
|           W    W   A  A   R    R  NN   N  II  NN   N  G    G  !!!           |
|           W    W  A    A  R    R  N N  N  II  N N  N  G       !!!           |
|           W WW W  AAAAAA  RRRRR   N  N N  II  N  N N  G  GGG   !            |
|           WW  WW  A    A  R   R   N   NN  II  N   NN  G    G                |
|           W    W  A    A  R    R  N    N  II  N    N   GGGG   !!!           |
|                                                                             |
|      For optimal performance we recommend to set                            |
|        NCORE= 4 - approx SQRT( number of cores)                             |
|      NCORE specifies how many cores store one orbital (NPAR=cpu/NCORE).     |
|      This setting can  greatly improve the performance of VASP for DFT.     |
|      The default,   NCORE=1            might be grossly inefficient         |
|      on modern multi-core architectures or massively parallel machines.     |
|      Do your own testing !!!!                                               |
|      Unfortunately you need to use the default for GW and RPA calculations. |
|      (for HF NCORE is supported but not extensively tested yet)             |
|                                                                             |
 ----------------------------------------------------------------------------- 

 POTCAR:    PAW_PBE S 06Sep2000                   
   SHA256 =  0fc7481fb0695f01bdc6462160264c5c84044ae9ec85a907d398b887a2bc3132 S/
   COPYR  = (c) Copyright 06Sep2000 Georg Kresse                                
   COPYR  = This file is part of the software VASP. Any use, copying, and all ot
   COPYR  = If you do not have a valid VASP license, you may not use, copy or di
   VRHFIN =S : s2p4                                                             
   LEXCH  = PE                                                                  
   EATOM  =   276.8230 eV,   20.3459 Ry                                         
                                                                                
   TITEL  = PAW_PBE S 06Sep2000                                                 
   LULTRA =        F    use ultrasoft PP ?                                      
   IUNSCR =        1    unscreen: 0-lin 1-nonlin 2-no                           
   RPACOR =    1.500    partial core radius                                     
   POMASS =   32.066; ZVAL   =    6.000    mass and valenz                      
   RCORE  =    1.900    outmost cutoff radius                                   
   RWIGS  =    2.200; RWIGS  =    1.164    wigner-seitz radius (au A)           
   ENMAX  =  258.689; ENMIN  =  194.016 eV                                      
   ICORE  =        2    local potential                                         
   LCOR   =        T    correct aug charges                                     
   LPAW   =        T    paw PP                                                  
   EAUG   =  335.092                                                            
   DEXC   =    0.000                                                            
   RMAX   =    1.942    core radius for proj-oper                               
   RAUG   =    1.300    factor for augmentation sphere                          
   RDEP   =    1.954    radius for radial grids                                 
   RDEPT  =    1.744    core radius for aug-charge                              
                                                                                
   Atomic configuration                                                         
    6 entries                                                                   
     n  l   j            E        occ.                                          
     1  0  0.50     -2405.8406   2.0000                                         
     2  0  0.50      -211.7007   2.0000                                         
     2  1  1.50      -156.4958   6.0000                                         
     3  0  0.50       -17.2562   2.0000                                         
     3  1  0.50        -7.0085   4.0000                                         
     3  2  1.50        -6.8029   0.0000                                         
   Description                                                                  
     l       E           TYP  RCUT    TYP  RCUT                                 
     0    -17.2561641     23  1.900                                             
     0    -15.8743224     23  1.900                                             
     1     -7.0085400     23  1.900                                             
     1     -2.7779785     23  1.900                                             
     2     -6.8029130     23  1.900                                             
  local pseudopotential read in
  partial core-charges read in
  partial kinetic energy density read in
  atomic valenz-charges read in
  non local Contribution for L=           0  read in
    real space projection operators read in
  non local Contribution for L=           0  read in
    real space projection operators read in
  non local Contribution for L=           1  read in
    real space projection operators read in
  non local Contribution for L=           1  read in
    real space projection operators read in
    PAW grid and wavefunctions read in
 
   number of l-projection  operators is LMAX  =           4
   number of lm-projection operators is LMMAX =           8
 
 POTCAR:     PAW_PBE Cu_pv 06Sep2000              
   SHA256 =  cb7b504e2ea725fe1f25c85a9ac77d4012ce94cd394135b722c4e25ec297f1cb Cu
   COPYR  = (c) Copyright 06Sep2000 Georg Kresse                                
   COPYR  = This file is part of the software VASP. Any use, copying, and all ot
   COPYR  = If you do not have a valid VASP license, you may not use, copy or di
   VRHFIN =Cu: d10 p1                                                           
   LEXCH  = PE                                                                  
   EATOM  =  4120.1201 eV,  302.8203 Ry                                         
                                                                                
   TITEL  = PAW_PBE Cu_pv 06Sep2000                                             
   LULTRA =        F    use ultrasoft PP ?                                      
   IUNSCR =        1    unscreen: 0-lin 1-nonlin 2-no                           
   RPACOR =    1.500    partial core radius                                     
   POMASS =   63.546; ZVAL   =   17.000    mass and valenz                      
   RCORE  =    2.000    outmost cutoff radius                                   
   RWIGS  =    2.000; RWIGS  =    1.058    wigner-seitz radius (au A)           
   ENMAX  =  368.648; ENMIN  =  276.486 eV                                      
   RCLOC  =    1.304    cutoff for local pot                                    
   LCOR   =        T    correct aug charges                                     
   LPAW   =        T    paw PP                                                  
   EAUG   =  758.233                                                            
   DEXC   =    0.000                                                            
   RMAX   =    2.046    core radius for proj-oper                               
   RAUG   =    1.300    factor for augmentation sphere                          
   RDEP   =    2.025    radius for radial grids                                 
   RDEPT  =    1.558    core radius for aug-charge                              
                                                                                
   Atomic configuration                                                         
    8 entries                                                                   
     n  l   j            E        occ.                                          
     1  0  0.50     -8850.2467   2.0000                                         
     2  0  0.50     -1062.3498   2.0000                                         
     2  1  1.50      -916.8226   6.0000                                         
     3  0  0.50      -114.6929   2.0000                                         
     3  1  1.50       -72.1325   6.0000                                         
     3  2  2.50        -5.0394  10.0000                                         
     4  0  0.50        -4.6097   1.0000                                         
     4  3  2.50        -1.3606   0.0000                                         
   Description                                                                  
     l       E           TYP  RCUT    TYP  RCUT                                 
     1    -72.1324777     23  1.700                                             
     1     -1.3605826     23  1.700                                             
     2     -5.0393776     23  2.000                                             
     2     -6.3999602     23  2.000                                             
     0     -4.6097062     23  1.800                                             
     0     14.1620818     23  1.800                                             
  local pseudopotential read in
  partial core-charges read in
  partial kinetic energy density read in
  atomic valenz-charges read in
  non local Contribution for L=           1  read in
    real space projection operators read in
  non local Contribution for L=           1  read in
    real space projection operators read in
  non local Contribution for L=           2  read in
    real space projection operators read in
  non local Contribution for L=           2  read in
    real space projection operators read in
  non local Contribution for L=           0  read in
    real space projection operators read in
  non local Contribution for L=           0  read in
    real space projection operators read in
    PAW grid and wavefunctions read in
 
   number of l-projection  operators is LMAX  =           6
   number of lm-projection operators is LMMAX =          18
 
 POTCAR:     PAW_PBE Fe_pv 02Aug2007              
   SHA256 =  5d22e414b1f82158bf2c7ecb8b97b28fd0923e48cadc1c3bf74d524558f5dd32 Fe
   COPYR  = (c) Copyright 02Aug2007 Georg Kresse                                
   COPYR  = This file is part of the software VASP. Any use, copying, and all ot
   COPYR  = If you do not have a valid VASP license, you may not use, copy or di
   VRHFIN =Fe:  3pd7s1                                                          
   LEXCH  = PE                                                                  
   EATOM  =  2457.4239 eV,  180.6156 Ry                                         
                                                                                
   TITEL  = PAW_PBE Fe_pv 02Aug2007                                             
   LULTRA =        F    use ultrasoft PP ?                                      
   IUNSCR =        1    unscreen: 0-lin 1-nonlin 2-no                           
   RPACOR =    1.750    partial core radius                                     
   POMASS =   55.847; ZVAL   =   14.000    mass and valenz                      
   RCORE  =    2.200    outmost cutoff radius                                   
   RWIGS  =    2.200; RWIGS  =    1.164    wigner-seitz radius (au A)           
   ENMAX  =  293.238; ENMIN  =  219.928 eV                                      
   ICORE  =        3    local potential                                         
   LCOR   =        T    correct aug charges                                     
   LPAW   =        T    paw PP                                                  
   EAUG   =  578.342                                                            
   DEXC   =    0.000                                                            
   RMAX   =    2.249    core radius for proj-oper                               
   RAUG   =    1.300    factor for augmentation sphere                          
   RDEP   =    2.296    radius for radial grids                                 
   RDEPT  =    1.766    core radius for aug-charge                              
                                                                                
   Atomic configuration                                                         
    8 entries                                                                   
     n  l   j            E        occ.                                          
     1  0  0.50     -6993.8440   2.0000                                         
     2  0  0.50      -814.6047   2.0000                                         
     2  1  1.50      -693.3689   6.0000                                         
     3  0  0.50       -89.4732   2.0000                                         
     3  1  1.50       -55.6373   6.0000                                         
     3  2  2.50        -3.8151   7.0000                                         
     4  0  0.50        -4.2551   1.0000                                         
     4  3  2.50        -1.3606   0.0000                                         
   Description                                                                  
     l       E           TYP  RCUT    TYP  RCUT                                 
     1    -55.6372668     23  2.000                                             
     1     -5.4423304     23  2.000                                             
     2     -3.8151096     23  2.200                                             
     2     -5.1756922     23  2.200                                             
     0     -4.2550951     23  2.200                                             
     0     27.2116520     23  2.200                                             
     3     -1.3605826     23  2.200                                             
  local pseudopotential read in
  partial core-charges read in
  partial kinetic energy density read in
  atomic valenz-charges read in
  non local Contribution for L=           1  read in
    real space projection operators read in
  non local Contribution for L=           1  read in
    real space projection operators read in
  non local Contribution for L=           2  read in
    real space projection operators read in
  non local Contribution for L=           2  read in
    real space projection operators read in
  non local Contribution for L=           0  read in
    real space projection operators read in
  non local Contribution for L=           0  read in
    real space projection operators read in
    PAW grid and wavefunctions read in
 
   number of l-projection  operators is LMAX  =           6
   number of lm-projection operators is LMMAX =          18
 

 ----------------------------------------------------------------------------- 
|                                                                             |
|  ADVICE TO THIS USER RUNNING 'VASP/VAMP'   (HEAR YOUR MASTER'S VOICE ...):  |
|                                                                             |
|      You have a (more or less) 'large supercell' and for larger cells       |
|      it might be more efficient to use real space projection opertators     |
|      So try LREAL= Auto  in the INCAR   file.                               |
|      Mind:          For very  accurate calculation you might also keep the  |
|      reciprocal projection scheme          (i.e. LREAL=.FALSE.)             |
|                                                                             |
 ----------------------------------------------------------------------------- 


 ----------------------------------------------------------------------------- 
|                                                                             |
|  ADVICE TO THIS USER RUNNING 'VASP/VAMP'   (HEAR YOUR MASTER'S VOICE ...):  |
|                                                                             |
|      You enforced a specific xc-type in the INCAR file,                     |
|      a different type was found on the POTCAR file                          |
|          I HOPE YOU KNOW, WHAT YOU ARE  DOING                               |
|                                                                             |
 ----------------------------------------------------------------------------- 

  PAW_PBE S 06Sep2000                   :
 energy of atom  1       EATOM= -276.8230
 kinetic energy error for atom=    0.0007 (will be added to EATOM!!)
   PAW_PBE Cu_pv 06Sep2000              :
 energy of atom  2       EATOM=-4120.1201
 kinetic energy error for atom=    0.0094 (will be added to EATOM!!)
   PAW_PBE Fe_pv 02Aug2007              :
 energy of atom  3       EATOM=-2457.4239
 kinetic energy error for atom=    0.0025 (will be added to EATOM!!)
 
 
 POSCAR: Fe16 Cu16 S32                           
  positions in direct lattice
  No initial velocities read in
 exchange correlation table for  LEXCH =       14
   RHO(1)=    0.500       N(1)  =     2000
   RHO(2)=  100.500       N(2)  =     4000
 


--------------------------------------------------------------------------------------------------------


 ion  position               nearest neighbor table
   1  0.126  0.126  0.118-  37 2.25  61 2.27  41 2.28  49 2.30
   2  0.626  0.126  0.118-  38 2.25  62 2.27  42 2.28  50 2.30
   3  0.126  0.626  0.118-  39 2.25  63 2.27  43 2.28  51 2.30
   4  0.626  0.626  0.118-  40 2.25  64 2.27  44 2.28  52 2.30
   5  0.374  0.374  0.118-  39 2.25  62 2.27  41 2.28  52 2.30
   6  0.874  0.374  0.118-  40 2.25  61 2.27  42 2.28  51 2.30
   7  0.374  0.874  0.118-  37 2.25  64 2.27  43 2.28  50 2.30
   8  0.874  0.874  0.118-  38 2.25  63 2.27  44 2.28  49 2.30
   9  0.124  0.374  0.868-  41 2.25  51 2.27  45 2.28  55 2.30
  10  0.624  0.374  0.868-  42 2.25  52 2.27  46 2.28  56 2.30
  11  0.124  0.874  0.868-  43 2.25  49 2.27  47 2.28  53 2.30
  12  0.624  0.874  0.868-  44 2.25  50 2.27  48 2.28  54 2.30
  13  0.376  0.126  0.868-  41 2.25  50 2.27  46 2.28  53 2.30
  14  0.876  0.126  0.868-  42 2.25  49 2.27  45 2.28  54 2.30
  15  0.376  0.626  0.868-  43 2.25  52 2.27  48 2.28  55 2.30
  16  0.876  0.626  0.868-  44 2.25  51 2.27  47 2.28  56 2.30
  17  0.124  0.124  0.618-  45 2.25  53 2.27  33 2.28  57 2.30
  18  0.624  0.124  0.618-  46 2.25  54 2.27  34 2.28  58 2.30
  19  0.124  0.624  0.618-  47 2.25  55 2.27  35 2.28  59 2.30
  20  0.624  0.624  0.618-  48 2.25  56 2.27  36 2.28  60 2.30
  21  0.376  0.376  0.618-  46 2.25  55 2.27  36 2.28  57 2.30
  22  0.876  0.376  0.618-  45 2.25  56 2.27  35 2.28  58 2.30
  23  0.376  0.876  0.618-  48 2.25  53 2.27  34 2.28  59 2.30
  24  0.876  0.876  0.618-  47 2.25  54 2.27  33 2.28  60 2.30
  25  0.374  0.124  0.368-  34 2.25  57 2.27  37 2.28  62 2.30
  26  0.874  0.124  0.368-  33 2.25  58 2.27  38 2.28  61 2.30
  27  0.374  0.624  0.368-  36 2.25  59 2.27  39 2.28  64 2.30
  28  0.874  0.624  0.368-  35 2.25  60 2.27  40 2.28  63 2.30
  29  0.126  0.376  0.368-  35 2.25  57 2.27  39 2.28  61 2.30
  30  0.626  0.376  0.368-  36 2.25  58 2.27  40 2.28  62 2.30
  31  0.126  0.876  0.368-  33 2.25  59 2.27  37 2.28  63 2.30
  32  0.626  0.876  0.368-  34 2.25  60 2.27  38 2.28  64 2.30
  33  0.000  0.000  0.507-  26 2.25  31 2.25  17 2.28  24 2.28
  34  0.500  0.000  0.507-  25 2.25  32 2.25  18 2.28  23 2.28
  35  0.000  0.500  0.507-  28 2.25  29 2.25  19 2.28  22 2.28
  36  0.500  0.500  0.507-  27 2.25  30 2.25  20 2.28  21 2.28
  37  0.250  0.000  0.257-   1 2.25   7 2.25  25 2.28  31 2.28
  38  0.750  0.000  0.257-   2 2.25   8 2.25  26 2.28  32 2.28
  39  0.250  0.500  0.257-   3 2.25   5 2.25  27 2.28  29 2.28
  40  0.750  0.500  0.257-   4 2.25   6 2.25  28 2.28  30 2.28
  41  0.250  0.250  0.007-   9 2.25  13 2.25   1 2.28   5 2.28
  42  0.750  0.250  0.007-  10 2.25  14 2.25   2 2.28   6 2.28
  43  0.250  0.750  0.007-  11 2.25  15 2.25   3 2.28   7 2.28
  44  0.750  0.750  0.007-  12 2.25  16 2.25   4 2.28   8 2.28
  45  0.000  0.250  0.757-  17 2.25  22 2.25   9 2.28  14 2.28
  46  0.500  0.250  0.757-  18 2.25  21 2.25  10 2.28  13 2.28
  47  0.000  0.750  0.757-  19 2.25  24 2.25  11 2.28  16 2.28
  48  0.500  0.750  0.757-  20 2.25  23 2.25  12 2.28  15 2.28
  49  0.000  0.000  0.008-  11 2.27  14 2.27   1 2.30   8 2.30
  50  0.500  0.000  0.008-  12 2.27  13 2.27   2 2.30   7 2.30
  51  0.000  0.500  0.008-   9 2.27  16 2.27   3 2.30   6 2.30
  52  0.500  0.500  0.008-  10 2.27  15 2.27   4 2.30   5 2.30
  53  0.250  0.000  0.758-  17 2.27  23 2.27  11 2.30  13 2.30
  54  0.750  0.000  0.758-  18 2.27  24 2.27  12 2.30  14 2.30
  55  0.250  0.500  0.758-  19 2.27  21 2.27   9 2.30  15 2.30
  56  0.750  0.500  0.758-  20 2.27  22 2.27  10 2.30  16 2.30
  57  0.250  0.250  0.508-  25 2.27  29 2.27  17 2.30  21 2.30
  58  0.750  0.250  0.508-  26 2.27  30 2.27  18 2.30  22 2.30
  59  0.250  0.750  0.508-  27 2.27  31 2.27  19 2.30  23 2.30
  60  0.750  0.750  0.508-  28 2.27  32 2.27  20 2.30  24 2.30
  61  0.000  0.250  0.258-   1 2.27   6 2.27  26 2.30  29 2.30
  62  0.500  0.250  0.258-   2 2.27   5 2.27  25 2.30  30 2.30
  63  0.000  0.750  0.258-   3 2.27   8 2.27  28 2.30  31 2.30
  64  0.500  0.750  0.258-   4 2.27   7 2.27  27 2.30  32 2.30
 
  LATTYP: Found a base centered orthorhombic cell.
 ALAT       =    13.7895764253
 B/A-ratio  =     1.1503930537
 C/A-ratio  =     0.7573048423
  
  Lattice vectors:
  
 A1 = (  10.4839220000,   0.7332190000,   0.0000000000)
 A2 = (  -0.7332190000, -10.4839220000,   0.0000000000)
 A3 = (   0.0000000000,   0.0000000000, -10.4429130000)


Analysis of symmetry for initial positions (statically):
=====================================================================
 Subroutine PRICEL returns following result:
 
  LATTYP: Found a face centered orthorhombic cell.
 ALAT       =     6.8947882126
 B/A-ratio  =     1.1503930537
 C/A-ratio  =     1.5146096846
  
  Lattice vectors:
  
 A1 = (  -2.8042852500,  -2.8042852500,   5.2214565000)
 A2 = (  -2.4376757500,   2.4376757500,   5.2214565000)
 A3 = (  -5.2419610000,  -0.3666095000,   0.0000000000)
 
   8 primitive cells build up your supercell.
 

 Routine SETGRP: Setting up the symmetry group for a 
 base centered orthorhombic supercell.


 Subroutine GETGRP returns: Found  4 space group operations
 (whereof  2 operations were pure point group operations)
 out of a pool of  8 trial point group operations.


The static configuration has the point symmetry C_2 .
 The point group associated with its full space group is C_2v.


Analysis of symmetry for dynamics (positions and initial velocities):
=====================================================================
 Subroutine PRICEL returns following result:
 
  LATTYP: Found a face centered orthorhombic cell.
 ALAT       =     6.8947882126
 B/A-ratio  =     1.1503930537
 C/A-ratio  =     1.5146096846
  
  Lattice vectors:
  
 A1 = (  -2.8042852500,  -2.8042852500,   5.2214565000)
 A2 = (  -2.4376757500,   2.4376757500,   5.2214565000)
 A3 = (  -5.2419610000,  -0.3666095000,   0.0000000000)
 
   8 primitive cells build up your supercell.
 

 Routine SETGRP: Setting up the symmetry group for a 
 base centered orthorhombic supercell.


 Subroutine GETGRP returns: Found  4 space group operations
 (whereof  2 operations were pure point group operations)
 out of a pool of  8 trial point group operations.


The dynamic configuration has the point symmetry C_2 .
 The point group associated with its full space group is C_2v.


Analysis of structural, dynamic, and magnetic symmetry:
=====================================================================
 Subroutine PRICEL returns following result:
 
  LATTYP: Found a face centered orthorhombic cell.
 ALAT       =     6.8947882126
 B/A-ratio  =     1.1503930537
 C/A-ratio  =     1.5146096846
  
  Lattice vectors:
  
 A1 = (  -2.8042852500,  -2.8042852500,   5.2214565000)
 A2 = (  -2.4376757500,   2.4376757500,   5.2214565000)
 A3 = (  -5.2419610000,  -0.3666095000,   0.0000000000)
 
   8 primitive cells build up your supercell.
 

 Routine SETGRP: Setting up the symmetry group for a 
 base centered orthorhombic supercell.


 Subroutine GETGRP returns: Found  4 space group operations
 (whereof  2 operations were pure point group operations)
 out of a pool of  8 trial point group operations.


The magnetic configuration has the point symmetry C_2 .
 The point group associated with its full space group is C_2v.


 Subroutine INISYM returns: Found  4 space group operations
 (whereof  2 operations are pure point group operations),
 and found     8 'primitive' translations

 
 
 KPOINTS: Automatic mesh                          

Automatic generation of k-mesh.
Space group operators:
 irot       det(A)        alpha          n_x          n_y          n_z        tau_x        tau_y        tau_z
    1     1.000000     0.000001     1.000000     0.000000     0.000000     0.000000     0.000000     0.000000
    2     1.000000   180.000000     0.000000     0.000000     1.000000     0.000000     0.000000     0.000000
    3    -1.000000   180.000000     0.707107     0.707107     0.000000    -0.750000     0.000000     0.750000
    4    -1.000000   180.000000     0.707107    -0.707107     0.000000    -0.750000     0.000000     0.750000
 
 Subroutine IBZKPT returns following result:
 ===========================================
 
 Found      6 irreducible k-points:
 
 Following reciprocal coordinates:
            Coordinates               Weight
  0.000000  0.000000  0.000000      1.000000
  0.500000  0.000000  0.000000      2.000000
  0.500000  0.500000  0.000000      1.000000
  0.000000  0.000000  0.500000      1.000000
  0.500000  0.000000  0.500000      2.000000
  0.500000  0.500000  0.500000      1.000000
 
 Following cartesian coordinates:
            Coordinates               Weight
  0.000000  0.000000  0.000000      1.000000
  0.047926 -0.003352  0.000000      2.000000
  0.044575  0.044575  0.000000      1.000000
  0.000000  0.000000  0.047879      1.000000
  0.047926 -0.003352  0.047879      2.000000
  0.044575  0.044575  0.047879      1.000000
 
 TETIRR: Found     12 inequivalent tetrahedra from       48
 
 Subroutine IBZKPT_HF returns following result:
 ==============================================
 
 Found      8 k-points in 1st BZ
 the following      8 k-points will be used (e.g. in the exchange kernel)
 Following reciprocal coordinates:   # in IRBZ
  0.000000  0.000000  0.000000    0.12500000   1 t-inv F
  0.500000  0.000000  0.000000    0.12500000   2 t-inv F
  0.500000  0.500000  0.000000    0.12500000   3 t-inv F
  0.000000  0.000000  0.500000    0.12500000   4 t-inv F
  0.500000  0.000000  0.500000    0.12500000   5 t-inv F
  0.500000  0.500000  0.500000    0.12500000   6 t-inv F
  0.000000 -0.500000  0.000000    0.12500000   2 t-inv F spinflp
  0.000000 -0.500000  0.500000    0.12500000   5 t-inv F spinflp


--------------------------------------------------------------------------------------------------------




 Dimension of arrays:
   k-points           NKPTS =      6   k-points in BZ     NKDIM =      6   number of bands    NBANDS=    512
   number of dos      NEDOS =    301   number of ions     NIONS =     64
   non local maximal  LDIM  =      6   non local SUM 2l+1 LMDIM =     18
   total plane-waves  NPLWV = 829440
   max r-space proj   IRMAX =      1   max aug-charges    IRDMAX=  23075
   dimension x,y,z NGX =    96 NGY =   96 NGZ =   90
   dimension x,y,z NGXF=   192 NGYF=  192 NGZF=  180
   support grid    NGXF=   192 NGYF=  192 NGZF=  180
   ions per type =              32  16  16
   NGX,Y,Z   is equivalent  to a cutoff of  15.19, 15.19, 14.33 a.u.
   NGXF,Y,Z  is equivalent  to a cutoff of  30.37, 30.37, 28.66 a.u.

 SYSTEM =  CuFeS2                                  
 POSCAR =  Fe16 Cu16 S32                           

 Startparameter for this run:
   NWRITE =      2    write-flag & timer
   PREC   = accura    normal or accurate (medium, high low for compatibility)
   ISTART =      1    job   : 0-new  1-cont  2-samecut
   ICHARG =      1    charge: 1-file 2-atom 10-const
   ISPIN  =      2    spin polarized calculation?
   LNONCOLLINEAR =      F non collinear calculations
   LSORBIT =      F    spin-orbit coupling
   INIWAV =      1    electr: 0-lowe 1-rand  2-diag
   LASPH  =      F    aspherical Exc in radial PAW
   METAGGA=      F    non-selfconsistent MetaGGA calc.

 Electronic Relaxation 1
   ENCUT  =  700.0 eV  51.45 Ry    7.17 a.u.  22.67 22.67 22.53*2*pi/ulx,y,z
   ENINI  =  700.0     initial cutoff
   ENAUG  =  758.2 eV  augmentation charge cutoff
   NELM   =    500;   NELMIN=  2; NELMDL=  0     # of ELM steps 
   EDIFF  = 0.1E-07   stopping-criterion for ELM
   LREAL  =      F    real-space projection
   NLSPLINE    = F    spline interpolate recip. space projectors
   LCOMPAT=      F    compatible to vasp.4.4
   GGA_COMPAT  = T    GGA compatible to vasp.4.4-vasp.4.6
   LMAXPAW     = -100 max onsite density
   LMAXMIX     =    4 max onsite mixed and CHGCAR
   VOSKOWN=      0    Vosko Wilk Nusair interpolation
   ROPT   =    0.00000   0.00000   0.00000
 Ionic relaxation
   EDIFFG = -.1E-04   stopping-criterion for IOM
   NSW    =      0    number of steps for IOM
   NBLOCK =      1;   KBLOCK =      1    inner block; outer block 
   IBRION =     -1    ionic relax: 0-MD 1-quasi-New 2-CG
   NFREE  =      0    steps in history (QN), initial steepest desc. (CG)
   ISIF   =      2    stress and relaxation
   IWAVPR =     10    prediction:  0-non 1-charg 2-wave 3-comb
   ISYM   =      2    0-nonsym 1-usesym 2-fastsym
   LCORR  =      T    Harris-Foulkes like correction to forces

   POTIM  = 0.5000    time-step for ionic-motion
   TEIN   =    0.0    initial temperature
   TEBEG  =    0.0;   TEEND  =   0.0 temperature during run
   SMASS  =  -3.00    Nose mass-parameter (am)
   estimated Nose-frequenzy (Omega)   =  0.10E-29 period in steps =****** mass=  -0.252E-26a.u.
   SCALEE = 1.0000    scale energy and forces
   NPACO  =    256;   APACO  = 16.0  distance and # of slots for P.C.
   PSTRESS=    0.0 pullay stress

  Mass of Ions in am
   POMASS =  32.07 63.55 55.85
  Ionic Valenz
   ZVAL   =   6.00 17.00 14.00
  Atomic Wigner-Seitz radii
   RWIGS  =  -1.00 -1.00 -1.00
  virtual crystal weights 
   VCA    =   1.00  1.00  1.00
   NELECT =     688.0000    total number of electrons
   NUPDOWN=      -1.0000    fix difference up-down

 DOS related values:
   EMIN   =  10.00;   EMAX   =-10.00  energy-range for DOS
   EFERMI =   0.00
   ISMEAR =    -5;   SIGMA  =   0.03  broadening in eV -4-tet -1-fermi 0-gaus

 Electronic relaxation 2 (details)
   IALGO  =     38    algorithm
   LDIAG  =      T    sub-space diagonalisation (order eigenvalues)
   LSUBROT=      F    optimize rotation matrix (better conditioning)
   TURBO    =      0    0=normal 1=particle mesh
   IRESTART =      0    0=no restart 2=restart with 2 vectors
   NREBOOT  =      0    no. of reboots
   NMIN     =      0    reboot dimension
   EREF     =   0.00    reference energy to select bands
   IMIX   =      4    mixing-type and parameters
     AMIX     =   0.40;   BMIX     =  1.00
     AMIX_MAG =   1.60;   BMIX_MAG =  1.00
     AMIN     =   0.10
     WC   =   100.;   INIMIX=   1;  MIXPRE=   1;  MAXMIX= -45

 Intra band minimization:
   WEIMIN = 0.0000     energy-eigenvalue tresh-hold
   EBREAK =  0.49E-11  absolut break condition
   DEPER  =   0.30     relativ break condition  

   TIME   =   0.40     timestep for ELM

  volume/ion in A,a.u.               =      17.85       120.44
  Fermi-wavevector in a.u.,A,eV,Ry     =   1.382582  2.612702 26.008004  1.911534
  Thomas-Fermi vector in A             =   2.507260
 
 Write flags
   LWAVE        =      T    write WAVECAR
   LDOWNSAMPLE  =      F    k-point downsampling of WAVECAR
   LCHARG       =      T    write CHGCAR
   LVTOT        =      F    write LOCPOT, total local potential
   LVHAR        =      F    write LOCPOT, Hartree potential only
   LELF         =      F    write electronic localiz. function (ELF)
   LORBIT       =     11    0 simple, 1 ext, 2 COOP (PROOUT), +10 PAW based schemes


 Dipole corrections
   LMONO  =      F    monopole corrections only (constant potential shift)
   LDIPOL =      F    correct potential (dipole corrections)
   IDIPOL =      0    1-x, 2-y, 3-z, 4-all directions 
   EPSILON=  1.0000000 bulk dielectric constant

 LDA+U is selected, type is set to LDAUTYPE =  2
   angular momentum for each species LDAUL =     2    2    2
   U (eV)           for each species LDAUU =   0.0  0.1  4.7
   J (eV)           for each species LDAUJ =   0.0  0.0  0.0
 Exchange correlation treatment:
   GGA     =    PS    GGA type
   LEXCH   =    14    internal setting for exchange type
   VOSKOWN=      0    Vosko Wilk Nusair interpolation
   LHFCALC =     F    Hartree Fock is set to
   LHFONE  =     F    Hartree Fock one center treatment
   AEXX    =    0.0000 exact exchange contribution

 Linear response parameters
   LEPSILON=     F    determine dielectric tensor
   LRPA    =     F    only Hartree local field effects (RPA)
   LNABLA  =     F    use nabla operator in PAW spheres
   LVEL    =     F    velocity operator in full k-point grid
   LINTERFAST=   F  fast interpolation
   KINTER  =     0    interpolate to denser k-point grid
   CSHIFT  =0.1000    complex shift for real part using Kramers Kronig
   OMEGAMAX=  -1.0    maximum frequency
   DEG_THRESHOLD= 0.2000000E-02 threshold for treating states as degnerate
   RTIME   =   -0.100 relaxation time in fs
  (WPLASMAI=    0.000 imaginary part of plasma frequency in eV, 0.658/RTIME)
   DFIELD  = 0.0000000 0.0000000 0.0000000 field for delta impulse in time
 
 Orbital magnetization related:
   ORBITALMAG=     F  switch on orbital magnetization
   LCHIMAG   =     F  perturbation theory with respect to B field
   DQ        =  0.001000  dq finite difference perturbation B field
   LLRAUG    =     F  two centre corrections for induced B field

 PEAD related settings:
   LPEAD      =     T    switch on PEAD
   IPEAD      =     4    finite difference order for dpsi/dk
   LCALCPOL   =     T    calculate macroscopic polarization
   LCALCEPS   =     F    calculate dielectric tensor
   EFIELD_PEAD=    0.0000    0.0000    0.0000
   SKIP_EDOTP =     F
   LRPA       =     F
   SKIP_SCF   =     F


--------------------------------------------------------------------------------------------------------


 Static calculation
 charge density and potential will be updated during run
 spin polarized calculation
 Variant of blocked Davidson
 Davidson routine will perform the subspace rotation
 perform sub-space diagonalisation
    after iterative eigenvector-optimisation
 modified Broyden-mixing scheme, WC =      100.0
 initial mixing is a Kerker type mixing with AMIX =  0.4000 and BMIX =      1.0000
 Hartree-type preconditioning will be used
 using additional bands          168
 reciprocal scheme for non local part
 use partial core corrections
 calculate Harris-corrections to forces 
   (improved forces if not selfconsistent)
 use gradient corrections 
 use of overlap-Matrix (Vanderbilt PP)
 Fermi weights with tetrahedron method with Bloechl corrections


--------------------------------------------------------------------------------------------------------


  energy-cutoff  :      700.00
  volume of cell :     1142.19
      direct lattice vectors                 reciprocal lattice vectors
    10.483922000  0.733219000  0.000000000     0.095852992 -0.006703716  0.000000000
     0.733219000 10.483922000  0.000000000    -0.006703716  0.095852992  0.000000000
     0.000000000  0.000000000 10.442913000     0.000000000  0.000000000  0.095758722

  length of vectors
    10.509530465 10.509530465 10.442913000     0.096087127  0.096087127  0.095758722


 
 old parameters found on file WAVECAR:
  energy-cutoff  :      700.00
  volume of cell :     1142.19
      direct lattice vectors                 reciprocal lattice vectors
    10.483922000  0.733219000  0.000000000     0.095852992 -0.006703716  0.000000000
     0.733219000 10.483922000  0.000000000    -0.006703716  0.095852992  0.000000000
     0.000000000  0.000000000 10.442913000     0.000000000  0.000000000  0.095758722

  length of vectors

 
 k-points in units of 2pi/SCALE and weight: Automatic mesh                          
   0.00000000  0.00000000  0.00000000       0.125
   0.04792650 -0.00335186  0.00000000       0.250
   0.04457464  0.04457464  0.00000000       0.125
   0.00000000  0.00000000  0.04787936       0.125
   0.04792650 -0.00335186  0.04787936       0.250
   0.04457464  0.04457464  0.04787936       0.125
 
 k-points in reciprocal lattice and weights: Automatic mesh                          
   0.00000000  0.00000000  0.00000000       0.125
   0.50000000  0.00000000  0.00000000       0.250
   0.50000000  0.50000000  0.00000000       0.125
   0.00000000  0.00000000  0.50000000       0.125
   0.50000000  0.00000000  0.50000000       0.250
   0.50000000  0.50000000  0.50000000       0.125
 
 position of ions in fractional coordinates (direct lattice) 
   0.12601500  0.12572200  0.11750300
   0.62601500  0.12572200  0.11750300
   0.12601500  0.62572200  0.11750300
   0.62601500  0.62572200  0.11750300
   0.37398500  0.37427800  0.11750300
   0.87398500  0.37427800  0.11750300
   0.37398500  0.87427800  0.11750300
   0.87398500  0.87427800  0.11750300
   0.12427800  0.37398500  0.86750300
   0.62427800  0.37398500  0.86750300
   0.12427800  0.87398500  0.86750300
   0.62427800  0.87398500  0.86750300
   0.37572200  0.12601500  0.86750300
   0.87572200  0.12601500  0.86750300
   0.37572200  0.62601500  0.86750300
   0.87572200  0.62601500  0.86750300
   0.12398500  0.12427800  0.61750300
   0.62398500  0.12427800  0.61750300
   0.12398500  0.62427800  0.61750300
   0.62398500  0.62427800  0.61750300
   0.37601500  0.37572200  0.61750300
   0.87601500  0.37572200  0.61750300
   0.37601500  0.87572200  0.61750300
   0.87601500  0.87572200  0.61750300
   0.37427800  0.12398500  0.36750300
   0.87427800  0.12398500  0.36750300
   0.37427800  0.62398500  0.36750300
   0.87427800  0.62398500  0.36750300
   0.12572200  0.37601500  0.36750300
   0.62572200  0.37601500  0.36750300
   0.12572200  0.87601500  0.36750300
   0.62572200  0.87601500  0.36750300
   0.00000000  0.00000000  0.50655900
   0.50000000  0.00000000  0.50655900
   0.00000000  0.50000000  0.50655900
   0.50000000  0.50000000  0.50655900
   0.25000000  0.00000000  0.25655900
   0.75000000  0.00000000  0.25655900
   0.25000000  0.50000000  0.25655900
   0.75000000  0.50000000  0.25655900
   0.25000000  0.25000000  0.00655900
   0.75000000  0.25000000  0.00655900
   0.25000000  0.75000000  0.00655900
   0.75000000  0.75000000  0.00655900
   0.00000000  0.25000000  0.75655900
   0.50000000  0.25000000  0.75655900
   0.00000000  0.75000000  0.75655900
   0.50000000  0.75000000  0.75655900
   0.00000000  0.00000000  0.00843500
   0.50000000  0.00000000  0.00843500
   0.00000000  0.50000000  0.00843500
   0.50000000  0.50000000  0.00843500
   0.25000000  0.00000000  0.75843500
   0.75000000  0.00000000  0.75843500
   0.25000000  0.50000000  0.75843500
   0.75000000  0.50000000  0.75843500
   0.25000000  0.25000000  0.50843500
   0.75000000  0.25000000  0.50843500
   0.25000000  0.75000000  0.50843500
   0.75000000  0.75000000  0.50843500
   0.00000000  0.25000000  0.25843500
   0.50000000  0.25000000  0.25843500
   0.00000000  0.75000000  0.25843500
   0.50000000  0.75000000  0.25843500
 
 position of ions in cartesian coordinates  (Angst):
   1.41331319  1.41045623  1.22707361
   6.65527419  1.77706573  1.22707361
   1.77992269  6.65241723  1.22707361
   7.02188369  7.01902673  1.22707361
   4.19525731  4.19811427  1.22707361
   9.43721831  4.56472377  1.22707361
   4.56186681  9.44007527  1.22707361
   9.80382781  9.80668477  1.22707361
   1.57713377  4.01195256  9.05925836
   6.81909477  4.37856206  9.05925836
   1.94374327  9.25391356  9.05925836
   7.18570427  9.62052306  9.05925836
   4.03143673  1.59661794  9.05925836
   9.27339773  1.96322744  9.05925836
   4.39804623  6.83857894  9.05925836
   9.64000723  7.20518844  9.05925836
   1.39097206  1.39382902  6.44853011
   6.63293306  1.76043852  6.44853011
   1.75758156  6.63579002  6.44853011
   6.99954256  7.00239952  6.44853011
   4.21759844  4.21474148  6.44853011
   9.45955944  4.58135098  6.44853011
   4.58420794  9.45670248  6.44853011
   9.82616894  9.82331198  6.44853011
   4.01480952  1.57427681  3.83780186
   9.25677052  1.94088631  3.83780186
   4.38141902  6.81623781  3.83780186
   9.62338002  7.18284731  3.83780186
   1.59376098  4.03429369  3.83780186
   6.83572198  4.40090319  3.83780186
   1.96037048  9.27625469  3.83780186
   7.20233148  9.64286419  3.83780186
   0.00000000  0.00000000  5.28995157
   5.24196100  0.36660950  5.28995157
   0.36660950  5.24196100  5.28995157
   5.60857050  5.60857050  5.28995157
   2.62098050  0.18330475  2.67922332
   7.86294150  0.54991425  2.67922332
   2.98759000  5.42526575  2.67922332
   8.22955100  5.79187525  2.67922332
   2.80428525  2.80428525  0.06849507
   8.04624625  3.17089475  0.06849507
   3.17089475  8.04624625  0.06849507
   8.41285575  8.41285575  0.06849507
   0.18330475  2.62098050  7.90067982
   5.42526575  2.98759000  7.90067982
   0.54991425  7.86294150  7.90067982
   5.79187525  8.22955100  7.90067982
   0.00000000  0.00000000  0.08808597
   5.24196100  0.36660950  0.08808597
   0.36660950  5.24196100  0.08808597
   5.60857050  5.60857050  0.08808597
   2.62098050  0.18330475  7.92027072
   7.86294150  0.54991425  7.92027072
   2.98759000  5.42526575  7.92027072
   8.22955100  5.79187525  7.92027072
   2.80428525  2.80428525  5.30954247
   8.04624625  3.17089475  5.30954247
   3.17089475  8.04624625  5.30954247
   8.41285575  8.41285575  5.30954247
   0.18330475  2.62098050  2.69881422
   5.42526575  2.98759000  2.69881422
   0.54991425  7.86294150  2.69881422
   5.79187525  8.22955100  2.69881422
 


--------------------------------------------------------------------------------------------------------


 k-point  1 :   0.0000 0.0000 0.0000  plane waves:   47987
 k-point  2 :   0.5000 0.0000 0.0000  plane waves:   48068
 k-point  3 :   0.5000 0.5000 0.0000  plane waves:   48060
 k-point  4 :   0.0000 0.0000 0.5000  plane waves:   48082
 k-point  5 :   0.5000 0.0000 0.5000  plane waves:   47988
 k-point  6 :   0.5000 0.5000 0.5000  plane waves:   47948

 maximum and minimum number of plane-waves per node :     48082    47948

 maximum number of plane-waves:     48082
 maximum index in each direction: 
   IXMAX=   22   IYMAX=   22   IZMAX=   22
   IXMIN=  -23   IYMIN=  -23   IZMIN=  -23


 serial   3D FFT for wavefunctions
 parallel 3D FFT for charge:
    minimum data exchange during FFTs selected (reduces bandwidth)


 total amount of memory used by VASP MPI-rank0   299201. kBytes
=======================================================================

   base      :      30000. kBytes
   nonl-proj :     174030. kBytes
   fftplans  :       4588. kBytes
   grid      :      69719. kBytes
   one-center:       1990. kBytes
   wavefun   :      18874. kBytes
 
     INWAV:  cpu time   11.5313: real time   11.6762
 Broyden mixing: mesh for mixing (old mesh)
   NGX = 45   NGY = 45   NGZ = 45
  (NGX  =192   NGY  =192   NGZ  =180)
  gives a total of  91125 points

 initial charge density was supplied:
 number of electron     688.0000377 magnetization       0.0000000
 keeping initial charge density in first step


--------------------------------------------------------------------------------------------------------


 Maximum index for augmentation-charges          892 (set IRDMAX)


--------------------------------------------------------------------------------------------------------


 First call to EWALD:  gamma=   0.170
 Maximum number of real-space cells 3x 3x 3
 Maximum number of reciprocal cells 3x 3x 3

    FEWALD:  cpu time    0.0026: real time    0.0027


--------------------------------------- Iteration      1(   1)  ---------------------------------------


    POTLOK:  cpu time    0.3669: real time    0.4099
    SETDIJ:  cpu time    0.0145: real time    0.0147
     EDDAV:  cpu time  146.8823: real time  147.8785
 BZINTS: Fermi energy:  5.186600;688.000000 electrons
         Band energy:***********;  BLOECHL correction:  0.000000
       DOS:  cpu time    0.0034: real time    0.0035
    CHARGE:  cpu time    1.2214: real time    1.2286
    MIXING:  cpu time    0.0024: real time    0.0024
    --------------------------------------------
      LOOP:  cpu time  148.4909: real time  149.5375

 eigenvalue-minimisations  : 19712
 total energy-change (2. order) :-0.3037922E+03  (-0.1302552E+03)
 number of electron     688.0000378 magnetization       0.0000000
 augmentation part      282.9282582 magnetization       0.0000000

 Broyden mixing:
  rms(total) = 0.30657E+01    rms(broyden)= 0.30657E+01
  rms(prec ) = 0.30664E+01
  weight for this iteration     100.00

 Free energy of the ion-electron system (eV)
  ---------------------------------------------------
  alpha Z        PSCENC =      2373.63461400
  Ewald energy   TEWEN  =    -62706.02218185
  -Hartree energ DENC   =    -42801.09120988
  -exchange      EXHF   =         0.00000000
  -V(xc)+E(xc)   XCENC  =      3286.40664735
  PAW double counting   =    112112.39864523  -115803.57725857
  entropy T*S    EENTRO =         0.00000000
  eigenvalues    EBANDS =    -10785.60657954
  atomic energy  EATOM  =    114020.06510763
  Solvation  Ediel_sol  =         0.00000000
  ---------------------------------------------------
  free energy    TOTEN  =      -303.79221564 eV

  energy without entropy =     -303.79221564  energy(sigma->0) =     -303.79221564


--------------------------------------------------------------------------------------------------------




--------------------------------------- Iteration      1(   2)  ---------------------------------------


    POTLOK:  cpu time    0.1459: real time    0.1476
    SETDIJ:  cpu time    0.0133: real time    0.0134
     EDDAV:  cpu time   64.0016: real time   64.4879
 BZINTS: Fermi energy:  5.173871;688.000000 electrons
         Band energy:***********;  BLOECHL correction:  0.000000
       DOS:  cpu time    0.0032: real time    0.0033
    CHARGE:  cpu time    1.1997: real time    1.2069
    MIXING:  cpu time    0.0027: real time    0.0485
    --------------------------------------------
      LOOP:  cpu time   65.3665: real time   65.9075

 eigenvalue-minimisations  : 12288
 total energy-change (2. order) :-0.2195316E+02  (-0.2198269E+02)
 number of electron     688.0000377 magnetization       0.0000000
 augmentation part      281.7709358 magnetization       0.0000000

 Broyden mixing:
  rms(total) = 0.12483E+01    rms(broyden)= 0.12483E+01
  rms(prec ) = 0.12542E+01
  weight for this iteration     100.00

 eigenvalues of (default mixing * dielectric matrix)
  average eigenvalue GAMMA=   0.7019
  0.7019

 Free energy of the ion-electron system (eV)
  ---------------------------------------------------
  alpha Z        PSCENC =      2373.63461400
  Ewald energy   TEWEN  =    -62706.02218185
  -Hartree energ DENC   =    -42814.98782777
  -exchange      EXHF   =         0.00000000
  -V(xc)+E(xc)   XCENC  =      3287.00115382
  PAW double counting   =    114729.38093593  -118432.85486950
  entropy T*S    EENTRO =         0.00000000
  eigenvalues    EBANDS =    -10781.96230544
  atomic energy  EATOM  =    114020.06510763
  Solvation  Ediel_sol  =         0.00000000
  ---------------------------------------------------
  free energy    TOTEN  =      -325.74537320 eV

  energy without entropy =     -325.74537320  energy(sigma->0) =     -325.74537320


--------------------------------------------------------------------------------------------------------




--------------------------------------- Iteration      1(   3)  ---------------------------------------


    POTLOK:  cpu time    0.1438: real time    0.1450
    SETDIJ:  cpu time    0.0132: real time    0.0133
     EDDAV:  cpu time  146.6187: real time  147.5893
 BZINTS: Fermi energy:  5.269638;688.000000 electrons
         Band energy:***********;  BLOECHL correction:  0.000000
       DOS:  cpu time    0.0033: real time    0.0033
    CHARGE:  cpu time    1.4592: real time    1.4683
    MIXING:  cpu time    0.0018: real time    0.0029
    --------------------------------------------
      LOOP:  cpu time  148.2400: real time  149.2221

 eigenvalue-minimisations  : 19968
 total energy-change (2. order) :-0.2782796E+00  (-0.3409171E+00)
 number of electron     688.0000377 magnetization       0.0000000
 augmentation part      282.3117738 magnetization       0.0000000

 Broyden mixing:
  rms(total) = 0.91439E+00    rms(broyden)= 0.91439E+00
  rms(prec ) = 0.91834E+00
  weight for this iteration     100.00

 eigenvalues of (default mixing * dielectric matrix)
  average eigenvalue GAMMA=   0.5202
  0.5202  0.5202

 Free energy of the ion-electron system (eV)
  ---------------------------------------------------
  alpha Z        PSCENC =      2373.63461400
  Ewald energy   TEWEN  =    -62706.02218185
  -Hartree energ DENC   =    -42788.94315110
  -exchange      EXHF   =         0.00000000
  -V(xc)+E(xc)   XCENC  =      3286.38767081
  PAW double counting   =    114011.96460033  -117708.80361660
  entropy T*S    EENTRO =         0.00000000
  eigenvalues    EBANDS =    -10814.30669599
  atomic energy  EATOM  =    114020.06510763
  Solvation  Ediel_sol  =         0.00000000
  ---------------------------------------------------
  free energy    TOTEN  =      -326.02365277 eV

  energy without entropy =     -326.02365277  energy(sigma->0) =     -326.02365277


--------------------------------------------------------------------------------------------------------




--------------------------------------- Iteration      1(   4)  ---------------------------------------


    POTLOK:  cpu time    0.1607: real time    0.1620
    SETDIJ:  cpu time    0.0167: real time    0.0168
     EDDAV:  cpu time   76.7465: real time   77.3151
 BZINTS: Fermi energy:  5.263644;688.000000 electrons
         Band energy:***********;  BLOECHL correction:  0.000000
       DOS:  cpu time    0.0032: real time    0.0032
    CHARGE:  cpu time    1.1968: real time    1.2041
    MIXING:  cpu time    0.0018: real time    0.0036
    --------------------------------------------
      LOOP:  cpu time   78.1256: real time   78.7047

 eigenvalue-minimisations  : 13568
 total energy-change (2. order) : 0.1089663E-02  (-0.1331567E-01)
 number of electron     688.0000377 magnetization       0.0000000
 augmentation part      282.2222816 magnetization       0.0000000

 Broyden mixing:
  rms(total) = 0.78974E+00    rms(broyden)= 0.78974E+00
  rms(prec ) = 0.79013E+00
  weight for this iteration     100.00

 eigenvalues of (default mixing * dielectric matrix)
  average eigenvalue GAMMA=   0.5400
  0.6296  0.6296  0.3609

 Free energy of the ion-electron system (eV)
  ---------------------------------------------------
  alpha Z        PSCENC =      2373.63461400
  Ewald energy   TEWEN  =    -62706.02218185
  -Hartree energ DENC   =    -42792.11499111
  -exchange      EXHF   =         0.00000000
  -V(xc)+E(xc)   XCENC  =      3286.28227834
  PAW double counting   =    113778.98213701  -117476.03205040
  entropy T*S    EENTRO =         0.00000000
  eigenvalues    EBANDS =    -10810.81747673
  atomic energy  EATOM  =    114020.06510763
  Solvation  Ediel_sol  =         0.00000000
  ---------------------------------------------------
  free energy    TOTEN  =      -326.02256311 eV

  energy without entropy =     -326.02256311  energy(sigma->0) =     -326.02256311


--------------------------------------------------------------------------------------------------------




--------------------------------------- Iteration      1(   5)  ---------------------------------------


    POTLOK:  cpu time    0.1455: real time    0.1473
    SETDIJ:  cpu time    0.0131: real time    0.0132
     EDDAV:  cpu time  124.6172: real time  125.4504
 BZINTS: Fermi energy:  5.266506;688.000000 electrons
         Band energy:***********;  BLOECHL correction:  0.000000
       DOS:  cpu time    0.0044: real time    0.0044
    CHARGE:  cpu time    1.1977: real time    1.2060
    MIXING:  cpu time    0.0017: real time    0.0017
    --------------------------------------------
      LOOP:  cpu time  125.9796: real time  126.8230

 eigenvalue-minimisations  : 17408
 total energy-change (2. order) : 0.9903475E-04  (-0.1090028E-02)
 number of electron     688.0000377 magnetization       0.0000000
 augmentation part      282.1919723 magnetization       0.0000000

 Broyden mixing:
  rms(total) = 0.68714E+00    rms(broyden)= 0.68714E+00
  rms(prec ) = 0.68730E+00
  weight for this iteration     100.00

 eigenvalues of (default mixing * dielectric matrix)
  average eigenvalue GAMMA=   0.4488
  0.6451  0.6451  0.3540  0.1510

 Free energy of the ion-electron system (eV)
  ---------------------------------------------------
  alpha Z        PSCENC =      2373.63461400
  Ewald energy   TEWEN  =    -62706.02218185
  -Hartree energ DENC   =    -42796.64835492
  -exchange      EXHF   =         0.00000000
  -V(xc)+E(xc)   XCENC  =      3286.39646605
  PAW double counting   =    113547.47932918  -117244.03215878
  entropy T*S    EENTRO =         0.00000000
  eigenvalues    EBANDS =    -10806.89528537
  atomic energy  EATOM  =    114020.06510763
  Solvation  Ediel_sol  =         0.00000000
  ---------------------------------------------------
  free energy    TOTEN  =      -326.02246407 eV

  energy without entropy =     -326.02246407  energy(sigma->0) =     -326.02246407


--------------------------------------------------------------------------------------------------------




--------------------------------------- Iteration      1(   6)  ---------------------------------------


    POTLOK:  cpu time    0.1456: real time    0.1470
    SETDIJ:  cpu time    0.0133: real time    0.0133
     EDDAV:  cpu time  111.6769: real time  112.4327
 BZINTS: Fermi energy:  5.266209;688.000000 electrons
         Band energy:***********;  BLOECHL correction:  0.000000
       DOS:  cpu time    0.0032: real time    0.0032
    CHARGE:  cpu time    1.1965: real time    1.2045
    MIXING:  cpu time    0.0016: real time    0.0016
    --------------------------------------------
      LOOP:  cpu time  113.0370: real time  113.8024

 eigenvalue-minimisations  : 16128
 total energy-change (2. order) : 0.2283333E-03  (-0.5565987E-04)
 number of electron     688.0000377 magnetization       0.0000000
 augmentation part      282.1912585 magnetization       0.0000000

 Broyden mixing:
  rms(total) = 0.63100E+00    rms(broyden)= 0.63100E+00
  rms(prec ) = 0.63115E+00
  weight for this iteration     100.00

 eigenvalues of (default mixing * dielectric matrix)
  average eigenvalue GAMMA=   0.5967
  0.8118  0.8118  0.5094  0.5094  0.3410

 Free energy of the ion-electron system (eV)
  ---------------------------------------------------
  alpha Z        PSCENC =      2373.63461400
  Ewald energy   TEWEN  =    -62706.02218185
  -Hartree energ DENC   =    -42797.13913695
  -exchange      EXHF   =         0.00000000
  -V(xc)+E(xc)   XCENC  =      3286.39198335
  PAW double counting   =    113423.21071291  -117119.26633091
  entropy T*S    EENTRO =         0.00000000
  eigenvalues    EBANDS =    -10806.89700392
  atomic energy  EATOM  =    114020.06510763
  Solvation  Ediel_sol  =         0.00000000
  ---------------------------------------------------
  free energy    TOTEN  =      -326.02223574 eV

  energy without entropy =     -326.02223574  energy(sigma->0) =     -326.02223574


--------------------------------------------------------------------------------------------------------




--------------------------------------- Iteration      1(   7)  ---------------------------------------


    POTLOK:  cpu time    0.1438: real time    0.1475
    SETDIJ:  cpu time    0.0131: real time    0.0132
     EDDAV:  cpu time  123.9502: real time  124.7746
 BZINTS: Fermi energy:  5.266028;688.000000 electrons
         Band energy:***********;  BLOECHL correction:  0.000000
       DOS:  cpu time    0.0031: real time    0.0032
    CHARGE:  cpu time    1.1955: real time    1.2037
    MIXING:  cpu time    0.0017: real time    0.0017
    --------------------------------------------
      LOOP:  cpu time  125.3075: real time  126.1439

 eigenvalue-minimisations  : 17152
 total energy-change (2. order) : 0.7152529E-03  (-0.5282247E-04)
 number of electron     688.0000377 magnetization      -0.0000000
 augmentation part      282.2180871 magnetization      -0.0000000

 Broyden mixing:
  rms(total) = 0.48076E+00    rms(broyden)= 0.48076E+00
  rms(prec ) = 0.48085E+00
  weight for this iteration     100.00

 eigenvalues of (default mixing * dielectric matrix)
  average eigenvalue GAMMA=   0.7250
  1.1911  1.1911  0.5832  0.5832  0.4608  0.3407

 Free energy of the ion-electron system (eV)
  ---------------------------------------------------
  alpha Z        PSCENC =      2373.63461400
  Ewald energy   TEWEN  =    -62706.02218185
  -Hartree energ DENC   =    -42797.83786178
  -exchange      EXHF   =         0.00000000
  -V(xc)+E(xc)   XCENC  =      3286.38352633
  PAW double counting   =    113091.18528543  -116785.86945654
  entropy T*S    EENTRO =         0.00000000
  eigenvalues    EBANDS =    -10807.56055370
  atomic energy  EATOM  =    114020.06510763
  Solvation  Ediel_sol  =         0.00000000
  ---------------------------------------------------
  free energy    TOTEN  =      -326.02152049 eV

  energy without entropy =     -326.02152049  energy(sigma->0) =     -326.02152049


--------------------------------------------------------------------------------------------------------




--------------------------------------- Iteration      1(   8)  ---------------------------------------


    POTLOK:  cpu time    0.1420: real time    0.1451
    SETDIJ:  cpu time    0.0131: real time    0.0132
     EDDAV:  cpu time   92.8930: real time   93.5413
 BZINTS: Fermi energy:  5.265983;688.000000 electrons
         Band energy:***********;  BLOECHL correction:  0.000000
       DOS:  cpu time    0.0032: real time    0.0032
    CHARGE:  cpu time    1.1966: real time    1.2036
    MIXING:  cpu time    0.0017: real time    0.0017
    --------------------------------------------
      LOOP:  cpu time   94.2495: real time   94.9081

 eigenvalue-minimisations  : 14592
 total energy-change (2. order) : 0.3840923E-03  (-0.3879145E-04)
 number of electron     688.0000377 magnetization      -0.0000000
 augmentation part      282.2283711 magnetization      -0.0000000

 Broyden mixing:
  rms(total) = 0.30201E+00    rms(broyden)= 0.30201E+00
  rms(prec ) = 0.30211E+00
  weight for this iteration     100.00

 eigenvalues of (default mixing * dielectric matrix)
  average eigenvalue GAMMA=   0.7331
  1.3130  1.3130  0.6374  0.6374  0.4491  0.4491  0.3330

 Free energy of the ion-electron system (eV)
  ---------------------------------------------------
  alpha Z        PSCENC =      2373.63461400
  Ewald energy   TEWEN  =    -62706.02218185
  -Hartree energ DENC   =    -42799.50838534
  -exchange      EXHF   =         0.00000000
  -V(xc)+E(xc)   XCENC  =      3286.39556461
  PAW double counting   =    112707.46175558  -116400.69795192
  entropy T*S    EENTRO =         0.00000000
  eigenvalues    EBANDS =    -10807.34965910
  atomic energy  EATOM  =    114020.06510763
  Solvation  Ediel_sol  =         0.00000000
  ---------------------------------------------------
  free energy    TOTEN  =      -326.02113639 eV

  energy without entropy =     -326.02113639  energy(sigma->0) =     -326.02113639


--------------------------------------------------------------------------------------------------------




--------------------------------------- Iteration      1(   9)  ---------------------------------------


    POTLOK:  cpu time    0.1428: real time    0.1470
    SETDIJ:  cpu time    0.0131: real time    0.0132
     EDDAV:  cpu time  123.4713: real time  124.2968
 BZINTS: Fermi energy:  5.265996;688.000000 electrons
         Band energy:***********;  BLOECHL correction:  0.000000
       DOS:  cpu time    0.0031: real time    0.0032
    CHARGE:  cpu time    1.1971: real time    1.2041
    MIXING:  cpu time    0.0018: real time    0.0018
    --------------------------------------------
      LOOP:  cpu time  124.8293: real time  125.6661

 eigenvalue-minimisations  : 16896
 total energy-change (2. order) : 0.1098220E-03  (-0.6508344E-05)
 number of electron     688.0000377 magnetization       0.0000000
 augmentation part      282.2356252 magnetization       0.0000000

 Broyden mixing:
  rms(total) = 0.24333E+00    rms(broyden)= 0.24333E+00
  rms(prec ) = 0.24341E+00
  weight for this iteration     100.00

 eigenvalues of (default mixing * dielectric matrix)
  average eigenvalue GAMMA=   0.7663
  1.4526  1.4526  0.7224  0.7224  0.4993  0.4993  0.4441  0.3383

 Free energy of the ion-electron system (eV)
  ---------------------------------------------------
  alpha Z        PSCENC =      2373.63461400
  Ewald energy   TEWEN  =    -62706.02218185
  -Hartree energ DENC   =    -42799.81086446
  -exchange      EXHF   =         0.00000000
  -V(xc)+E(xc)   XCENC  =      3286.39916410
  PAW double counting   =    112590.14972861  -116282.94915488
  entropy T*S    EENTRO =         0.00000000
  eigenvalues    EBANDS =    -10807.48743973
  atomic energy  EATOM  =    114020.06510763
  Solvation  Ediel_sol  =         0.00000000
  ---------------------------------------------------
  free energy    TOTEN  =      -326.02102657 eV

  energy without entropy =     -326.02102657  energy(sigma->0) =     -326.02102657


--------------------------------------------------------------------------------------------------------




--------------------------------------- Iteration      1(  10)  ---------------------------------------


    POTLOK:  cpu time    0.1454: real time    0.1471
    SETDIJ:  cpu time    0.0131: real time    0.0132
     EDDAV:  cpu time  103.1584: real time  103.8686
 BZINTS: Fermi energy:  5.266041;688.000000 electrons
         Band energy:***********;  BLOECHL correction:  0.000000
       DOS:  cpu time    0.0032: real time    0.0032
    CHARGE:  cpu time    1.1988: real time    1.2059
    MIXING:  cpu time    0.0020: real time    0.0021
    --------------------------------------------
      LOOP:  cpu time  104.5209: real time  105.2400

 eigenvalue-minimisations  : 15360
 total energy-change (2. order) : 0.1605021E-03  (-0.2263339E-04)
 number of electron     688.0000377 magnetization       0.0000000
 augmentation part      282.2517728 magnetization       0.0000000

 Broyden mixing:
  rms(total) = 0.10734E+00    rms(broyden)= 0.10734E+00
  rms(prec ) = 0.10737E+00
  weight for this iteration     100.00

 eigenvalues of (default mixing * dielectric matrix)
  average eigenvalue GAMMA=   0.8980
  1.8608  1.8608  0.9315  0.9315  0.5886  0.5886  0.4919  0.4919  0.3362

 Free energy of the ion-electron system (eV)
  ---------------------------------------------------
  alpha Z        PSCENC =      2373.63461400
  Ewald energy   TEWEN  =    -62706.02218185
  -Hartree energ DENC   =    -42800.53944452
  -exchange      EXHF   =         0.00000000
  -V(xc)+E(xc)   XCENC  =      3286.40397997
  PAW double counting   =    112318.44712239  -116010.26525206
  entropy T*S    EENTRO =         0.00000000
  eigenvalues    EBANDS =    -10807.74481163
  atomic energy  EATOM  =    114020.06510763
  Solvation  Ediel_sol  =         0.00000000
  ---------------------------------------------------
  free energy    TOTEN  =      -326.02086607 eV

  energy without entropy =     -326.02086607  energy(sigma->0) =     -326.02086607


--------------------------------------------------------------------------------------------------------




--------------------------------------- Iteration      1(  11)  ---------------------------------------


    POTLOK:  cpu time    0.1458: real time    0.1480
    SETDIJ:  cpu time    0.0132: real time    0.0133
     EDDAV:  cpu time  124.5508: real time  125.3881
 BZINTS: Fermi energy:  5.266032;688.000000 electrons
         Band energy:***********;  BLOECHL correction:  0.000000
       DOS:  cpu time    0.0032: real time    0.0032
    CHARGE:  cpu time    1.1974: real time    1.2044
    MIXING:  cpu time    0.0020: real time    0.0020
    --------------------------------------------
      LOOP:  cpu time  125.9124: real time  126.7589

 eigenvalue-minimisations  : 16640
 total energy-change (2. order) : 0.2347221E-04  (-0.2945676E-05)
 number of electron     688.0000377 magnetization       0.0000000
 augmentation part      282.2571488 magnetization       0.0000000

 Broyden mixing:
  rms(total) = 0.60894E-01    rms(broyden)= 0.60894E-01
  rms(prec ) = 0.60910E-01
  weight for this iteration     100.00

 eigenvalues of (default mixing * dielectric matrix)
  average eigenvalue GAMMA=   0.9380
  2.1184  2.1184  0.9884  0.9884  0.6488  0.6488  0.3366  0.5194  0.5194  0.4936

 Free energy of the ion-electron system (eV)
  ---------------------------------------------------
  alpha Z        PSCENC =      2373.63461400
  Ewald energy   TEWEN  =    -62706.02218185
  -Hartree energ DENC   =    -42800.72361553
  -exchange      EXHF   =         0.00000000
  -V(xc)+E(xc)   XCENC  =      3286.40508705
  PAW double counting   =    112230.31286823  -115921.85632982
  entropy T*S    EENTRO =         0.00000000
  eigenvalues    EBANDS =    -10807.83639229
  atomic energy  EATOM  =    114020.06510763
  Solvation  Ediel_sol  =         0.00000000
  ---------------------------------------------------
  free energy    TOTEN  =      -326.02084260 eV

  energy without entropy =     -326.02084260  energy(sigma->0) =     -326.02084260


--------------------------------------------------------------------------------------------------------




--------------------------------------- Iteration      1(  12)  ---------------------------------------


    POTLOK:  cpu time    0.1463: real time    0.1475
    SETDIJ:  cpu time    0.0133: real time    0.0133
     EDDAV:  cpu time  114.7515: real time  115.5225
 BZINTS: Fermi energy:  5.266081;688.000000 electrons
         Band energy:***********;  BLOECHL correction:  0.000000
       DOS:  cpu time    0.0032: real time    0.0032
    CHARGE:  cpu time    1.2174: real time    1.2248
    MIXING:  cpu time    0.0021: real time    0.0028
    --------------------------------------------
      LOOP:  cpu time  116.1337: real time  116.9140

 eigenvalue-minimisations  : 16128
 total energy-change (2. order) : 0.9736323E-05  (-0.6926887E-06)
 number of electron     688.0000377 magnetization       0.0000000
 augmentation part      282.2585720 magnetization       0.0000000

 Broyden mixing:
  rms(total) = 0.32341E-01    rms(broyden)= 0.32341E-01
  rms(prec ) = 0.32351E-01
  weight for this iteration     100.00

 eigenvalues of (default mixing * dielectric matrix)
  average eigenvalue GAMMA=   1.0286
  2.5281  2.5281  1.1319  1.1319  0.7690  0.7690  0.5585  0.5585  0.3365  0.5013
  0.5013

 Free energy of the ion-electron system (eV)
  ---------------------------------------------------
  alpha Z        PSCENC =      2373.63461400
  Ewald energy   TEWEN  =    -62706.02218185
  -Hartree energ DENC   =    -42800.87128377
  -exchange      EXHF   =         0.00000000
  -V(xc)+E(xc)   XCENC  =      3286.40859015
  PAW double counting   =    112179.06671388  -115870.48020354
  entropy T*S    EENTRO =         0.00000000
  eigenvalues    EBANDS =    -10807.82218936
  atomic energy  EATOM  =    114020.06510763
  Solvation  Ediel_sol  =         0.00000000
  ---------------------------------------------------
  free energy    TOTEN  =      -326.02083286 eV

  energy without entropy =     -326.02083286  energy(sigma->0) =     -326.02083286


--------------------------------------------------------------------------------------------------------




--------------------------------------- Iteration      1(  13)  ---------------------------------------


    POTLOK:  cpu time    0.1459: real time    0.1469
    SETDIJ:  cpu time    0.0131: real time    0.0132
     EDDAV:  cpu time  114.9077: real time  115.6825
 BZINTS: Fermi energy:  5.266091;688.000000 electrons
         Band energy:***********;  BLOECHL correction:  0.000000
       DOS:  cpu time    0.0031: real time    0.0032
    CHARGE:  cpu time    1.1860: real time    1.1929
    MIXING:  cpu time    0.0023: real time    0.0023
    --------------------------------------------
      LOOP:  cpu time  116.2581: real time  117.0409

 eigenvalue-minimisations  : 16128
 total energy-change (2. order) : 0.6717339E-05  (-0.5831007E-06)
 number of electron     688.0000377 magnetization      -0.0000000
 augmentation part      282.2610593 magnetization      -0.0000000

 Broyden mixing:
  rms(total) = 0.83542E-02    rms(broyden)= 0.83542E-02
  rms(prec ) = 0.83593E-02
  weight for this iteration     100.00

 eigenvalues of (default mixing * dielectric matrix)
  average eigenvalue GAMMA=   1.1524
  3.0022  3.0022  1.3860  1.3860  0.8983  0.8983  0.3365  0.6315  0.6315  0.5523
  0.5523  0.5519

 Free energy of the ion-electron system (eV)
  ---------------------------------------------------
  alpha Z        PSCENC =      2373.63461400
  Ewald energy   TEWEN  =    -62706.02218185
  -Hartree energ DENC   =    -42801.00871351
  -exchange      EXHF   =         0.00000000
  -V(xc)+E(xc)   XCENC  =      3286.40959526
  PAW double counting   =    112130.69969908  -115821.94702411
  entropy T*S    EENTRO =         0.00000000
  eigenvalues    EBANDS =    -10807.85192265
  atomic energy  EATOM  =    114020.06510763
  Solvation  Ediel_sol  =         0.00000000
  ---------------------------------------------------
  free energy    TOTEN  =      -326.02082614 eV

  energy without entropy =     -326.02082614  energy(sigma->0) =     -326.02082614


--------------------------------------------------------------------------------------------------------




--------------------------------------- Iteration      1(  14)  ---------------------------------------


    POTLOK:  cpu time    0.1456: real time    0.1470
    SETDIJ:  cpu time    0.0131: real time    0.0132
     EDDAV:  cpu time  122.0556: real time  122.8735
 BZINTS: Fermi energy:  5.266096;688.000000 electrons
         Band energy:***********;  BLOECHL correction:  0.000000
       DOS:  cpu time    0.0032: real time    0.0032
    CHARGE:  cpu time    1.1978: real time    1.2056
    MIXING:  cpu time    0.0021: real time    0.0021
    --------------------------------------------
      LOOP:  cpu time  123.4174: real time  124.2446

 eigenvalue-minimisations  : 17152
 total energy-change (2. order) : 0.1276712E-05  (-0.1372506E-06)
 number of electron     688.0000377 magnetization      -0.0000000
 augmentation part      282.2622338 magnetization      -0.0000000

 Broyden mixing:
  rms(total) = 0.11356E-02    rms(broyden)= 0.11356E-02
  rms(prec ) = 0.11369E-02
  weight for this iteration     100.00

 eigenvalues of (default mixing * dielectric matrix)
  average eigenvalue GAMMA=   1.1925
  3.0991  3.0991  1.5514  1.5514  1.0144  1.0144  0.3365  0.7464  0.7464  0.5767
  0.5767  0.5949  0.5949

 Free energy of the ion-electron system (eV)
  ---------------------------------------------------
  alpha Z        PSCENC =      2373.63461400
  Ewald energy   TEWEN  =    -62706.02218185
  -Hartree energ DENC   =    -42801.04608407
  -exchange      EXHF   =         0.00000000
  -V(xc)+E(xc)   XCENC  =      3286.40953555
  PAW double counting   =    112115.26334349  -115806.45646931
  entropy T*S    EENTRO =         0.00000000
  eigenvalues    EBANDS =    -10807.86869030
  atomic energy  EATOM  =    114020.06510763
  Solvation  Ediel_sol  =         0.00000000
  ---------------------------------------------------
  free energy    TOTEN  =      -326.02082487 eV

  energy without entropy =     -326.02082487  energy(sigma->0) =     -326.02082487


--------------------------------------------------------------------------------------------------------




--------------------------------------- Iteration      1(  15)  ---------------------------------------


    POTLOK:  cpu time    0.1432: real time    0.1468
    SETDIJ:  cpu time    0.0130: real time    0.0131
     EDDAV:  cpu time  117.8411: real time  118.6256
 BZINTS: Fermi energy:  5.266098;688.000000 electrons
         Band energy:***********;  BLOECHL correction:  0.000000
       DOS:  cpu time    0.0032: real time    0.0032
    CHARGE:  cpu time    1.1886: real time    1.1957
    MIXING:  cpu time    0.0023: real time    0.0023
    --------------------------------------------
      LOOP:  cpu time  119.1913: real time  119.9867

 eigenvalue-minimisations  : 16384
 total energy-change (2. order) : 0.2081943E-06  (-0.1812219E-07)
 number of electron     688.0000377 magnetization       0.0000000
 augmentation part      282.2624934 magnetization       0.0000000

 Broyden mixing:
  rms(total) = 0.32276E-03    rms(broyden)= 0.32276E-03
  rms(prec ) = 0.32649E-03
  weight for this iteration     100.00

 eigenvalues of (default mixing * dielectric matrix)
  average eigenvalue GAMMA=   1.1744
  3.0518  3.0518  1.6147  1.6147  1.0678  1.0678  0.7990  0.7990  0.3365  0.5796
  0.5796  0.6461  0.6461  0.5870

 Free energy of the ion-electron system (eV)
  ---------------------------------------------------
  alpha Z        PSCENC =      2373.63461400
  Ewald energy   TEWEN  =    -62706.02218185
  -Hartree energ DENC   =    -42801.05210002
  -exchange      EXHF   =         0.00000000
  -V(xc)+E(xc)   XCENC  =      3286.40932120
  PAW double counting   =    112112.13410294  -115803.31931442
  entropy T*S    EENTRO =         0.00000000
  eigenvalues    EBANDS =    -10807.87037413
  atomic energy  EATOM  =    114020.06510763
  Solvation  Ediel_sol  =         0.00000000
  ---------------------------------------------------
  free energy    TOTEN  =      -326.02082466 eV

  energy without entropy =     -326.02082466  energy(sigma->0) =     -326.02082466


--------------------------------------------------------------------------------------------------------




--------------------------------------- Iteration      1(  16)  ---------------------------------------


    POTLOK:  cpu time    0.1471: real time    0.1479
    SETDIJ:  cpu time    0.0132: real time    0.0133
     EDDAV:  cpu time   94.4005: real time   95.0412
 BZINTS: Fermi energy:  5.266096;688.000000 electrons
         Band energy:***********;  BLOECHL correction:  0.000000
       DOS:  cpu time    0.0032: real time    0.0032
    CHARGE:  cpu time    1.1972: real time    1.2043
    MIXING:  cpu time    0.0025: real time    0.0025
    --------------------------------------------
      LOOP:  cpu time   95.7636: real time   96.4123

 eigenvalue-minimisations  : 13824
 total energy-change (2. order) :-0.1599255E-07  (-0.2522159E-08)
 number of electron     688.0000377 magnetization      -0.0000000
 augmentation part      282.2623926 magnetization      -0.0000000

 Broyden mixing:
  rms(total) = 0.38614E-04    rms(broyden)= 0.38613E-04
  rms(prec ) = 0.40442E-04
  weight for this iteration     100.00

 eigenvalues of (default mixing * dielectric matrix)
  average eigenvalue GAMMA=   1.1769
  2.8078  2.8078  1.8242  1.8242  1.1790  1.1790  0.9252  0.9252  0.3365  0.5773
  0.5773  0.7279  0.7279  0.6170  0.6170

 Free energy of the ion-electron system (eV)
  ---------------------------------------------------
  alpha Z        PSCENC =      2373.63461400
  Ewald energy   TEWEN  =    -62706.02218185
  -Hartree energ DENC   =    -42801.05156283
  -exchange      EXHF   =         0.00000000
  -V(xc)+E(xc)   XCENC  =      3286.40927514
  PAW double counting   =    112112.75939598  -115803.94701881
  entropy T*S    EENTRO =         0.00000000
  eigenvalues    EBANDS =    -10807.86845393
  atomic energy  EATOM  =    114020.06510763
  Solvation  Ediel_sol  =         0.00000000
  ---------------------------------------------------
  free energy    TOTEN  =      -326.02082468 eV

  energy without entropy =     -326.02082468  energy(sigma->0) =     -326.02082468


--------------------------------------------------------------------------------------------------------




--------------------------------------- Iteration      1(  17)  ---------------------------------------


    POTLOK:  cpu time    0.1448: real time    0.1462
    SETDIJ:  cpu time    0.0132: real time    0.0133
     EDDAV:  cpu time   77.3619: real time   77.8943
 BZINTS: Fermi energy:  5.266096;688.000000 electrons
         Band energy:***********;  BLOECHL correction:  0.000000
       DOS:  cpu time    0.0031: real time    0.0032
    --------------------------------------------
      LOOP:  cpu time   77.5231: real time   78.0570

 eigenvalue-minimisations  : 10752
 total energy-change (2. order) : 0.6883056E-08  (-0.1372716E-09)
 number of electron     688.0000377 magnetization      -0.0000000
 augmentation part      282.2623926 magnetization      -0.0000000

 Free energy of the ion-electron system (eV)
  ---------------------------------------------------
  alpha Z        PSCENC =      2373.63461400
  Ewald energy   TEWEN  =    -62706.02218185
  -Hartree energ DENC   =    -42801.05144240
  -exchange      EXHF   =         0.00000000
  -V(xc)+E(xc)   XCENC  =      3286.40928820
  PAW double counting   =    112112.96372198  -115804.15153696
  entropy T*S    EENTRO =         0.00000000
  eigenvalues    EBANDS =    -10807.86839526
  atomic energy  EATOM  =    114020.06510763
  Solvation  Ediel_sol  =         0.00000000
  ---------------------------------------------------
  free energy    TOTEN  =      -326.02082467 eV

  energy without entropy =     -326.02082467  energy(sigma->0) =     -326.02082467


--------------------------------------------------------------------------------------------------------




 average (electrostatic) potential at core
  the test charge radii are     0.9698  0.8297  0.9500
  (the norm of the test charge is              1.0000)
       1 -86.5280       2 -86.5280       3 -86.5280       4 -86.5280       5 -86.5280
       6 -86.5280       7 -86.5280       8 -86.5280       9 -86.5280      10 -86.5280
      11 -86.5280      12 -86.5280      13 -86.5280      14 -86.5280      15 -86.5280
      16 -86.5280      17 -86.5280      18 -86.5280      19 -86.5280      20 -86.5280
      21 -86.5280      22 -86.5280      23 -86.5280      24 -86.5280      25 -86.5280
      26 -86.5280      27 -86.5280      28 -86.5280      29 -86.5280      30 -86.5280
      31 -86.5280      32 -86.5280      33 -80.6266      34 -80.6266      35 -80.6266
      36 -80.6266      37 -80.6266      38 -80.6266      39 -80.6266      40 -80.6266
      41 -80.6266      42 -80.6266      43 -80.6266      44 -80.6266      45 -80.6266
      46 -80.6266      47 -80.6266      48 -80.6266      49 -80.1070      50 -80.1070
      51 -80.1070      52 -80.1070      53 -80.1070      54 -80.1070      55 -80.1070
[...]
   -.414E+02 0.110E+01 0.429E+02   0.422E+02 -.106E+01 -.433E+02   -.817E+00 -.381E-01 0.393E+00   -.431E-04 -.102E-05 -.328E-06
   -.414E+02 0.110E+01 0.429E+02   0.422E+02 -.106E+01 -.433E+02   -.817E+00 -.381E-01 0.393E+00   -.431E-04 -.102E-05 -.328E-06
   -.414E+02 0.110E+01 0.429E+02   0.422E+02 -.106E+01 -.433E+02   -.817E+00 -.381E-01 0.393E+00   -.431E-04 -.102E-05 -.328E-06
   -.414E+02 0.110E+01 0.429E+02   0.422E+02 -.106E+01 -.433E+02   -.817E+00 -.381E-01 0.393E+00   -.431E-04 -.102E-05 -.328E-06
   0.414E+02 -.110E+01 0.429E+02   -.422E+02 0.106E+01 -.433E+02   0.817E+00 0.381E-01 0.393E+00   0.431E-04 0.102E-05 -.328E-06
   0.414E+02 -.110E+01 0.429E+02   -.422E+02 0.106E+01 -.433E+02   0.817E+00 0.381E-01 0.393E+00   0.431E-04 0.102E-05 -.328E-06
   0.414E+02 -.110E+01 0.429E+02   -.422E+02 0.106E+01 -.433E+02   0.817E+00 0.381E-01 0.393E+00   0.431E-04 0.102E-05 -.328E-06
   0.414E+02 -.110E+01 0.429E+02   -.422E+02 0.106E+01 -.433E+02   0.817E+00 0.381E-01 0.393E+00   0.431E-04 0.102E-05 -.328E-06
   0.110E+01 -.414E+02 0.429E+02   -.106E+01 0.422E+02 -.433E+02   -.381E-01 -.817E+00 0.393E+00   -.102E-05 -.431E-04 -.328E-06
   0.110E+01 -.414E+02 0.429E+02   -.106E+01 0.422E+02 -.433E+02   -.381E-01 -.817E+00 0.393E+00   -.102E-05 -.431E-04 -.328E-06
   0.110E+01 -.414E+02 0.429E+02   -.106E+01 0.422E+02 -.433E+02   -.381E-01 -.817E+00 0.393E+00   -.102E-05 -.431E-04 -.328E-06
   0.110E+01 -.414E+02 0.429E+02   -.106E+01 0.422E+02 -.433E+02   -.381E-01 -.817E+00 0.393E+00   -.102E-05 -.431E-04 -.328E-06
   -.110E+01 0.414E+02 0.429E+02   0.106E+01 -.422E+02 -.433E+02   0.381E-01 0.817E+00 0.393E+00   0.102E-05 0.431E-04 -.328E-06
   -.110E+01 0.414E+02 0.429E+02   0.106E+01 -.422E+02 -.433E+02   0.381E-01 0.817E+00 0.393E+00   0.102E-05 0.431E-04 -.328E-06
   -.110E+01 0.414E+02 0.429E+02   0.106E+01 -.422E+02 -.433E+02   0.381E-01 0.817E+00 0.393E+00   0.102E-05 0.431E-04 -.328E-06
   -.110E+01 0.414E+02 0.429E+02   0.106E+01 -.422E+02 -.433E+02   0.381E-01 0.817E+00 0.393E+00   0.102E-05 0.431E-04 -.328E-06
   -.214E-06 -.105E-06 -.503E+02   -.817E-13 0.497E-13 0.483E+02   0.672E-25 -.120E-24 0.202E+01   -.232E-11 -.271E-12 -.215E-04
   -.214E-06 -.105E-06 -.503E+02   -.110E-12 0.000E+00 0.483E+02   0.323E-25 -.155E-24 0.202E+01   0.194E-11 -.579E-12 -.215E-04
   -.214E-06 -.105E-06 -.503E+02   -.110E-12 0.639E-13 0.483E+02   0.767E-25 0.485E-25 0.202E+01   -.208E-11 0.361E-12 -.215E-04
   -.214E-06 -.105E-06 -.503E+02   -.959E-13 0.568E-13 0.483E+02   0.586E-26 0.355E-25 0.202E+01   0.161E-11 -.419E-13 -.215E-04
   -.105E-06 -.214E-06 -.503E+02   -.568E-13 -.284E-12 0.483E+02   -.838E-26 0.565E-25 0.202E+01   -.316E-12 0.140E-12 -.215E-04
   -.105E-06 -.214E-06 -.503E+02   -.853E-13 -.270E-12 0.483E+02   0.139E-24 0.388E-25 0.202E+01   0.267E-12 -.409E-12 -.215E-04
   -.105E-06 -.214E-06 -.503E+02   -.128E-12 -.284E-12 0.483E+02   -.331E-25 -.103E-24 0.202E+01   -.418E-12 0.345E-13 -.215E-04
   -.105E-06 -.214E-06 -.503E+02   -.568E-13 -.227E-12 0.483E+02   -.759E-25 0.113E-25 0.202E+01   0.325E-12 0.508E-12 -.215E-04
   -.214E-06 -.105E-06 -.503E+02   -.924E-13 0.115E-12 0.483E+02   -.969E-26 0.129E-24 0.202E+01   -.531E-12 0.452E-13 -.215E-04
   -.214E-06 -.105E-06 -.503E+02   -.121E-12 0.108E-12 0.483E+02   -.727E-26 -.258E-25 0.202E+01   0.962E-13 -.143E-14 -.215E-04
   -.214E-06 -.105E-06 -.503E+02   -.114E-12 0.480E-13 0.483E+02   -.250E-25 0.646E-25 0.202E+01   -.520E-12 -.341E-12 -.215E-04
   -.214E-06 -.105E-06 -.503E+02   -.114E-12 0.817E-13 0.483E+02   0.735E-25 0.646E-25 0.202E+01   0.134E-12 -.298E-12 -.215E-04
   -.105E-06 -.214E-06 -.503E+02   -.727E-13 -.172E-12 0.483E+02   -.210E-25 0.517E-25 0.202E+01   0.310E-12 -.275E-12 -.215E-04
   -.105E-06 -.214E-06 -.503E+02   -.704E-13 -.172E-12 0.483E+02   0.228E-24 -.452E-25 0.202E+01   -.477E-12 -.437E-13 -.215E-04
   -.105E-06 -.214E-06 -.503E+02   -.115E-12 -.156E-12 0.483E+02   -.557E-25 0.323E-25 0.202E+01   0.583E-12 0.208E-12 -.215E-04
   -.105E-06 -.214E-06 -.503E+02   -.142E-12 -.170E-12 0.483E+02   0.175E-24 -.804E-25 0.202E+01   -.718E-12 0.123E-12 -.215E-04
   0.558E-07 -.199E-07 -.407E+02   0.234E-12 0.284E-13 0.383E+02   0.485E-26 0.000E+00 0.235E+01   0.174E-11 -.287E-12 -.308E-04
   0.558E-07 -.199E-07 -.407E+02   0.234E-12 -.568E-13 0.383E+02   -.178E-25 0.388E-25 0.235E+01   -.169E-11 -.100E-13 -.308E-04
   0.558E-07 -.199E-07 -.407E+02   0.167E-12 -.639E-13 0.383E+02   -.172E-26 0.242E-25 0.235E+01   0.179E-11 0.430E-13 -.308E-04
   0.558E-07 -.199E-07 -.407E+02   0.224E-12 -.426E-13 0.383E+02   -.145E-25 -.194E-25 0.235E+01   -.170E-11 0.308E-12 -.308E-04
   -.199E-07 0.558E-07 -.407E+02   0.604E-13 -.782E-13 0.383E+02   -.226E-25 0.323E-25 0.235E+01   -.550E-12 -.381E-12 -.308E-04
   -.199E-07 0.558E-07 -.407E+02   0.853E-13 -.497E-13 0.383E+02   0.808E-27 0.258E-25 0.235E+01   0.506E-12 -.223E-12 -.308E-04
   -.199E-07 0.558E-07 -.407E+02   0.391E-13 -.320E-13 0.383E+02   0.545E-26 -.646E-26 0.235E+01   -.494E-12 0.185E-12 -.308E-04
   -.199E-07 0.558E-07 -.407E+02   0.675E-13 -.888E-13 0.383E+02   0.202E-26 -.258E-25 0.235E+01   0.311E-12 -.507E-13 -.308E-04
   0.558E-07 -.199E-07 -.407E+02   0.224E-12 0.320E-13 0.383E+02   -.485E-26 -.388E-25 0.235E+01   -.372E-12 -.286E-12 -.308E-04
   0.558E-07 -.198E-07 -.407E+02   0.295E-12 0.320E-13 0.383E+02   0.355E-25 0.388E-25 0.235E+01   0.630E-12 -.658E-12 -.308E-04
   0.558E-07 -.199E-07 -.407E+02   0.213E-12 0.103E-12 0.383E+02   -.525E-26 -.226E-25 0.235E+01   -.557E-12 0.358E-12 -.308E-04
   0.558E-07 -.199E-07 -.407E+02   0.227E-12 0.462E-13 0.383E+02   -.202E-25 0.517E-25 0.235E+01   0.569E-12 0.493E-12 -.308E-04
   -.199E-07 0.558E-07 -.407E+02   0.112E-12 -.106E-13 0.383E+02   -.210E-25 -.129E-25 0.235E+01   -.196E-12 -.349E-12 -.308E-04
   -.199E-07 0.558E-07 -.407E+02   0.124E-12 -.109E-13 0.383E+02   0.929E-25 0.808E-26 0.235E+01   0.349E-13 -.392E-12 -.308E-04
   -.199E-07 0.558E-07 -.407E+02   0.929E-13 0.497E-13 0.383E+02   -.131E-25 0.646E-26 0.235E+01   -.595E-12 0.133E-15 -.308E-04
   -.199E-07 0.558E-07 -.407E+02   0.119E-12 0.565E-13 0.383E+02   -.406E-25 -.646E-26 0.235E+01   0.441E-12 0.605E-13 -.308E-04
 -----------------------------------------------------------------------------------------------
   -.225E-05 -.225E-05 -.825E+02   -.198E-12 -.231E-12 0.853E-13   -.228E-14 0.555E-15 0.824E+02   -.668E-12 -.205E-11 -.847E-03
 
 
 POSITION                                       TOTAL-FORCE (eV/Angst)
 -----------------------------------------------------------------------------------
      1.41331      1.41046      1.22707         0.001521     -0.001597     -0.015384
      6.65527      1.77707      1.22707         0.001521     -0.001597     -0.015384
      1.77992      6.65242      1.22707         0.001521     -0.001597     -0.015384
      7.02188      7.01903      1.22707         0.001521     -0.001597     -0.015384
      4.19526      4.19811      1.22707        -0.001521      0.001597     -0.015384
      9.43722      4.56472      1.22707        -0.001521      0.001597     -0.015384
      4.56187      9.44008      1.22707        -0.001521      0.001597     -0.015384
      9.80383      9.80668      1.22707        -0.001521      0.001597     -0.015384
      1.57713      4.01195      9.05926         0.001597     -0.001521     -0.015384
      6.81909      4.37856      9.05926         0.001597     -0.001521     -0.015384
      1.94374      9.25391      9.05926         0.001597     -0.001521     -0.015384
      7.18570      9.62052      9.05926         0.001597     -0.001521     -0.015384
      4.03144      1.59662      9.05926        -0.001597      0.001521     -0.015384
      9.27340      1.96323      9.05926        -0.001597      0.001521     -0.015384
      4.39805      6.83858      9.05926        -0.001597      0.001521     -0.015384
      9.64001      7.20519      9.05926        -0.001597      0.001521     -0.015384
      1.39097      1.39383      6.44853        -0.001521      0.001597     -0.015384
      6.63293      1.76044      6.44853        -0.001521      0.001597     -0.015384
      1.75758      6.63579      6.44853        -0.001521      0.001597     -0.015384
      6.99954      7.00240      6.44853        -0.001521      0.001597     -0.015384
      4.21760      4.21474      6.44853         0.001521     -0.001597     -0.015384
      9.45956      4.58135      6.44853         0.001521     -0.001597     -0.015384
      4.58421      9.45670      6.44853         0.001521     -0.001597     -0.015384
      9.82617      9.82331      6.44853         0.001521     -0.001597     -0.015384
      4.01481      1.57428      3.83780         0.001597     -0.001521     -0.015384
      9.25677      1.94089      3.83780         0.001597     -0.001521     -0.015384
      4.38142      6.81624      3.83780         0.001597     -0.001521     -0.015384
      9.62338      7.18285      3.83780         0.001597     -0.001521     -0.015384
      1.59376      4.03429      3.83780        -0.001597      0.001521     -0.015384
      6.83572      4.40090      3.83780        -0.001597      0.001521     -0.015384
      1.96037      9.27625      3.83780        -0.001597      0.001521     -0.015384
      7.20233      9.64286      3.83780        -0.001597      0.001521     -0.015384
      0.00000      0.00000      5.28995         0.000000      0.000000      0.009965
      5.24196      0.36661      5.28995         0.000000      0.000000      0.009965
      0.36661      5.24196      5.28995         0.000000      0.000000      0.009965
      5.60857      5.60857      5.28995         0.000000      0.000000      0.009965
      2.62098      0.18330      2.67922         0.000000      0.000000      0.009965
      7.86294      0.54991      2.67922         0.000000      0.000000      0.009965
      2.98759      5.42527      2.67922         0.000000      0.000000      0.009965
      8.22955      5.79188      2.67922         0.000000      0.000000      0.009965
      2.80429      2.80429      0.06850         0.000000      0.000000      0.009965
      8.04625      3.17089      0.06850         0.000000      0.000000      0.009965
      3.17089      8.04625      0.06850         0.000000      0.000000      0.009965
      8.41286      8.41286      0.06850         0.000000      0.000000      0.009965
      0.18330      2.62098      7.90068         0.000000      0.000000      0.009965
      5.42527      2.98759      7.90068         0.000000      0.000000      0.009965
      0.54991      7.86294      7.90068         0.000000      0.000000      0.009965
      5.79188      8.22955      7.90068         0.000000      0.000000      0.009965
      0.00000      0.00000      0.08809         0.000000      0.000000      0.020804
      5.24196      0.36661      0.08809         0.000000      0.000000      0.020804
      0.36661      5.24196      0.08809         0.000000      0.000000      0.020804
      5.60857      5.60857      0.08809         0.000000      0.000000      0.020804
      2.62098      0.18330      7.92027         0.000000      0.000000      0.020804
      7.86294      0.54991      7.92027         0.000000      0.000000      0.020804
      2.98759      5.42527      7.92027         0.000000      0.000000      0.020804
      8.22955      5.79188      7.92027         0.000000      0.000000      0.020804
      2.80429      2.80429      5.30954         0.000000      0.000000      0.020804
      8.04625      3.17089      5.30954         0.000000      0.000000      0.020804
      3.17089      8.04625      5.30954         0.000000      0.000000      0.020804
      8.41286      8.41286      5.30954         0.000000      0.000000      0.020804
      0.18330      2.62098      2.69881         0.000000      0.000000      0.020804
      5.42527      2.98759      2.69881         0.000000      0.000000      0.020804
      0.54991      7.86294      2.69881         0.000000      0.000000      0.020804
      5.79188      8.22955      2.69881         0.000000      0.000000      0.020804
 -----------------------------------------------------------------------------------
    total drift:                               -0.000002     -0.000002     -0.035639


--------------------------------------------------------------------------------------------------------



  FREE ENERGIE OF THE ION-ELECTRON SYSTEM (eV)
  ---------------------------------------------------
  free  energy   TOTEN  =      -326.02082467 eV

  energy  without entropy=     -326.02082467  energy(sigma->0) =     -326.02082467
 


--------------------------------------------------------------------------------------------------------


    POTLOK:  cpu time    0.1546: real time    0.1553


--------------------------------------------------------------------------------------------------------


 writing wavefunctions
     LOOP+:  cpu time 2028.4614: real time 2289.9001
    4ORBIT:  cpu time    0.0000: real time    0.0000
 


 total charge     
 
# of ion       s       p       d       tot
------------------------------------------
    1        1.316   2.404   0.000   3.720
    2        1.316   2.404   0.000   3.720
    3        1.316   2.404   0.000   3.720
    4        1.316   2.404   0.000   3.720
    5        1.316   2.404   0.000   3.720
    6        1.316   2.404   0.000   3.720
    7        1.316   2.404   0.000   3.720
    8        1.316   2.404   0.000   3.720
    9        1.316   2.404   0.000   3.720
   10        1.316   2.404   0.000   3.720
   11        1.316   2.404   0.000   3.720
   12        1.316   2.404   0.000   3.720
   13        1.316   2.404   0.000   3.720
   14        1.316   2.404   0.000   3.720
   15        1.316   2.404   0.000   3.720
   16        1.316   2.404   0.000   3.720
   17        1.316   2.404   0.000   3.720
   18        1.316   2.404   0.000   3.720
   19        1.316   2.404   0.000   3.720
   20        1.316   2.404   0.000   3.720
   21        1.316   2.404   0.000   3.720
   22        1.316   2.404   0.000   3.720
   23        1.316   2.404   0.000   3.720
   24        1.316   2.404   0.000   3.720
   25        1.316   2.404   0.000   3.720
   26        1.316   2.404   0.000   3.720
   27        1.316   2.404   0.000   3.720
   28        1.316   2.404   0.000   3.720
   29        1.316   2.404   0.000   3.720
   30        1.316   2.404   0.000   3.720
   31        1.316   2.404   0.000   3.720
   32        1.316   2.404   0.000   3.720
   33        0.258   6.200   8.916  15.374
   34        0.258   6.200   8.916  15.374
   35        0.258   6.200   8.916  15.374
   36        0.258   6.200   8.916  15.374
   37        0.257   6.200   8.917  15.374
   38        0.257   6.200   8.917  15.374
   39        0.257   6.200   8.917  15.374
   40        0.257   6.200   8.917  15.374
   41        0.258   6.200   8.916  15.374
   42        0.258   6.200   8.916  15.374
   43        0.258   6.200   8.916  15.374
   44        0.258   6.200   8.916  15.374
   45        0.257   6.200   8.917  15.374
   46        0.257   6.200   8.917  15.374
   47        0.257   6.200   8.917  15.374
   48        0.257   6.200   8.917  15.374
   49        0.345   6.343   5.824  12.513
   50        0.345   6.343   5.824  12.513
   51        0.345   6.343   5.824  12.513
   52        0.345   6.343   5.824  12.513
   53        0.345   6.343   5.825  12.513
   54        0.345   6.343   5.825  12.513
   55        0.345   6.343   5.825  12.513
   56        0.345   6.343   5.825  12.513
   57        0.345   6.343   5.824  12.513
   58        0.345   6.343   5.824  12.513
   59        0.345   6.343   5.824  12.513
   60        0.345   6.343   5.824  12.513
   61        0.345   6.343   5.825  12.513
   62        0.345   6.343   5.825  12.513
   63        0.345   6.343   5.825  12.513
   64        0.345   6.343   5.825  12.513
--------------------------------------------------
tot         51.743 277.624 235.853 565.220
 


 magnetization (x)
 
# of ion       s       p       d       tot
------------------------------------------
    1       -0.002  -0.034   0.000  -0.036
    2       -0.002  -0.034   0.000  -0.036
    3       -0.002  -0.034   0.000  -0.036
    4       -0.002  -0.034   0.000  -0.036
    5       -0.002  -0.034   0.000  -0.036
    6       -0.002  -0.034   0.000  -0.036
    7       -0.002  -0.034   0.000  -0.036
    8       -0.002  -0.034   0.000  -0.036
    9        0.002   0.035   0.000   0.036
   10        0.002   0.035   0.000   0.036
   11        0.002   0.035   0.000   0.036
   12        0.002   0.035   0.000   0.036
   13        0.002   0.035   0.000   0.036
   14        0.002   0.035   0.000   0.036
   15        0.002   0.035   0.000   0.036
   16        0.002   0.035   0.000   0.036
   17       -0.002  -0.034   0.000  -0.036
   18       -0.002  -0.034   0.000  -0.036
   19       -0.002  -0.034   0.000  -0.036
   20       -0.002  -0.034   0.000  -0.036
   21       -0.002  -0.034   0.000  -0.036
   22       -0.002  -0.034   0.000  -0.036
   23       -0.002  -0.034   0.000  -0.036
   24       -0.002  -0.034   0.000  -0.036
   25        0.002   0.035   0.000   0.036
   26        0.002   0.035   0.000   0.036
   27        0.002   0.035   0.000   0.036
   28        0.002   0.035   0.000   0.036
   29        0.002   0.035   0.000   0.036
   30        0.002   0.035   0.000   0.036
   31        0.002   0.035   0.000   0.036
   32        0.002   0.035   0.000   0.036
   33       -0.000  -0.001   0.006   0.005
   34       -0.000  -0.001   0.006   0.005
   35       -0.000  -0.001   0.006   0.005
   36       -0.000  -0.001   0.006   0.005
   37        0.000   0.001  -0.007  -0.006
   38        0.000   0.001  -0.007  -0.006
   39        0.000   0.001  -0.007  -0.006
   40        0.000   0.001  -0.007  -0.006
   41       -0.000  -0.001   0.006   0.005
   42       -0.000  -0.001   0.006   0.005
   43       -0.000  -0.001   0.006   0.005
   44       -0.000  -0.001   0.006   0.005
   45        0.000   0.001  -0.007  -0.006
   46        0.000   0.001  -0.007  -0.006
   47        0.000   0.001  -0.007  -0.006
   48        0.000   0.001  -0.007  -0.006
   49        0.020   0.052   3.666   3.738
   50        0.020   0.052   3.666   3.738
   51        0.020   0.052   3.666   3.738
   52        0.020   0.052   3.666   3.738
   53       -0.020  -0.052  -3.665  -3.738
   54       -0.020  -0.052  -3.665  -3.738
   55       -0.020  -0.052  -3.665  -3.738
   56       -0.020  -0.052  -3.665  -3.738
   57        0.020   0.052   3.666   3.738
   58        0.020   0.052   3.666   3.738
   59        0.020   0.052   3.666   3.738
   60        0.020   0.052   3.666   3.738
   61       -0.020  -0.052  -3.665  -3.738
   62       -0.020  -0.052  -3.665  -3.738
   63       -0.020  -0.052  -3.665  -3.738
   64       -0.020  -0.052  -3.665  -3.738
--------------------------------------------------
tot         -0.002   0.002  -0.002  -0.002
 
 BZINTS: Fermi energy:  5.266096;688.000000 electrons
         Band energy:***********;  BLOECHL correction:  0.000000

 total amount of memory used by VASP MPI-rank0   299201. kBytes
=======================================================================

   base      :      30000. kBytes
   nonl-proj :     174030. kBytes
   fftplans  :       4588. kBytes
   grid      :      69719. kBytes
   one-center:       1990. kBytes
   wavefun   :      18874. kBytes
 
  
  
 General timing and accounting informations for this job:
 ========================================================
  
                  Total CPU time used (sec):     2076.406
                            User time (sec):     2064.406
                          System time (sec):       12.000
                         Elapsed time (sec):     2340.970
  
                   Maximum memory used (kb):      671584.
                   Average memory used (kb):           0.
  
                          Minor page faults:       295235
                          Major page faults:         5578
                 Voluntary context switches:         7723
