 vasp.5.4.4.18Apr17-6-g9f103f2a35 (build Oct 30 2023 17:30:16) complex          
  
 executed on             LinuxIFC date 2024.04.10  07:09:51
 running on  256 total cores
 distrk:  each k-point on  256 cores,    1 groups
 distr:  one band on NCORES_PER_BAND=   1 cores,  256 groups


--------------------------------------------------------------------------------------------------------


 INCAR:
 POTCAR:    PAW_PBE S 06Sep2000                   
 POTCAR:     PAW_PBE Cu_pv 06Sep2000              
 POTCAR:     PAW_PBE Fe_pv 02Aug2007              

 ----------------------------------------------------------------------------- 
|                                                                             |
|           W    W    AA    RRRRR   N    N  II  N    N   GGGG   !!!           |
|           W    W   A  A   R    R  NN   N  II  NN   N  G    G  !!!           |
|           W    W  A    A  R    R  N N  N  II  N N  N  G       !!!           |
|           W WW W  AAAAAA  RRRRR   N  N N  II  N  N N  G  GGG   !            |
|           WW  WW  A    A  R   R   N   NN  II  N   NN  G    G                |
|           W    W  A    A  R    R  N    N  II  N    N   GGGG   !!!           |
|                                                                             |
|      For optimal performance we recommend to set                            |
|        NCORE= 4 - approx SQRT( number of cores)                             |
|      NCORE specifies how many cores store one orbital (NPAR=cpu/NCORE).     |
|      This setting can  greatly improve the performance of VASP for DFT.     |
|      The default,   NCORE=1            might be grossly inefficient         |
|      on modern multi-core architectures or massively parallel machines.     |
|      Do your own testing !!!!                                               |
|      Unfortunately you need to use the default for GW and RPA calculations. |
|      (for HF NCORE is supported but not extensively tested yet)             |
|                                                                             |
 ----------------------------------------------------------------------------- 

 POTCAR:    PAW_PBE S 06Sep2000                   
   SHA256 =  0fc7481fb0695f01bdc6462160264c5c84044ae9ec85a907d398b887a2bc3132 S/
   COPYR  = (c) Copyright 06Sep2000 Georg Kresse                                
   COPYR  = This file is part of the software VASP. Any use, copying, and all ot
   COPYR  = If you do not have a valid VASP license, you may not use, copy or di
   VRHFIN =S : s2p4                                                             
   LEXCH  = PE                                                                  
   EATOM  =   276.8230 eV,   20.3459 Ry                                         
                                                                                
   TITEL  = PAW_PBE S 06Sep2000                                                 
   LULTRA =        F    use ultrasoft PP ?                                      
   IUNSCR =        1    unscreen: 0-lin 1-nonlin 2-no                           
   RPACOR =    1.500    partial core radius                                     
   POMASS =   32.066; ZVAL   =    6.000    mass and valenz                      
   RCORE  =    1.900    outmost cutoff radius                                   
   RWIGS  =    2.200; RWIGS  =    1.164    wigner-seitz radius (au A)           
   ENMAX  =  258.689; ENMIN  =  194.016 eV                                      
   ICORE  =        2    local potential                                         
   LCOR   =        T    correct aug charges                                     
   LPAW   =        T    paw PP                                                  
   EAUG   =  335.092                                                            
   DEXC   =    0.000                                                            
   RMAX   =    1.942    core radius for proj-oper                               
   RAUG   =    1.300    factor for augmentation sphere                          
   RDEP   =    1.954    radius for radial grids                                 
   RDEPT  =    1.744    core radius for aug-charge                              
                                                                                
   Atomic configuration                                                         
    6 entries                                                                   
     n  l   j            E        occ.                                          
     1  0  0.50     -2405.8406   2.0000                                         
     2  0  0.50      -211.7007   2.0000                                         
     2  1  1.50      -156.4958   6.0000                                         
     3  0  0.50       -17.2562   2.0000                                         
     3  1  0.50        -7.0085   4.0000                                         
     3  2  1.50        -6.8029   0.0000                                         
   Description                                                                  
     l       E           TYP  RCUT    TYP  RCUT                                 
     0    -17.2561641     23  1.900                                             
     0    -15.8743224     23  1.900                                             
     1     -7.0085400     23  1.900                                             
     1     -2.7779785     23  1.900                                             
     2     -6.8029130     23  1.900                                             
  local pseudopotential read in
  partial core-charges read in
  partial kinetic energy density read in
  atomic valenz-charges read in
  non local Contribution for L=           0  read in
    real space projection operators read in
  non local Contribution for L=           0  read in
    real space projection operators read in
  non local Contribution for L=           1  read in
    real space projection operators read in
  non local Contribution for L=           1  read in
    real space projection operators read in
    PAW grid and wavefunctions read in
 
   number of l-projection  operators is LMAX  =           4
   number of lm-projection operators is LMMAX =           8
 
 POTCAR:     PAW_PBE Cu_pv 06Sep2000              
   SHA256 =  cb7b504e2ea725fe1f25c85a9ac77d4012ce94cd394135b722c4e25ec297f1cb Cu
   COPYR  = (c) Copyright 06Sep2000 Georg Kresse                                
   COPYR  = This file is part of the software VASP. Any use, copying, and all ot
   COPYR  = If you do not have a valid VASP license, you may not use, copy or di
   VRHFIN =Cu: d10 p1                                                           
   LEXCH  = PE                                                                  
   EATOM  =  4120.1201 eV,  302.8203 Ry                                         
                                                                                
   TITEL  = PAW_PBE Cu_pv 06Sep2000                                             
   LULTRA =        F    use ultrasoft PP ?                                      
   IUNSCR =        1    unscreen: 0-lin 1-nonlin 2-no                           
   RPACOR =    1.500    partial core radius                                     
   POMASS =   63.546; ZVAL   =   17.000    mass and valenz                      
   RCORE  =    2.000    outmost cutoff radius                                   
   RWIGS  =    2.000; RWIGS  =    1.058    wigner-seitz radius (au A)           
   ENMAX  =  368.648; ENMIN  =  276.486 eV                                      
   RCLOC  =    1.304    cutoff for local pot                                    
   LCOR   =        T    correct aug charges                                     
   LPAW   =        T    paw PP                                                  
   EAUG   =  758.233                                                            
   DEXC   =    0.000                                                            
   RMAX   =    2.046    core radius for proj-oper                               
   RAUG   =    1.300    factor for augmentation sphere                          
   RDEP   =    2.025    radius for radial grids                                 
   RDEPT  =    1.558    core radius for aug-charge                              
                                                                                
   Atomic configuration                                                         
    8 entries                                                                   
     n  l   j            E        occ.                                          
     1  0  0.50     -8850.2467   2.0000                                         
     2  0  0.50     -1062.3498   2.0000                                         
     2  1  1.50      -916.8226   6.0000                                         
     3  0  0.50      -114.6929   2.0000                                         
     3  1  1.50       -72.1325   6.0000                                         
     3  2  2.50        -5.0394  10.0000                                         
     4  0  0.50        -4.6097   1.0000                                         
     4  3  2.50        -1.3606   0.0000                                         
   Description                                                                  
     l       E           TYP  RCUT    TYP  RCUT                                 
     1    -72.1324777     23  1.700                                             
     1     -1.3605826     23  1.700                                             
     2     -5.0393776     23  2.000                                             
     2     -6.3999602     23  2.000                                             
     0     -4.6097062     23  1.800                                             
     0     14.1620818     23  1.800                                             
  local pseudopotential read in
  partial core-charges read in
  partial kinetic energy density read in
  atomic valenz-charges read in
  non local Contribution for L=           1  read in
    real space projection operators read in
  non local Contribution for L=           1  read in
    real space projection operators read in
  non local Contribution for L=           2  read in
    real space projection operators read in
  non local Contribution for L=           2  read in
    real space projection operators read in
  non local Contribution for L=           0  read in
    real space projection operators read in
  non local Contribution for L=           0  read in
    real space projection operators read in
    PAW grid and wavefunctions read in
 
   number of l-projection  operators is LMAX  =           6
   number of lm-projection operators is LMMAX =          18
 
 POTCAR:     PAW_PBE Fe_pv 02Aug2007              
   SHA256 =  5d22e414b1f82158bf2c7ecb8b97b28fd0923e48cadc1c3bf74d524558f5dd32 Fe
   COPYR  = (c) Copyright 02Aug2007 Georg Kresse                                
   COPYR  = This file is part of the software VASP. Any use, copying, and all ot
   COPYR  = If you do not have a valid VASP license, you may not use, copy or di
   VRHFIN =Fe:  3pd7s1                                                          
   LEXCH  = PE                                                                  
   EATOM  =  2457.4239 eV,  180.6156 Ry                                         
                                                                                
   TITEL  = PAW_PBE Fe_pv 02Aug2007                                             
   LULTRA =        F    use ultrasoft PP ?                                      
   IUNSCR =        1    unscreen: 0-lin 1-nonlin 2-no                           
   RPACOR =    1.750    partial core radius                                     
   POMASS =   55.847; ZVAL   =   14.000    mass and valenz                      
   RCORE  =    2.200    outmost cutoff radius                                   
   RWIGS  =    2.200; RWIGS  =    1.164    wigner-seitz radius (au A)           
   ENMAX  =  293.238; ENMIN  =  219.928 eV                                      
   ICORE  =        3    local potential                                         
   LCOR   =        T    correct aug charges                                     
   LPAW   =        T    paw PP                                                  
   EAUG   =  578.342                                                            
   DEXC   =    0.000                                                            
   RMAX   =    2.249    core radius for proj-oper                               
   RAUG   =    1.300    factor for augmentation sphere                          
   RDEP   =    2.296    radius for radial grids                                 
   RDEPT  =    1.766    core radius for aug-charge                              
                                                                                
   Atomic configuration                                                         
    8 entries                                                                   
     n  l   j            E        occ.                                          
     1  0  0.50     -6993.8440   2.0000                                         
     2  0  0.50      -814.6047   2.0000                                         
     2  1  1.50      -693.3689   6.0000                                         
     3  0  0.50       -89.4732   2.0000                                         
     3  1  1.50       -55.6373   6.0000                                         
     3  2  2.50        -3.8151   7.0000                                         
     4  0  0.50        -4.2551   1.0000                                         
     4  3  2.50        -1.3606   0.0000                                         
   Description                                                                  
     l       E           TYP  RCUT    TYP  RCUT                                 
     1    -55.6372668     23  2.000                                             
     1     -5.4423304     23  2.000                                             
     2     -3.8151096     23  2.200                                             
     2     -5.1756922     23  2.200                                             
     0     -4.2550951     23  2.200                                             
     0     27.2116520     23  2.200                                             
     3     -1.3605826     23  2.200                                             
  local pseudopotential read in
  partial core-charges read in
  partial kinetic energy density read in
  atomic valenz-charges read in
  non local Contribution for L=           1  read in
    real space projection operators read in
  non local Contribution for L=           1  read in
    real space projection operators read in
  non local Contribution for L=           2  read in
    real space projection operators read in
  non local Contribution for L=           2  read in
    real space projection operators read in
  non local Contribution for L=           0  read in
    real space projection operators read in
  non local Contribution for L=           0  read in
    real space projection operators read in
    PAW grid and wavefunctions read in
 
   number of l-projection  operators is LMAX  =           6
   number of lm-projection operators is LMMAX =          18
 

 ----------------------------------------------------------------------------- 
|                                                                             |
|  ADVICE TO THIS USER RUNNING 'VASP/VAMP'   (HEAR YOUR MASTER'S VOICE ...):  |
|                                                                             |
|      You have a (more or less) 'large supercell' and for larger cells       |
|      it might be more efficient to use real space projection opertators     |
|      So try LREAL= Auto  in the INCAR   file.                               |
|      Mind:          For very  accurate calculation you might also keep the  |
|      reciprocal projection scheme          (i.e. LREAL=.FALSE.)             |
|                                                                             |
 ----------------------------------------------------------------------------- 


 ----------------------------------------------------------------------------- 
|                                                                             |
|  ADVICE TO THIS USER RUNNING 'VASP/VAMP'   (HEAR YOUR MASTER'S VOICE ...):  |
|                                                                             |
|      You enforced a specific xc-type in the INCAR file,                     |
|      a different type was found on the POTCAR file                          |
|          I HOPE YOU KNOW, WHAT YOU ARE  DOING                               |
|                                                                             |
 ----------------------------------------------------------------------------- 

  PAW_PBE S 06Sep2000                   :
 energy of atom  1       EATOM= -276.8230
 kinetic energy error for atom=    0.0007 (will be added to EATOM!!)
   PAW_PBE Cu_pv 06Sep2000              :
 energy of atom  2       EATOM=-4120.1201
 kinetic energy error for atom=    0.0094 (will be added to EATOM!!)
   PAW_PBE Fe_pv 02Aug2007              :
 energy of atom  3       EATOM=-2457.4239
 kinetic energy error for atom=    0.0025 (will be added to EATOM!!)
 
 
 POSCAR: generated by phonopy                    
  positions in direct lattice
  velocities in cartesian coordinates
 exchange correlation table for  LEXCH =       14
   RHO(1)=    0.500       N(1)  =     2000
   RHO(2)=  100.500       N(2)  =     4000
 


--------------------------------------------------------------------------------------------------------


 ion  position               nearest neighbor table
   1  0.126  0.124  0.125-  41 2.26  37 2.26  61 2.27  49 2.28
   2  0.626  0.124  0.125-  42 2.26  38 2.26  62 2.27  50 2.28
   3  0.126  0.624  0.125-  43 2.26  39 2.26  63 2.27  51 2.28
   4  0.626  0.624  0.125-  44 2.26  40 2.26  64 2.27  52 2.28
   5  0.374  0.374  0.125-  39 2.26  41 2.26  52 2.27  62 2.28
   6  0.874  0.374  0.125-  40 2.26  42 2.26  51 2.27  61 2.28
   7  0.374  0.874  0.125-  37 2.26  43 2.26  50 2.27  64 2.28
   8  0.874  0.874  0.125-  38 2.26  44 2.26  49 2.27  63 2.28
   9  0.125  0.373  0.875-  41 2.26  45 2.26  51 2.27  55 2.27
  10  0.625  0.373  0.875-  42 2.26  46 2.26  52 2.27  56 2.27
  11  0.125  0.873  0.875-  43 2.26  47 2.26  49 2.27  53 2.27
  12  0.625  0.873  0.875-  44 2.26  48 2.26  50 2.27  54 2.27
  13  0.375  0.125  0.875-  41 2.26  46 2.26  50 2.28  53 2.28
  14  0.875  0.125  0.875-  42 2.26  45 2.26  49 2.28  54 2.28
  15  0.375  0.625  0.875-  43 2.26  48 2.26  52 2.28  55 2.28
  16  0.875  0.625  0.875-  44 2.26  47 2.26  51 2.28  56 2.28
  17  0.124  0.124  0.625-  45 2.26  33 2.26  57 2.27  53 2.28
  18  0.624  0.124  0.625-  46 2.26  34 2.26  58 2.27  54 2.28
  19  0.124  0.624  0.625-  47 2.26  35 2.26  59 2.27  55 2.28
  20  0.624  0.624  0.625-  48 2.26  36 2.26  60 2.27  56 2.28
  21  0.376  0.374  0.625-  36 2.26  46 2.26  55 2.27  57 2.28
  22  0.876  0.374  0.625-  35 2.26  45 2.26  56 2.27  58 2.28
  23  0.376  0.874  0.625-  34 2.26  48 2.26  53 2.27  59 2.28
  24  0.876  0.874  0.625-  33 2.26  47 2.26  54 2.27  60 2.28
  25  0.375  0.123  0.375-  37 2.26  34 2.26  57 2.27  62 2.27
  26  0.875  0.123  0.375-  38 2.26  33 2.26  58 2.27  61 2.27
  27  0.375  0.623  0.375-  39 2.26  36 2.26  59 2.27  64 2.27
  28  0.875  0.623  0.375-  40 2.26  35 2.26  60 2.27  63 2.27
  29  0.125  0.375  0.375-  39 2.26  35 2.26  57 2.28  61 2.28
  30  0.625  0.375  0.375-  40 2.26  36 2.26  58 2.28  62 2.28
  31  0.125  0.875  0.375-  37 2.26  33 2.26  59 2.28  63 2.28
  32  0.625  0.875  0.375-  38 2.26  34 2.26  60 2.28  64 2.28
  33  1.000  0.001  0.500-  24 2.26  31 2.26  26 2.26  17 2.26
  34  0.500  0.001  0.500-  23 2.26  32 2.26  25 2.26  18 2.26
  35  1.000  0.501  0.500-  22 2.26  29 2.26  28 2.26  19 2.26
  36  0.500  0.501  0.500-  21 2.26  30 2.26  27 2.26  20 2.26
  37  0.250  0.001  0.250-   7 2.26  31 2.26  25 2.26   1 2.26
  38  0.750  0.001  0.250-   8 2.26  32 2.26  26 2.26   2 2.26
  39  0.250  0.501  0.250-   5 2.26  29 2.26  27 2.26   3 2.26
  40  0.750  0.501  0.250-   6 2.26  30 2.26  28 2.26   4 2.26
  41  0.250  0.251  1.000-   1 2.26  13 2.26   9 2.26   5 2.26
  42  0.750  0.251  1.000-   2 2.26  14 2.26  10 2.26   6 2.26
  43  0.250  0.751  1.000-   3 2.26  15 2.26  11 2.26   7 2.26
  44  0.750  0.751  1.000-   4 2.26  16 2.26  12 2.26   8 2.26
  45  0.000  0.251  0.750-  17 2.26  14 2.26   9 2.26  22 2.26
  46  0.500  0.251  0.750-  18 2.26  13 2.26  10 2.26  21 2.26
  47  0.000  0.751  0.750-  19 2.26  16 2.26  11 2.26  24 2.26
  48  0.500  0.751  0.750-  20 2.26  15 2.26  12 2.26  23 2.26
  49  1.000  0.001  0.000-   8 2.27  11 2.27  14 2.28   1 2.28
  50  0.500  0.001  0.000-   7 2.27  12 2.27  13 2.28   2 2.28
  51  1.000  0.501  0.000-   6 2.27   9 2.27  16 2.28   3 2.28
  52  0.500  0.501  0.000-   5 2.27  10 2.27  15 2.28   4 2.28
  53  0.250  0.001  0.750-  23 2.27  11 2.27  13 2.28  17 2.28
  54  0.750  0.001  0.750-  24 2.27  12 2.27  14 2.28  18 2.28
  55  0.250  0.501  0.750-  21 2.27   9 2.27  15 2.28  19 2.28
  56  0.750  0.501  0.750-  22 2.27  10 2.27  16 2.28  20 2.28
  57  0.250  0.251  0.500-  17 2.27  25 2.27  29 2.28  21 2.28
  58  0.750  0.251  0.500-  18 2.27  26 2.27  30 2.28  22 2.28
  59  0.250  0.751  0.500-  19 2.27  27 2.27  31 2.28  23 2.28
  60  0.750  0.751  0.500-  20 2.27  28 2.27  32 2.28  24 2.28
  61  0.000  0.251  0.250-   1 2.27  26 2.27  29 2.28   6 2.28
  62  0.500  0.251  0.250-   2 2.27  25 2.27  30 2.28   5 2.28
  63  0.000  0.751  0.250-   3 2.27  28 2.27  31 2.28   8 2.28
  64  0.500  0.751  0.250-   4 2.27  27 2.27  32 2.28   7 2.28
 
  LATTYP: Found a simple monoclinic cell.
 ALAT       =    14.9262235713
 B/A-ratio  =     0.7045462579
 C/A-ratio  =     1.5737276212
 COS(beta)  =    -0.9500150391
  
  Lattice vectors:
  
 A1 = ( -10.6976294055,   0.0000000000, -10.4092687161)
 A2 = (   0.0000000000, -10.5162149617,   0.0000000000)
 A3 = (  10.8793238668,   0.0000000000,  20.8185374322)


Analysis of symmetry for initial positions (statically):
=====================================================================
 Subroutine PRICEL returns following result:
 
  LATTYP: Found a base centered monoclinic cell.
 ALAT       =    11.5810803850
 B/A-ratio  =     0.4540256441
 C/A-ratio  =     0.8989536376
 COS(beta)  =    -0.8113226473
  
  Lattice vectors:
  
 A1 = (  -2.5381365054,  -2.6290537404,   5.2046343580)
 A2 = (  -2.5381365054,   2.6290537404,   5.2046343580)
 A3 = (  -0.1816944613,   0.0000000000, -10.4092687161)
 
   8 primitive cells build up your supercell.
 

 Routine SETGRP: Setting up the symmetry group for a 
 simple monoclinic supercell.


 Subroutine GETGRP returns: Found  2 space group operations
 (whereof  1 operations were pure point group operations)
 out of a pool of  4 trial point group operations.


The static configuration has the point symmetry C_1 .
 The point group associated with its full space group is C_2 .


Analysis of symmetry for dynamics (positions and initial velocities):
=====================================================================
 Subroutine PRICEL returns following result:
 
  LATTYP: Found a base centered monoclinic cell.
 ALAT       =    11.5810803850
 B/A-ratio  =     0.4540256441
 C/A-ratio  =     0.8989536376
 COS(beta)  =    -0.8113226473
  
  Lattice vectors:
  
 A1 = (  -2.5381365054,  -2.6290537404,   5.2046343580)
 A2 = (  -2.5381365054,   2.6290537404,   5.2046343580)
 A3 = (  -0.1816944613,   0.0000000000, -10.4092687161)
 
   8 primitive cells build up your supercell.
 

 Routine SETGRP: Setting up the symmetry group for a 
 simple monoclinic supercell.


 Subroutine GETGRP returns: Found  2 space group operations
 (whereof  1 operations were pure point group operations)
 out of a pool of  4 trial point group operations.


The dynamic configuration has the point symmetry C_1 .
 The point group associated with its full space group is C_2 .


Analysis of structural, dynamic, and magnetic symmetry:
=====================================================================
 Subroutine PRICEL returns following result:
 
  LATTYP: Found a base centered monoclinic cell.
 ALAT       =    11.5810803850
 B/A-ratio  =     0.4540256441
 C/A-ratio  =     0.8989536376
 COS(beta)  =    -0.8113226473
  
  Lattice vectors:
  
 A1 = (  -2.5381365054,  -2.6290537404,   5.2046343580)
 A2 = (  -2.5381365054,   2.6290537404,   5.2046343580)
 A3 = (  -0.1816944613,   0.0000000000, -10.4092687161)
 
   8 primitive cells build up your supercell.
 

 Routine SETGRP: Setting up the symmetry group for a 
 simple monoclinic supercell.


 Subroutine GETGRP returns: Found  2 space group operations
 (whereof  1 operations were pure point group operations)
 out of a pool of  4 trial point group operations.


The magnetic configuration has the point symmetry C_1 .
 The point group associated with its full space group is C_2 .


 Subroutine INISYM returns: Found  2 space group operations
 (whereof  1 operations are pure point group operations),
 and found     8 'primitive' translations

 
 
 KPOINTS: Automatic mesh                          

Automatic generation of k-mesh.
Space group operators:
 irot       det(A)        alpha          n_x          n_y          n_z        tau_x        tau_y        tau_z
    1     1.000000     0.000000     1.000000     0.000000     0.000000     0.000000     0.000000     0.000000
    2     1.000000   180.000000     0.000000     1.000000     0.000000    -0.250000     0.000000    -0.250000
 
 Subroutine IBZKPT returns following result:
 ===========================================
 
 Found     30 irreducible k-points:
 
 Following reciprocal coordinates:
            Coordinates               Weight
  0.000000  0.000000  0.000000      1.000000
  0.250000  0.000000 -0.000000      2.000000
  0.500000  0.000000 -0.000000      1.000000
  0.000000  0.250000  0.000000      2.000000
  0.250000  0.250000 -0.000000      4.000000
  0.500000  0.250000 -0.000000      2.000000
  0.000000  0.500000  0.000000      1.000000
  0.250000  0.500000 -0.000000      2.000000
  0.500000  0.500000 -0.000000      1.000000
  0.000000  0.000000  0.250000      2.000000
  0.250000  0.000000  0.250000      2.000000
  0.500000  0.000000  0.250000      2.000000
 -0.250000  0.000000  0.250000      2.000000
  0.000000  0.250000  0.250000      4.000000
  0.250000  0.250000  0.250000      4.000000
  0.500000  0.250000  0.250000      4.000000
 -0.250000  0.250000  0.250000      4.000000
  0.000000  0.500000  0.250000      2.000000
  0.250000  0.500000  0.250000      2.000000
  0.500000  0.500000  0.250000      2.000000
 -0.250000  0.500000  0.250000      2.000000
  0.000000  0.000000  0.500000      1.000000
  0.250000  0.000000  0.500000      2.000000
  0.500000  0.000000  0.500000      1.000000
  0.000000  0.250000  0.500000      2.000000
  0.250000  0.250000  0.500000      4.000000
  0.500000  0.250000  0.500000      2.000000
  0.000000  0.500000  0.500000      1.000000
  0.250000  0.500000  0.500000      2.000000
  0.500000  0.500000  0.500000      1.000000
 
 Following cartesian coordinates:
            Coordinates               Weight
  0.000000  0.000000  0.000000      1.000000
  0.023773  0.000000 -0.000415      2.000000
  0.047547  0.000000 -0.000830      1.000000
  0.000000  0.023773  0.000000      2.000000
  0.023773  0.023773 -0.000415      4.000000
  0.047547  0.023773 -0.000830      2.000000
  0.000000  0.047546  0.000000      1.000000
  0.023773  0.047546 -0.000415      2.000000
  0.047547  0.047546 -0.000830      1.000000
  0.000000  0.000000  0.024017      2.000000
  0.023773  0.000000  0.023602      2.000000
  0.047547  0.000000  0.023187      2.000000
 -0.023773  0.000000  0.024432      2.000000
  0.000000  0.023773  0.024017      4.000000
  0.023773  0.023773  0.023602      4.000000
  0.047547  0.023773  0.023187      4.000000
 -0.023773  0.023773  0.024432      4.000000
  0.000000  0.047546  0.024017      2.000000
  0.023773  0.047546  0.023602      2.000000
  0.047547  0.047546  0.023187      2.000000
 -0.023773  0.047546  0.024432      2.000000
  0.000000  0.000000  0.048034      1.000000
  0.023773  0.000000  0.047619      2.000000
  0.047547  0.000000  0.047204      1.000000
  0.000000  0.023773  0.048034      2.000000
  0.023773  0.023773  0.047619      4.000000
  0.047547  0.023773  0.047204      2.000000
  0.000000  0.047546  0.048034      1.000000
  0.023773  0.047546  0.047619      2.000000
  0.047547  0.047546  0.047204      1.000000
 
 TETIRR: Found    192 inequivalent tetrahedra from      384
 
 Subroutine IBZKPT_HF returns following result:
 ==============================================
 
 Found     64 k-points in 1st BZ
 the following     64 k-points will be used (e.g. in the exchange kernel)
 Following reciprocal coordinates:   # in IRBZ
  0.000000  0.000000  0.000000    0.01562500   1 t-inv F
  0.250000  0.000000 -0.000000    0.01562500   2 t-inv F
  0.500000  0.000000 -0.000000    0.01562500   3 t-inv F
  0.000000  0.250000  0.000000    0.01562500   4 t-inv F
  0.250000  0.250000 -0.000000    0.01562500   5 t-inv F
  0.500000  0.250000 -0.000000    0.01562500   6 t-inv F
  0.000000  0.500000  0.000000    0.01562500   7 t-inv F
  0.250000  0.500000 -0.000000    0.01562500   8 t-inv F
  0.500000  0.500000 -0.000000    0.01562500   9 t-inv F
  0.000000  0.000000  0.250000    0.01562500  10 t-inv F
  0.250000  0.000000  0.250000    0.01562500  11 t-inv F
  0.500000  0.000000  0.250000    0.01562500  12 t-inv F
 -0.250000  0.000000  0.250000    0.01562500  13 t-inv F
  0.000000  0.250000  0.250000    0.01562500  14 t-inv F
  0.250000  0.250000  0.250000    0.01562500  15 t-inv F
  0.500000  0.250000  0.250000    0.01562500  16 t-inv F
 -0.250000  0.250000  0.250000    0.01562500  17 t-inv F
  0.000000  0.500000  0.250000    0.01562500  18 t-inv F
  0.250000  0.500000  0.250000    0.01562500  19 t-inv F
  0.500000  0.500000  0.250000    0.01562500  20 t-inv F
 -0.250000  0.500000  0.250000    0.01562500  21 t-inv F
  0.000000  0.000000  0.500000    0.01562500  22 t-inv F
  0.250000  0.000000  0.500000    0.01562500  23 t-inv F
  0.500000  0.000000  0.500000    0.01562500  24 t-inv F
  0.000000  0.250000  0.500000    0.01562500  25 t-inv F
  0.250000  0.250000  0.500000    0.01562500  26 t-inv F
  0.500000  0.250000  0.500000    0.01562500  27 t-inv F
  0.000000  0.500000  0.500000    0.01562500  28 t-inv F
  0.250000  0.500000  0.500000    0.01562500  29 t-inv F
  0.500000  0.500000  0.500000    0.01562500  30 t-inv F
 -0.250000  0.000000  0.000000    0.01562500   2 t-inv F spinflp
 -0.250000  0.250000  0.000000    0.01562500   5 t-inv F spinflp
 -0.250000  0.500000  0.000000    0.01562500   8 t-inv F spinflp
  0.000000  0.000000 -0.250000    0.01562500  10 t-inv F spinflp
 -0.250000  0.000000 -0.250000    0.01562500  11 t-inv F spinflp
 -0.500000  0.000000 -0.250000    0.01562500  12 t-inv F spinflp
  0.250000  0.000000 -0.250000    0.01562500  13 t-inv F spinflp
  0.000000  0.250000 -0.250000    0.01562500  14 t-inv F spinflp
 -0.250000  0.250000 -0.250000    0.01562500  15 t-inv F spinflp
 -0.500000  0.250000 -0.250000    0.01562500  16 t-inv F spinflp
  0.250000  0.250000 -0.250000    0.01562500  17 t-inv F spinflp
  0.000000  0.500000 -0.250000    0.01562500  18 t-inv F spinflp
 -0.250000  0.500000 -0.250000    0.01562500  19 t-inv F spinflp
 -0.500000  0.500000 -0.250000    0.01562500  20 t-inv F spinflp
  0.250000  0.500000 -0.250000    0.01562500  21 t-inv F spinflp
 -0.250000  0.000000 -0.500000    0.01562500  23 t-inv F spinflp
 -0.250000  0.250000 -0.500000    0.01562500  26 t-inv F spinflp
 -0.250000  0.500000 -0.500000    0.01562500  29 t-inv F spinflp
  0.000000 -0.250000  0.000000    0.01562500   4 t-inv T
 -0.250000 -0.250000  0.000000    0.01562500   5 t-inv T
  0.250000 -0.250000 -0.000000    0.01562500   5 t-inv T spinflp
 -0.500000 -0.250000  0.000000    0.01562500   6 t-inv T
  0.000000 -0.250000 -0.250000    0.01562500  14 t-inv T
  0.000000 -0.250000  0.250000    0.01562500  14 t-inv T spinflp
 -0.250000 -0.250000 -0.250000    0.01562500  15 t-inv T
  0.250000 -0.250000  0.250000    0.01562500  15 t-inv T spinflp
 -0.500000 -0.250000 -0.250000    0.01562500  16 t-inv T
  0.500000 -0.250000  0.250000    0.01562500  16 t-inv T spinflp
  0.250000 -0.250000 -0.250000    0.01562500  17 t-inv T
 -0.250000 -0.250000  0.250000    0.01562500  17 t-inv T spinflp
  0.000000 -0.250000 -0.500000    0.01562500  25 t-inv T
 -0.250000 -0.250000 -0.500000    0.01562500  26 t-inv T
  0.250000 -0.250000  0.500000    0.01562500  26 t-inv T spinflp
 -0.500000 -0.250000 -0.500000    0.01562500  27 t-inv T


--------------------------------------------------------------------------------------------------------




 Dimension of arrays:
   k-points           NKPTS =     30   k-points in BZ     NKDIM =     30   number of bands    NBANDS=    512
   number of dos      NEDOS =    301   number of ions     NIONS =     64
   non local maximal  LDIM  =      6   non local SUM 2l+1 LMDIM =     18
   total plane-waves  NPLWV = 829440
   max r-space proj   IRMAX =      1   max aug-charges    IRDMAX=  22897
   dimension x,y,z NGX =    96 NGY =   96 NGZ =   90
   dimension x,y,z NGXF=   192 NGYF=  192 NGZF=  180
   support grid    NGXF=   192 NGYF=  192 NGZF=  180
   ions per type =              32  16  16
   NGX,Y,Z   is equivalent  to a cutoff of  15.18, 15.18, 14.37 a.u.
   NGXF,Y,Z  is equivalent  to a cutoff of  30.35, 30.35, 28.74 a.u.

 SYSTEM =  CuFeS2                                  
 POSCAR =  generated by phonopy                    

 Startparameter for this run:
   NWRITE =      2    write-flag & timer
   PREC   = accura    normal or accurate (medium, high low for compatibility)
   ISTART =      1    job   : 0-new  1-cont  2-samecut
   ICHARG =      1    charge: 1-file 2-atom 10-const
   ISPIN  =      2    spin polarized calculation?
   LNONCOLLINEAR =      F non collinear calculations
   LSORBIT =      F    spin-orbit coupling
   INIWAV =      1    electr: 0-lowe 1-rand  2-diag
   LASPH  =      F    aspherical Exc in radial PAW
   METAGGA=      F    non-selfconsistent MetaGGA calc.

 Electronic Relaxation 1
   ENCUT  =  700.0 eV  51.45 Ry    7.17 a.u.  22.69 22.69 22.46*2*pi/ulx,y,z
   ENINI  =  700.0     initial cutoff
   ENAUG  =  758.2 eV  augmentation charge cutoff
   NELM   =    500;   NELMIN=  2; NELMDL=  0     # of ELM steps 
   EDIFF  = 0.1E-07   stopping-criterion for ELM
   LREAL  =      F    real-space projection
   NLSPLINE    = F    spline interpolate recip. space projectors
   LCOMPAT=      F    compatible to vasp.4.4
   GGA_COMPAT  = T    GGA compatible to vasp.4.4-vasp.4.6
   LMAXPAW     = -100 max onsite density
   LMAXMIX     =    4 max onsite mixed and CHGCAR
   VOSKOWN=      0    Vosko Wilk Nusair interpolation
   ROPT   =    0.00000   0.00000   0.00000
 Ionic relaxation
   EDIFFG = -.1E-04   stopping-criterion for IOM
   NSW    =      0    number of steps for IOM
   NBLOCK =      1;   KBLOCK =      1    inner block; outer block 
   IBRION =     -1    ionic relax: 0-MD 1-quasi-New 2-CG
   NFREE  =      0    steps in history (QN), initial steepest desc. (CG)
   ISIF   =      2    stress and relaxation
   IWAVPR =     10    prediction:  0-non 1-charg 2-wave 3-comb
   ISYM   =      2    0-nonsym 1-usesym 2-fastsym
   LCORR  =      T    Harris-Foulkes like correction to forces

   POTIM  = 0.5000    time-step for ionic-motion
   TEIN   =    0.0    initial temperature
   TEBEG  =    0.0;   TEEND  =   0.0 temperature during run
   SMASS  =  -3.00    Nose mass-parameter (am)
   estimated Nose-frequenzy (Omega)   =  0.10E-29 period in steps =****** mass=  -0.253E-26a.u.
   SCALEE = 1.0000    scale energy and forces
   NPACO  =    256;   APACO  = 16.0  distance and # of slots for P.C.
   PSTRESS=    0.0 pullay stress

  Mass of Ions in am
   POMASS =  32.07 63.55 55.85
  Ionic Valenz
   ZVAL   =   6.00 17.00 14.00
  Atomic Wigner-Seitz radii
   RWIGS  =  -1.00 -1.00 -1.00
  virtual crystal weights 
   VCA    =   1.00  1.00  1.00
   NELECT =     688.0000    total number of electrons
   NUPDOWN=      -1.0000    fix difference up-down

 DOS related values:
   EMIN   =  10.00;   EMAX   =-10.00  energy-range for DOS
   EFERMI =   0.00
   ISMEAR =    -5;   SIGMA  =   0.03  broadening in eV -4-tet -1-fermi 0-gaus

 Electronic relaxation 2 (details)
   IALGO  =     38    algorithm
   LDIAG  =      T    sub-space diagonalisation (order eigenvalues)
   LSUBROT=      F    optimize rotation matrix (better conditioning)
   TURBO    =      0    0=normal 1=particle mesh
   IRESTART =      0    0=no restart 2=restart with 2 vectors
   NREBOOT  =      0    no. of reboots
   NMIN     =      0    reboot dimension
   EREF     =   0.00    reference energy to select bands
   IMIX   =      4    mixing-type and parameters
     AMIX     =   0.40;   BMIX     =  1.00
     AMIX_MAG =   1.60;   BMIX_MAG =  1.00
     AMIN     =   0.10
     WC   =   100.;   INIMIX=   1;  MIXPRE=   1;  MAXMIX= -45

 Intra band minimization:
   WEIMIN = 0.0000     energy-eigenvalue tresh-hold
   EBREAK =  0.49E-11  absolut break condition
   DEPER  =   0.30     relativ break condition  

   TIME   =   0.40     timestep for ELM

  volume/ion in A,a.u.               =      17.99       121.38
  Fermi-wavevector in a.u.,A,eV,Ry     =   1.378992  2.605917 25.873101  1.901619
  Thomas-Fermi vector in A             =   2.504003
 
 Write flags
   LWAVE        =      T    write WAVECAR
   LDOWNSAMPLE  =      F    k-point downsampling of WAVECAR
   LCHARG       =      T    write CHGCAR
   LVTOT        =      F    write LOCPOT, total local potential
   LVHAR        =      F    write LOCPOT, Hartree potential only
   LELF         =      F    write electronic localiz. function (ELF)
   LORBIT       =     11    0 simple, 1 ext, 2 COOP (PROOUT), +10 PAW based schemes


 Dipole corrections
   LMONO  =      F    monopole corrections only (constant potential shift)
   LDIPOL =      F    correct potential (dipole corrections)
   IDIPOL =      0    1-x, 2-y, 3-z, 4-all directions 
   EPSILON=  1.0000000 bulk dielectric constant

 LDA+U is selected, type is set to LDAUTYPE =  2
   angular momentum for each species LDAUL =     2    2    2
   U (eV)           for each species LDAUU =   0.0  0.1  4.7
   J (eV)           for each species LDAUJ =   0.0  0.0  0.0
 Exchange correlation treatment:
   GGA     =    PS    GGA type
   LEXCH   =    14    internal setting for exchange type
   VOSKOWN=      0    Vosko Wilk Nusair interpolation
   LHFCALC =     F    Hartree Fock is set to
   LHFONE  =     F    Hartree Fock one center treatment
   AEXX    =    0.0000 exact exchange contribution

 Linear response parameters
   LEPSILON=     T    determine dielectric tensor
   LRPA    =     F    only Hartree local field effects (RPA)
   LNABLA  =     F    use nabla operator in PAW spheres
   LVEL    =     F    velocity operator in full k-point grid
   LINTERFAST=   F  fast interpolation
   KINTER  =     0    interpolate to denser k-point grid
   CSHIFT  =0.1000    complex shift for real part using Kramers Kronig
   OMEGAMAX=  -1.0    maximum frequency
   DEG_THRESHOLD= 0.2000000E-02 threshold for treating states as degnerate
   RTIME   =   -0.100 relaxation time in fs
  (WPLASMAI=    0.000 imaginary part of plasma frequency in eV, 0.658/RTIME)
   DFIELD  = 0.0000000 0.0000000 0.0000000 field for delta impulse in time
 
 Orbital magnetization related:
   ORBITALMAG=     F  switch on orbital magnetization
   LCHIMAG   =     F  perturbation theory with respect to B field
   DQ        =  0.001000  dq finite difference perturbation B field
   LLRAUG    =     F  two centre corrections for induced B field

 PEAD related settings:
   LPEAD      =     T    switch on PEAD
   IPEAD      =     4    finite difference order for dpsi/dk
   LCALCPOL   =     T    calculate macroscopic polarization
   LCALCEPS   =     F    calculate dielectric tensor
   EFIELD_PEAD=    0.0000    0.0000    0.0000
   SKIP_EDOTP =     F
   LRPA       =     F
   SKIP_SCF   =     F


--------------------------------------------------------------------------------------------------------


 Static calculation
 charge density and potential will be updated during run
 spin polarized calculation
 Variant of blocked Davidson
 Davidson routine will perform the subspace rotation
 perform sub-space diagonalisation
    after iterative eigenvector-optimisation
 modified Broyden-mixing scheme, WC =      100.0
 initial mixing is a Kerker type mixing with AMIX =  0.4000 and BMIX =      1.0000
 Hartree-type preconditioning will be used
 using additional bands          168
 reciprocal scheme for non local part
 use partial core corrections
 calculate Harris-corrections to forces 
   (improved forces if not selfconsistent)
 use gradient corrections 
 use of overlap-Matrix (Vanderbilt PP)
 Fermi weights with tetrahedron method with Bloechl corrections


--------------------------------------------------------------------------------------------------------


  energy-cutoff  :      700.00
  volume of cell :     1151.14
      direct lattice vectors                 reciprocal lattice vectors
    10.515934944  0.000000000  0.000000000     0.095093780  0.000000000 -0.001659868
     0.000000000 10.516214962  0.000000000     0.000000000  0.095091248  0.000000000
     0.181694461  0.000000000 10.409268716     0.000000000  0.000000000  0.096068228

  length of vectors
    10.515934944 10.516214962 10.410854340     0.095108265  0.095091248  0.096068228


 
 old parameters found on file WAVECAR:
  energy-cutoff  :      700.00
  volume of cell :     1151.14
      direct lattice vectors                 reciprocal lattice vectors
    10.515934944  0.000000000  0.000000000     0.095093780  0.000000000 -0.001659868
     0.000000000 10.516206112  0.000000000     0.000000000  0.095091328  0.000000000
     0.181694461  0.000000000 10.409268716     0.000000000  0.000000000  0.096068228

  length of vectors

 
 k-points in units of 2pi/SCALE and weight: Automatic mesh                          
   0.00000000  0.00000000  0.00000000       0.016
   0.02377344  0.00000000 -0.00041497       0.031
   0.04754689  0.00000000 -0.00082993       0.016
   0.00000000  0.02377281  0.00000000       0.031
   0.02377344  0.02377281 -0.00041497       0.062
   0.04754689  0.02377281 -0.00082993       0.031
   0.00000000  0.04754562  0.00000000       0.016
   0.02377344  0.04754562 -0.00041497       0.031
   0.04754689  0.04754562 -0.00082993       0.016
   0.00000000  0.00000000  0.02401706       0.031
   0.02377344  0.00000000  0.02360209       0.031
   0.04754689  0.00000000  0.02318712       0.031
  -0.02377344  0.00000000  0.02443202       0.031
   0.00000000  0.02377281  0.02401706       0.062
   0.02377344  0.02377281  0.02360209       0.062
   0.04754689  0.02377281  0.02318712       0.062
  -0.02377344  0.02377281  0.02443202       0.062
   0.00000000  0.04754562  0.02401706       0.031
   0.02377344  0.04754562  0.02360209       0.031
   0.04754689  0.04754562  0.02318712       0.031
  -0.02377344  0.04754562  0.02443202       0.031
   0.00000000  0.00000000  0.04803411       0.016
   0.02377344  0.00000000  0.04761915       0.031
   0.04754689  0.00000000  0.04720418       0.016
   0.00000000  0.02377281  0.04803411       0.031
   0.02377344  0.02377281  0.04761915       0.062
   0.04754689  0.02377281  0.04720418       0.031
   0.00000000  0.04754562  0.04803411       0.016
   0.02377344  0.04754562  0.04761915       0.031
   0.04754689  0.04754562  0.04720418       0.016
 
 k-points in reciprocal lattice and weights: Automatic mesh                          
   0.00000000  0.00000000  0.00000000       0.016
   0.25000000  0.00000000 -0.00000000       0.031
   0.50000000  0.00000000 -0.00000000       0.016
   0.00000000  0.25000000  0.00000000       0.031
   0.25000000  0.25000000 -0.00000000       0.062
   0.50000000  0.25000000 -0.00000000       0.031
   0.00000000  0.50000000  0.00000000       0.016
   0.25000000  0.50000000 -0.00000000       0.031
   0.50000000  0.50000000 -0.00000000       0.016
   0.00000000  0.00000000  0.25000000       0.031
   0.25000000  0.00000000  0.25000000       0.031
   0.50000000  0.00000000  0.25000000       0.031
  -0.25000000  0.00000000  0.25000000       0.031
   0.00000000  0.25000000  0.25000000       0.062
   0.25000000  0.25000000  0.25000000       0.062
   0.50000000  0.25000000  0.25000000       0.062
  -0.25000000  0.25000000  0.25000000       0.062
   0.00000000  0.50000000  0.25000000       0.031
   0.25000000  0.50000000  0.25000000       0.031
   0.50000000  0.50000000  0.25000000       0.031
  -0.25000000  0.50000000  0.25000000       0.031
   0.00000000  0.00000000  0.50000000       0.016
   0.25000000  0.00000000  0.50000000       0.031
   0.50000000  0.00000000  0.50000000       0.016
   0.00000000  0.25000000  0.50000000       0.031
   0.25000000  0.25000000  0.50000000       0.062
   0.50000000  0.25000000  0.50000000       0.031
   0.00000000  0.50000000  0.50000000       0.016
   0.25000000  0.50000000  0.50000000       0.031
   0.50000000  0.50000000  0.50000000       0.016
 
 position of ions in fractional coordinates (direct lattice) 
   0.12616450  0.12390689  0.12518388
   0.62616449  0.12390689  0.12518388
   0.12616450  0.62390689  0.12518388
   0.62616449  0.62390689  0.12518388
   0.37383551  0.37390689  0.12481612
   0.87383551  0.37390689  0.12481612
   0.37383551  0.87390689  0.12481612
   0.87383551  0.87390689  0.12481612
   0.12500000  0.37308688  0.87500000
   0.62500000  0.37308688  0.87500000
   0.12500000  0.87308688  0.87500000
   0.62500000  0.87308688  0.87500000
   0.37500000  0.12538054  0.87500000
   0.87500000  0.12538054  0.87500000
   0.37500000  0.62538053  0.87500000
   0.87500000  0.62538053  0.87500000
   0.12383550  0.12390689  0.62481612
   0.62383551  0.12390689  0.62481612
   0.12383550  0.62390689  0.62481612
   0.62383551  0.62390689  0.62481612
   0.37616449  0.37390689  0.62518388
   0.87616449  0.37390689  0.62518388
   0.37616449  0.87390689  0.62518388
   0.87616449  0.87390689  0.62518388
   0.37500000  0.12308688  0.37500000
   0.87500000  0.12308688  0.37500000
   0.37500000  0.62308688  0.37500000
   0.87500000  0.62308688  0.37500000
   0.12500000  0.37538053  0.37500000
   0.62500000  0.37538053  0.37500000
   0.12500000  0.87538053  0.37500000
   0.62500000  0.87538053  0.37500000
   0.99966345  0.00094285  0.49999619
   0.49966345  0.00094285  0.49999619
   0.99966345  0.50094285  0.49999619
   0.49966345  0.50094285  0.49999619
   0.25033655  0.00094285  0.25000381
   0.75033655  0.00094285  0.25000381
   0.25033655  0.50094285  0.25000381
   0.75033655  0.50094285  0.25000381
   0.24966345  0.25094285  0.99999619
   0.74966345  0.25094285  0.99999619
   0.24966345  0.75094285  0.99999619
   0.74966345  0.75094285  0.99999619
   0.00033655  0.25094285  0.75000381
   0.50033655  0.25094285  0.75000381
   0.00033655  0.75094285  0.75000381
   0.50033655  0.75094285  0.75000381
   0.99983558  0.00091656  0.00001740
   0.49983558  0.00091656  0.00001740
   0.99983558  0.50091656  0.00001740
   0.49983558  0.50091656  0.00001740
   0.25016442  0.00091656  0.74998260
   0.75016442  0.00091656  0.74998260
   0.25016442  0.50091656  0.74998260
   0.75016442  0.50091656  0.74998260
   0.24983558  0.25091656  0.50001740
   0.74983558  0.25091656  0.50001740
   0.24983558  0.75091656  0.50001740
   0.74983558  0.75091656  0.50001740
   0.00016442  0.25091656  0.24998260
   0.50016442  0.25091656  0.24998260
   0.00016442  0.75091656  0.24998260
   0.50016442  0.75091656  0.24998260
 
 position of ions in cartesian coordinates  (Angst):
   1.34948292  1.30303146  1.30307266
   6.60745024  1.30303146  1.30307266
   1.34948292  6.56113894  1.30307266
   6.60745024  6.56113894  1.30307266
   3.95390832  3.93208520  1.29924451
   9.21187579  3.93208520  1.29924451
   3.95390832  9.19019268  1.29924451
   9.21187579  9.19019268  1.29924451
   1.47347452  3.92346186  9.10811013
   6.73144199  3.92346186  9.10811013
   1.47347452  9.18156934  9.10811013
   6.73144199  9.18156934  9.10811013
   4.10245826  1.31852874  9.10811013
   9.36042573  1.31852874  9.10811013
   4.10245826  6.57663606  9.10811013
   9.36042573  6.57663606  9.10811013
   1.41577173  1.30303146  6.50387887
   6.67373929  1.30303146  6.50387887
   1.41577173  6.56113894  6.50387887
   6.67373929  6.56113894  6.50387887
   4.06931373  3.93208520  6.50770702
   9.32728121  3.93208520  6.50770702
   4.06931373  9.19019268  6.50770702
   9.32728121  9.19019268  6.50770702
   4.01161103  1.29440804  3.90347577
   9.26957850  1.29440804  3.90347577
   4.01161103  6.55251560  3.90347577
   9.26957850  6.55251560  3.90347577
   1.38262729  3.94758232  3.90347577
   6.64059476  3.94758232  3.90347577
   1.38262729  9.20568980  3.90347577
   6.64059476  9.20568980  3.90347577
  10.60324237  0.00991517  5.20459469
   5.34527490  0.00991517  5.20459469
  10.60324237  5.26802265  5.20459469
   5.34527490  5.26802265  5.20459469
   2.67794716  0.00991517  2.60235684
   7.93591463  0.00991517  2.60235684
   2.67794716  5.26802265  2.60235684
   7.93591463  5.26802265  2.60235684
   2.80713839  2.63896891 10.40922905
   8.06510586  2.63896891 10.40922905
   2.80713839  7.89707639 10.40922905
   8.06510586  7.89707639 10.40922905
   0.13981065  2.63896891  7.80699120
   5.39777813  2.63896891  7.80699120
   0.13981065  7.89707639  7.80699120
   5.39777813  7.89707639  7.80699120
  10.51420906  0.00963876  0.00018109
   5.25624159  0.00963876  0.00018109
  10.51420906  5.26774624  0.00018109
   5.25624159  5.26774624  0.00018109
   2.76698047  0.00963876  7.80677045
   8.02494794  0.00963876  7.80677045
   2.76698047  5.26774624  7.80677045
   8.02494794  5.26774624  7.80677045
   2.71810508  2.63869250  5.20481545
   7.97607255  2.63869250  5.20481545
   2.71810508  7.89679998  5.20481545
   7.97607255  7.89679998  5.20481545
   0.04714950  2.63869250  2.60213609
   5.30511697  2.63869250  2.60213609
   0.04714950  7.89679998  2.60213609
   5.30511697  7.89679998  2.60213609
 


--------------------------------------------------------------------------------------------------------


 k-point  1 :   0.0000 0.0000 0.0000  plane waves:   48447
 k-point  2 :   0.2500 0.0000-0.0000  plane waves:   48427
 k-point  3 :   0.5000 0.0000-0.0000  plane waves:   48440
 k-point  4 :   0.0000 0.2500 0.0000  plane waves:   48413
 k-point  5 :   0.2500 0.2500-0.0000  plane waves:   48418
 k-point  6 :   0.5000 0.2500-0.0000  plane waves:   48412
 k-point  7 :   0.0000 0.5000 0.0000  plane waves:   48462
 k-point  8 :   0.2500 0.5000-0.0000  plane waves:   48426
 k-point  9 :   0.5000 0.5000-0.0000  plane waves:   48396
 k-point 10 :   0.0000 0.0000 0.2500  plane waves:   48414
 k-point 11 :   0.2500 0.0000 0.2500  plane waves:   48415
 k-point 12 :   0.5000 0.0000 0.2500  plane waves:   48444
 k-point 13 :  -0.2500 0.0000 0.2500  plane waves:   48423
 k-point 14 :   0.0000 0.2500 0.2500  plane waves:   48403
 k-point 15 :   0.2500 0.2500 0.2500  plane waves:   48420
 k-point 16 :   0.5000 0.2500 0.2500  plane waves:   48395
 k-point 17 :  -0.2500 0.2500 0.2500  plane waves:   48399
 k-point 18 :   0.0000 0.5000 0.2500  plane waves:   48434
 k-point 19 :   0.2500 0.5000 0.2500  plane waves:   48426
 k-point 20 :   0.5000 0.5000 0.2500  plane waves:   48398
 k-point 21 :  -0.2500 0.5000 0.2500  plane waves:   48406
 k-point 22 :   0.0000 0.0000 0.5000  plane waves:   48394
 k-point 23 :   0.2500 0.0000 0.5000  plane waves:   48412
 k-point 24 :   0.5000 0.0000 0.5000  plane waves:   48414
 k-point 25 :   0.0000 0.2500 0.5000  plane waves:   48406
 k-point 26 :   0.2500 0.2500 0.5000  plane waves:   48386
 k-point 27 :   0.5000 0.2500 0.5000  plane waves:   48398
 k-point 28 :   0.0000 0.5000 0.5000  plane waves:   48392
 k-point 29 :   0.2500 0.5000 0.5000  plane waves:   48362
 k-point 30 :   0.5000 0.5000 0.5000  plane waves:   48364

 maximum and minimum number of plane-waves per node :     48462    48362

 maximum number of plane-waves:     48462
 maximum index in each direction: 
   IXMAX=   22   IYMAX=   22   IZMAX=   22
   IXMIN=  -23   IYMIN=  -23   IZMIN=  -22


 serial   3D FFT for wavefunctions
 parallel 3D FFT for charge:
    minimum data exchange during FFTs selected (reduces bandwidth)


 total amount of memory used by VASP MPI-rank0   881832. kBytes
=======================================================================

   base      :      30000. kBytes
   nonl-proj :     680181. kBytes
   fftplans  :       4588. kBytes
   grid      :      69719. kBytes
   one-center:       1990. kBytes
   wavefun   :      95354. kBytes
 
     INWAV:  cpu time   59.1775: real time   59.4959
 Broyden mixing: mesh for mixing (old mesh)
   NGX = 45   NGY = 45   NGZ = 45
  (NGX  =192   NGY  =192   NGZ  =180)
  gives a total of  91125 points

 initial charge density was supplied:
 number of electron     688.0000446 magnetization       0.0000000
 keeping initial charge density in first step


--------------------------------------------------------------------------------------------------------


 Maximum index for augmentation-charges          895 (set IRDMAX)


--------------------------------------------------------------------------------------------------------


 First call to EWALD:  gamma=   0.169
 Maximum number of real-space cells 3x 3x 3
 Maximum number of reciprocal cells 3x 3x 3

    FEWALD:  cpu time    0.0030: real time    0.0031


--------------------------------------- Iteration      1(   1)  ---------------------------------------


    POTLOK:  cpu time    0.3647: real time    0.8296
    SETDIJ:  cpu time    0.0149: real time    0.0150
     EDDAV:  cpu time  687.6329: real time  694.6472
 BZINTS: Fermi energy:  4.875944;688.000000 electrons
         Band energy:***********;  BLOECHL correction:  0.000000
       DOS:  cpu time    0.0471: real time    0.0480
    CHARGE:  cpu time    4.0785: real time    4.2549
    MIXING:  cpu time    0.0083: real time    0.0084
    --------------------------------------------
      LOOP:  cpu time  692.1464: real time  699.8032

 eigenvalue-minimisations  : 92160
 total energy-change (2. order) :-0.3280946E+03  (-0.1704671E-05)
 number of electron     688.0000446 magnetization       0.0000000
 augmentation part      282.2206238 magnetization       0.0000000

 Broyden mixing:
  rms(total) = 0.13831E-02    rms(broyden)= 0.13830E-02
  rms(prec ) = 0.17148E-02
  weight for this iteration     100.00

 Free energy of the ion-electron system (eV)
  ---------------------------------------------------
  alpha Z        PSCENC =      2355.19064765
  Ewald energy   TEWEN  =    -62459.98736069
  -Hartree energ DENC   =    -42958.46220762
  -exchange      EXHF   =         0.00000000
  -V(xc)+E(xc)   XCENC  =      3286.47784207
  PAW double counting   =    112268.36474276  -115962.32616162
  entropy T*S    EENTRO =         0.00000000
  eigenvalues    EBANDS =    -10877.41718600
  atomic energy  EATOM  =    114020.06510763
  Solvation  Ediel_sol  =         0.00000000
  ---------------------------------------------------
  free energy    TOTEN  =      -328.09457582 eV

  energy without entropy =     -328.09457582  energy(sigma->0) =     -328.09457582


--------------------------------------------------------------------------------------------------------




--------------------------------------- Iteration      1(   2)  ---------------------------------------


    POTLOK:  cpu time    0.1555: real time    0.1862
    SETDIJ:  cpu time    0.0127: real time    0.0129
     EDDAV:  cpu time  455.7932: real time  459.0392
 BZINTS: Fermi energy:  4.898031;688.000000 electrons
         Band energy:***********;  BLOECHL correction:  0.000000
       DOS:  cpu time    0.0461: real time    0.0462
    CHARGE:  cpu time    4.0604: real time    4.0891
    MIXING:  cpu time    0.0040: real time    0.2433
    --------------------------------------------
      LOOP:  cpu time  460.0718: real time  463.6168

 eigenvalue-minimisations  : 76800
 total energy-change (2. order) : 0.5816997E-05  (-0.6112752E-06)
 number of electron     688.0000446 magnetization       0.0000000
 augmentation part      282.2204319 magnetization       0.0000000

 Broyden mixing:
  rms(total) = 0.79451E-03    rms(broyden)= 0.79450E-03
  rms(prec ) = 0.96505E-03
  weight for this iteration     100.00

 eigenvalues of (default mixing * dielectric matrix)
  average eigenvalue GAMMA=   1.0491
  1.0491

 Free energy of the ion-electron system (eV)
  ---------------------------------------------------
  alpha Z        PSCENC =      2355.19064765
  Ewald energy   TEWEN  =    -62459.98736069
  -Hartree energ DENC   =    -42958.45921494
  -exchange      EXHF   =         0.00000000
  -V(xc)+E(xc)   XCENC  =      3286.47752277
  PAW double counting   =    112268.33846342  -115962.30011396
  entropy T*S    EENTRO =         0.00000000
  eigenvalues    EBANDS =    -10877.41962188
  atomic energy  EATOM  =    114020.06510763
  Solvation  Ediel_sol  =         0.00000000
  ---------------------------------------------------
  free energy    TOTEN  =      -328.09457000 eV

  energy without entropy =     -328.09457000  energy(sigma->0) =     -328.09457000


--------------------------------------------------------------------------------------------------------




--------------------------------------- Iteration      1(   3)  ---------------------------------------


    POTLOK:  cpu time    0.1585: real time    0.1595
    SETDIJ:  cpu time    0.0129: real time    0.0129
     EDDAV:  cpu time 1036.5306: real time 1043.0282
 BZINTS: Fermi energy:  4.855084;688.000000 electrons
         Band energy:***********;  BLOECHL correction:  0.000000
       DOS:  cpu time    0.0474: real time    0.0476
    CHARGE:  cpu time    4.0552: real time    4.0847
    MIXING:  cpu time    0.0039: real time    0.0421
    --------------------------------------------
      LOOP:  cpu time 1040.8085: real time 1047.3750

 eigenvalue-minimisations  :122880
 total energy-change (2. order) : 0.1467124E-05  (-0.9307599E-06)
 number of electron     688.0000446 magnetization      -0.0000000
 augmentation part      282.2207098 magnetization      -0.0000000

 Broyden mixing:
  rms(total) = 0.10169E-02    rms(broyden)= 0.10169E-02
  rms(prec ) = 0.11779E-02
  weight for this iteration     100.00

 eigenvalues of (default mixing * dielectric matrix)
  average eigenvalue GAMMA=   0.9883
  1.6066  0.3700

 Free energy of the ion-electron system (eV)
  ---------------------------------------------------
  alpha Z        PSCENC =      2355.19064765
  Ewald energy   TEWEN  =    -62459.98736069
  -Hartree energ DENC   =    -42958.47285299
  -exchange      EXHF   =         0.00000000
  -V(xc)+E(xc)   XCENC  =      3286.47899670
  PAW double counting   =    112268.37416944  -115962.33421219
  entropy T*S    EENTRO =         0.00000000
  eigenvalues    EBANDS =    -10877.40906407
  atomic energy  EATOM  =    114020.06510763
  Solvation  Ediel_sol  =         0.00000000
  ---------------------------------------------------
  free energy    TOTEN  =      -328.09456853 eV

  energy without entropy =     -328.09456853  energy(sigma->0) =     -328.09456853


--------------------------------------------------------------------------------------------------------




--------------------------------------- Iteration      1(   4)  ---------------------------------------


    POTLOK:  cpu time    0.1562: real time    0.1572
    SETDIJ:  cpu time    0.0130: real time    0.0131
     EDDAV:  cpu time  331.9580: real time  334.4877
 BZINTS: Fermi energy:  4.850553;688.000000 electrons
         Band energy:***********;  BLOECHL correction:  0.000000
       DOS:  cpu time    0.0415: real time    0.0417
    CHARGE:  cpu time    4.0675: real time    4.0945
    MIXING:  cpu time    0.0048: real time    0.0055
    --------------------------------------------
      LOOP:  cpu time  336.2410: real time  338.7996

 eigenvalue-minimisations  : 62464
 total energy-change (2. order) : 0.4549365E-06  (-0.4768504E-06)
 number of electron     688.0000446 magnetization       0.0000000
 augmentation part      282.2206287 magnetization       0.0000000

 Broyden mixing:
  rms(total) = 0.22284E-03    rms(broyden)= 0.22280E-03
  rms(prec ) = 0.24242E-03
  weight for this iteration     100.00

 eigenvalues of (default mixing * dielectric matrix)
  average eigenvalue GAMMA=   0.9690
  1.8437  0.7234  0.3399

 Free energy of the ion-electron system (eV)
  ---------------------------------------------------
  alpha Z        PSCENC =      2355.19064765
  Ewald energy   TEWEN  =    -62459.98736069
  -Hartree energ DENC   =    -42958.45230670
  -exchange      EXHF   =         0.00000000
  -V(xc)+E(xc)   XCENC  =      3286.47758600
  PAW double counting   =    112268.35620762  -115962.31647985
  entropy T*S    EENTRO =         0.00000000
  eigenvalues    EBANDS =    -10877.42796972
  atomic energy  EATOM  =    114020.06510763
  Solvation  Ediel_sol  =         0.00000000
  ---------------------------------------------------
  free energy    TOTEN  =      -328.09456808 eV

  energy without entropy =     -328.09456808  energy(sigma->0) =     -328.09456808


--------------------------------------------------------------------------------------------------------




--------------------------------------- Iteration      1(   5)  ---------------------------------------


    POTLOK:  cpu time    0.1691: real time    0.1700
    SETDIJ:  cpu time    0.0129: real time    0.0130
     EDDAV:  cpu time  671.4043: real time  675.8772
 BZINTS: Fermi energy:  4.827841;688.000000 electrons
         Band energy:***********;  BLOECHL correction:  0.000000
       DOS:  cpu time    0.0386: real time    0.0387
    CHARGE:  cpu time    4.0574: real time    4.0857
    MIXING:  cpu time    0.0049: real time    0.0050
    --------------------------------------------
      LOOP:  cpu time  675.6872: real time  680.1895

 eigenvalue-minimisations  : 91392
 total energy-change (2. order) : 0.1698209E-07  (-0.3223789E-07)
 number of electron     688.0000446 magnetization      -0.0000000
 augmentation part      282.2205358 magnetization      -0.0000000

 Broyden mixing:
  rms(total) = 0.11154E-03    rms(broyden)= 0.11153E-03
  rms(prec ) = 0.11975E-03
  weight for this iteration     100.00

 eigenvalues of (default mixing * dielectric matrix)
  average eigenvalue GAMMA=   1.0335
  1.7004  1.4212  0.3388  0.6737

 Free energy of the ion-electron system (eV)
  ---------------------------------------------------
  alpha Z        PSCENC =      2355.19064765
  Ewald energy   TEWEN  =    -62459.98736069
  -Hartree energ DENC   =    -42958.46073225
  -exchange      EXHF   =         0.00000000
  -V(xc)+E(xc)   XCENC  =      3286.47783773
  PAW double counting   =    112268.36459224  -115962.32606651
  entropy T*S    EENTRO =         0.00000000
  eigenvalues    EBANDS =    -10877.41859386
  atomic energy  EATOM  =    114020.06510763
  Solvation  Ediel_sol  =         0.00000000
  ---------------------------------------------------
  free energy    TOTEN  =      -328.09456806 eV

  energy without entropy =     -328.09456806  energy(sigma->0) =     -328.09456806


--------------------------------------------------------------------------------------------------------




--------------------------------------- Iteration      1(   6)  ---------------------------------------


    POTLOK:  cpu time    0.1647: real time    0.1658
    SETDIJ:  cpu time    0.0130: real time    0.0131
     EDDAV:  cpu time  522.9482: real time  526.5540
 BZINTS: Fermi energy:  4.818503;688.000000 electrons
         Band energy:***********;  BLOECHL correction:  0.000000
       DOS:  cpu time    0.0402: real time    0.0404
    CHARGE:  cpu time    4.0966: real time    4.1257
    MIXING:  cpu time    0.0019: real time    0.0019
    --------------------------------------------
      LOOP:  cpu time  527.2646: real time  530.9009

 eigenvalue-minimisations  : 79872
 total energy-change (2. order) : 0.1772423E-07  (-0.4347124E-08)
 number of electron     688.0000446 magnetization      -0.0000000
 augmentation part      282.2205405 magnetization      -0.0000000

 Broyden mixing:
  rms(total) = 0.53052E-04    rms(broyden)= 0.53051E-04
  rms(prec ) = 0.57920E-04
  weight for this iteration     100.00

 eigenvalues of (default mixing * dielectric matrix)
  average eigenvalue GAMMA=   1.1046
  1.8370  1.8370  0.3413  0.8707  0.6368

 Free energy of the ion-electron system (eV)
  ---------------------------------------------------
  alpha Z        PSCENC =      2355.19064765
  Ewald energy   TEWEN  =    -62459.98736069
  -Hartree energ DENC   =    -42958.46123143
  -exchange      EXHF   =         0.00000000
  -V(xc)+E(xc)   XCENC  =      3286.47789516
  PAW double counting   =    112268.37169176  -115962.33291061
  entropy T*S    EENTRO =         0.00000000
  eigenvalues    EBANDS =    -10877.41840751
  atomic energy  EATOM  =    114020.06510763
  Solvation  Ediel_sol  =         0.00000000
  ---------------------------------------------------
  free energy    TOTEN  =      -328.09456805 eV

  energy without entropy =     -328.09456805  energy(sigma->0) =     -328.09456805


--------------------------------------------------------------------------------------------------------




--------------------------------------- Iteration      1(   7)  ---------------------------------------


    POTLOK:  cpu time    0.1556: real time    0.1566
    SETDIJ:  cpu time    0.0130: real time    0.0131
     EDDAV:  cpu time  582.1997: real time  586.1229
 BZINTS: Fermi energy:  4.811112;688.000000 electrons
         Band energy:***********;  BLOECHL correction:  0.000000
       DOS:  cpu time    0.0400: real time    0.0403
    --------------------------------------------
      LOOP:  cpu time  582.4083: real time  586.3329

 eigenvalue-minimisations  : 75008
 total energy-change (2. order) : 0.8149073E-08  (-0.7764653E-09)
 number of electron     688.0000446 magnetization      -0.0000000
 augmentation part      282.2205405 magnetization      -0.0000000

 Free energy of the ion-electron system (eV)
  ---------------------------------------------------
  alpha Z        PSCENC =      2355.19064765
  Ewald energy   TEWEN  =    -62459.98736069
  -Hartree energ DENC   =    -42958.45960902
  -exchange      EXHF   =         0.00000000
  -V(xc)+E(xc)   XCENC  =      3286.47783456
  PAW double counting   =    112268.37636737  -115962.33747041
  entropy T*S    EENTRO =         0.00000000
  eigenvalues    EBANDS =    -10877.42008511
  atomic energy  EATOM  =    114020.06510763
  Solvation  Ediel_sol  =         0.00000000
  ---------------------------------------------------
  free energy    TOTEN  =      -328.09456804 eV

  energy without entropy =     -328.09456804  energy(sigma->0) =     -328.09456804


--------------------------------------------------------------------------------------------------------




 average (electrostatic) potential at core
  the test charge radii are     0.9698  0.8297  0.9500
  (the norm of the test charge is              1.0000)
       1 -86.6257       2 -86.6257       3 -86.6257       4 -86.6257       5 -86.6258
       6 -86.6257       7 -86.6258       8 -86.6257       9 -86.6366      10 -86.6366
      11 -86.6366      12 -86.6366      13 -86.6147      14 -86.6146      15 -86.6147
      16 -86.6146      17 -86.6257      18 -86.6257      19 -86.6257      20 -86.6257
      21 -86.6257      22 -86.6257      23 -86.6257      24 -86.6257      25 -86.6367
      26 -86.6366      27 -86.6367      28 -86.6366      29 -86.6146      30 -86.6146
      31 -86.6146      32 -86.6146      33 -80.7037      34 -80.7037      35 -80.7037
      36 -80.7037      37 -80.7037      38 -80.7037      39 -80.7037      40 -80.7037
      41 -80.7037      42 -80.7037      43 -80.7037      44 -80.7037      45 -80.7037
      46 -80.7037      47 -80.7037      48 -80.7037      49 -80.2320      50 -80.2320
      51 -80.2320      52 -80.2320      53 -80.2320      54 -80.2320      55 -80.2320
      56 -80.2320      57 -80.2320      58 -80.2320      59 -80.2320      60 -80.2320
      61 -80.2320      62 -80.2320      63 -80.2320      64 -80.2320
 
 
 
 E-fermi :   4.8111     XC(G=0): -10.4644     alpha+bet :-10.5421


 spin component 1

 k-point     1 :       0.0000    0.0000    0.0000
  band No.  band energies     occupation 
      1     -64.3142      1.00000
      2     -64.3142      1.00000
      3     -64.3142      1.00000
      4     -64.3142      1.00000
      5     -64.3141      1.00000
      6     -64.3141      1.00000
      7     -64.3141      1.00000
      8     -64.3141      1.00000
      9     -64.2827      1.00000
     10     -64.2827      1.00000
     11     -64.2827      1.00000
     12     -64.2827      1.00000
     13     -64.2827      1.00000
     14     -64.2827      1.00000
     15     -64.2827      1.00000
     16     -64.2827      1.00000
     17     -64.2820      1.00000
     18     -64.2820      1.00000
     19     -64.2820      1.00000
     20     -64.2820      1.00000
     21     -64.2820      1.00000
     22     -64.2820      1.00000
     23     -64.2820      1.00000
     24     -64.2820      1.00000
     25     -64.2793      1.00000
     26     -64.2793      1.00000
     27     -64.2793      1.00000
     28     -64.2793      1.00000
     29     -64.2793      1.00000
     30     -64.2793      1.00000
     31     -64.2793      1.00000
     32     -64.2793      1.00000
     33     -64.2638      1.00000
     34     -64.2638      1.00000
     35     -64.2638      1.00000
     36     -64.2638      1.00000
     37     -64.2638      1.00000
     38     -64.2638      1.00000
     39     -64.2638      1.00000
     40     -64.2638      1.00000
     41     -64.2636      1.00000
     42     -64.2636      1.00000
     43     -64.2635      1.00000
     44     -64.2635      1.00000
     45     -64.2635      1.00000
     46     -64.2635      1.00000
     47     -64.2635      1.00000
     48     -64.2635      1.00000
     49     -51.8877      1.00000
     50     -51.8877      1.00000
     51     -51.8877      1.00000
     52     -51.8877      1.00000
     53     -51.8877      1.00000
     54     -51.8877      1.00000
     55     -51.8877      1.00000
     56     -51.8877      1.00000
     57     -51.8527      1.00000
     58     -51.8527      1.00000
     59     -51.8527      1.00000
     60     -51.8527      1.00000
     61     -51.8527      1.00000
     62     -51.8527      1.00000
     63     -51.8527      1.00000
     64     -51.8527      1.00000
     65     -51.8517      1.00000
     66     -51.8516      1.00000
     67     -51.8516      1.00000
     68     -51.8516      1.00000
     69     -51.8516      1.00000
     70     -51.8516      1.00000
     71     -51.8516      1.00000
     72     -51.8516      1.00000
     73     -47.7348      1.00000
     74     -47.7348      1.00000
     75     -47.7348      1.00000
     76     -47.7348      1.00000
     77     -47.7348      1.00000
     78     -47.7348      1.00000
     79     -47.7348      1.00000
     80     -47.7347      1.00000
     81     -47.7296      1.00000
     82     -47.7296      1.00000
     83     -47.7296      1.00000
     84     -47.7296      1.00000
     85     -47.7296      1.00000
     86     -47.7296      1.00000
     87     -47.7296      1.00000
     88     -47.7296      1.00000
     89     -47.7289      1.00000
     90     -47.7289      1.00000
     91     -47.7289      1.00000
     92     -47.7289      1.00000
     93     -47.7289      1.00000
     94     -47.7289      1.00000
     95     -47.7289      1.00000
     96     -47.7289      1.00000
     97      -9.1129      1.00000
     98      -8.5020      1.00000
     99      -8.5020      1.00000
    100      -8.5019      1.00000
    101      -8.5014      1.00000
    102      -8.5014      1.00000
    103      -8.4790      1.00000
    104      -8.1497      1.00000
    105      -8.1497      1.00000
    106      -8.1416      1.00000
    107      -8.1397      1.00000
    108      -8.1392      1.00000
    109      -8.1392      1.00000
    110      -8.1348      1.00000
    111      -8.1341      1.00000
    112      -8.1190      1.00000
    113      -8.1190      1.00000
    114      -8.1172      1.00000
    115      -8.1153      1.00000
    116      -8.1083      1.00000
    117      -8.1083      1.00000
    118      -8.0708      1.00000
    119      -8.0701      1.00000
    120      -7.7728      1.00000
    121      -7.7711      1.00000
    122      -7.7697      1.00000
    123      -7.7658      1.00000
    124      -7.7569      1.00000
    125      -7.7569      1.00000
    126      -7.7560      1.00000
    127      -7.7560      1.00000
    128      -7.7477      1.00000
    129      -2.0707      1.00000
    130      -2.0536      1.00000
    131      -2.0536      1.00000
    132      -2.0528      1.00000
    133      -2.0528      1.00000
    134      -2.0262      1.00000
    135      -1.9824      1.00000
    136      -1.9606      1.00000
    137      -1.9605      1.00000
    138      -1.9049      1.00000
    139      -1.8940      1.00000
    140      -1.8875      1.00000
    141      -1.8875      1.00000
    142      -1.8874      1.00000
    143      -1.8874      1.00000
    144      -1.8710      1.00000
    145      -1.8707      1.00000
    146      -1.8459      1.00000
    147      -1.8459      1.00000
    148      -1.8446      1.00000
    149      -1.8446      1.00000
    150      -1.8131      1.00000
    151      -1.8115      1.00000
    152      -1.7979      1.00000
    153      -1.7979      1.00000
    154      -1.7953      1.00000
    155      -1.7953      1.00000
    156      -1.7951      1.00000
    157      -1.7821      1.00000
    158      -1.7819      1.00000
    159      -1.7659      1.00000
    160      -1.7614      1.00000
    161      -1.7558      1.00000
    162      -1.7558      1.00000
    163      -1.7553      1.00000
    164      -1.7553      1.00000
    165      -1.7457      1.00000
    166      -1.7454      1.00000
    167      -1.7096      1.00000
    168      -1.7095      1.00000
    169      -0.9630      1.00000
    170      -0.9623      1.00000
    171      -0.8543      1.00000
    172      -0.8533      1.00000
    173      -0.7498      1.00000
    174      -0.4956      1.00000
    175      -0.2408      1.00000
    176      -0.2408      1.00000
    177      -0.2402      1.00000
    178      -0.2402      1.00000
    179      -0.1930      1.00000
    180      -0.1927      1.00000
    181      -0.1273      1.00000
    182      -0.0347      1.00000
    183      -0.0347      1.00000
    184      -0.0340      1.00000
    185      -0.0340      1.00000
    186       0.0387      1.00000
    187       0.0388      1.00000
    188       0.0976      1.00000
    189       0.0976      1.00000
    190       0.0990      1.00000
    191       0.0990      1.00000
    192       0.1068      1.00000
    193       0.1982      1.00000
    194       0.2611      1.00000
    195       0.2611      1.00000
    196       0.2612      1.00000
    197       0.2612      1.00000
    198       0.2921      1.00000
    199       0.3177      1.00000
    200       0.6741      1.00000
    201       0.7234      1.00000
    202       0.7234      1.00000
    203       0.7558      1.00000
    204       0.7972      1.00000
    205       0.7972      1.00000
    206       0.7979      1.00000
    207       0.7979      1.00000
    208       0.8666      1.00000
    209       0.8666      1.00000
    210       0.8675      1.00000
    211       0.8675      1.00000
    212       1.0015      1.00000
    213       1.0015      1.00000
    214       1.0028      1.00000
    215       1.0028      1.00000
    216       1.1263      1.00000
    217       1.1267      1.00000
    218       1.1331      1.00000
    219       1.1335      1.00000
    220       1.1602      1.00000
    221       1.1607      1.00000
    222       1.1764      1.00000
    223       1.1764      1.00000
    224       1.1772      1.00000
    225       1.1772      1.00000
    226       1.1851      1.00000
    227       1.1864      1.00000
    228       1.2476      1.00000
    229       1.2480      1.00000
    230       1.2783      1.00000
    231       1.2783      1.00000
    232       1.2785      1.00000
    233       1.2785      1.00000
    234       1.3002      1.00000
    235       1.3063      1.00000
    236       1.3483      1.00000
    237       1.3485      1.00000
    238       1.4405      1.00000
    239       1.5484      1.00000
    240       1.5487      1.00000
    241       1.6046      1.00000
    242       1.7839      1.00000
    243       1.7839      1.00000
    244       1.7841      1.00000
    245       1.7841      1.00000
    246       1.8472      1.00000
    247       1.8490      1.00000
    248       1.9253      1.00000
    249       1.9265      1.00000
    250       1.9268      1.00000
    251       1.9268      1.00000
    252       1.9284      1.00000
    253       1.9284      1.00000
    254       2.0357      1.00000
    255       2.0374      1.00000
    256       2.0905      1.00000
    257       2.1301      1.00000
    258       2.1838      1.00000
    259       2.1838      1.00000
    260       2.1861      1.00000
    261       2.1861      1.00000
    262       2.1862      1.00000
    263       2.2156      1.00000
    264       2.2163      1.00000
    265       2.6180      1.00000
    266       2.7229      1.00000
    267       2.7525      1.00000
    268       2.7525      1.00000
    269       2.7528      1.00000
    270       2.7528      1.00000
    271       2.7697      1.00000
    272       2.7697      1.00000
    273       2.7743      1.00000
    274       2.7743      1.00000
    275       2.7750      1.00000
    276       2.7750      1.00000
    277       2.7982      1.00000
    278       2.8213      1.00000
    279       2.8216      1.00000
    280       2.8693      1.00000
    281       2.8942      1.00000
    282       2.9132      1.00000
    283       2.9132      1.00000
    284       2.9144      1.00000
    285       2.9144      1.00000
    286       2.9495      1.00000
    287       2.9896      1.00000
    288       3.0871      1.00000
    289       3.0872      1.00000
    290       3.1074      1.00000
    291       3.1860      1.00000
    292       3.1915      1.00000
    293       3.2021      1.00000
    294       3.2021      1.00000
    295       3.2026      1.00000
    296       3.2026      1.00000
    297       3.2391      1.00000
    298       3.2400      1.00000
    299       3.2874      1.00000
    300       3.3874      1.00000
    301       3.3874      1.00000
    302       3.3887      1.00000
    303       3.3887      1.00000
    304       3.4751      1.00000
    305       3.4752      1.00000
    306       3.5374      1.00000
    307       3.5374      1.00000
    308       3.5414      1.00000
    309       3.5414      1.00000
    310       3.6342      1.00000
    311       3.6375      1.00000
    312       3.6495      1.00000
    313       3.6495      1.00000
    314       3.6533      1.00000
    315       3.6533      1.00000
    316       3.7535      1.00000
    317       3.7538      1.00000
    318       3.8661      1.00000
    319       4.0043      1.00000
    320       4.0569      1.00000
    321       4.0569      1.00000
    322       4.0583      1.00000
    323       4.0583      1.00000
    324       4.0915      1.00000
    325       4.0924      1.00000
[...]
 simple monoclinic supercell.


 Subroutine GETGRP returns: Found  2 space group operations
 (whereof  1 operations were pure point group operations)
 out of a pool of  4 trial point group operations.


The static configuration has the point symmetry C_1 .
 The point group associated with its full space group is C_2 .


Analysis of symmetry for dynamics (positions and initial velocities):
=====================================================================
 Subroutine PRICEL returns following result:
 
  LATTYP: Found a base centered monoclinic cell.
 ALAT       =    11.5810803850
 B/A-ratio  =     0.4540256441
 C/A-ratio  =     0.8989536376
 COS(beta)  =    -0.8113226473
  
  Lattice vectors:
  
 A1 = (  -2.5381365054,  -2.6290537404,   5.2046343580)
 A2 = (  -2.5381365054,   2.6290537404,   5.2046343580)
 A3 = (  -0.1816944613,   0.0000000000, -10.4092687161)
 
   8 primitive cells build up your supercell.
 

 Routine SETGRP: Setting up the symmetry group for a 
 simple monoclinic supercell.


 Subroutine GETGRP returns: Found  2 space group operations
 (whereof  1 operations were pure point group operations)
 out of a pool of  4 trial point group operations.


The dynamic configuration has the point symmetry C_1 .
 The point group associated with its full space group is C_2 .


Analysis of structural, dynamic, and magnetic symmetry:
=====================================================================
 Subroutine PRICEL returns following result:
 
  LATTYP: Found a base centered monoclinic cell.
 ALAT       =    11.5810803850
 B/A-ratio  =     0.4540256441
 C/A-ratio  =     0.8989536376
 COS(beta)  =    -0.8113226473
  
  Lattice vectors:
  
 A1 = (  -2.5381365054,  -2.6290537404,   5.2046343580)
 A2 = (  -2.5381365054,   2.6290537404,   5.2046343580)
 A3 = (  -0.1816944613,   0.0000000000, -10.4092687161)
 
   8 primitive cells build up your supercell.
 

 Routine SETGRP: Setting up the symmetry group for a 
 simple monoclinic supercell.


 Subroutine GETGRP returns: Found  2 space group operations
 (whereof  1 operations were pure point group operations)
 out of a pool of  4 trial point group operations.


The magnetic configuration has the point symmetry C_1 .
 The point group associated with its full space group is C_2 .


 Subroutine INISYM returns: Found  2 space group operations
 (whereof  1 operations are pure point group operations),
 and found     8 'primitive' translations



--------------------------------------------------------------------------------------------------------




 MACROSCOPIC STATIC DIELECTRIC TENSOR (including local field effects in DFT)
 ------------------------------------------------------
          16.100814     0.000000    -0.201203
           0.000000    16.093375     0.000000
          -0.201065     0.000000    15.496009
 ------------------------------------------------------


 PIEZOELECTRIC TENSOR (including local field effects)  for field in x, y, z        (e  Angst)
          XX          YY          ZZ          XY          YZ          ZX
  --------------------------------------------------------------------------------
  x     0.04593     0.02392    -0.07837     0.60301   -56.34915     0.03088
  y    -1.63356     1.64156    -1.96320     0.00000     0.00000   -58.31883
  z    -0.07548     0.02769     0.06249   -56.80278     1.50396    -0.05719

 PIEZOELECTRIC TENSOR (including local field effects)  for field in x, y, z        (C/m^2)
          XX          YY          ZZ          XY          YZ          ZX
  --------------------------------------------------------------------------------
  x     0.00000     0.00000     0.00000     0.00839    -0.78428     0.00000
  y    -0.02274     0.02285    -0.02732     0.00000     0.00000    -0.81169
  z     0.00000     0.00000     0.00000    -0.79059     0.02093     0.00000
 
 BORN EFFECTIVE CHARGES (including local field effects) (in e, cummulative output)
 ---------------------------------------------------------------------------------
 ion    1
    1    -1.64429    -0.01786    -0.01867
    2    -0.02802    -1.77964    -1.18215
    3    -0.02864    -1.14550    -1.67022
 ion    2
    1    -1.64429    -0.01786    -0.01867
    2    -0.02802    -1.77964    -1.18215
    3    -0.02864    -1.14550    -1.67022
 ion    3
    1    -1.64429    -0.01786    -0.01867
    2    -0.02802    -1.77964    -1.18215
    3    -0.02864    -1.14550    -1.67022
 ion    4
    1    -1.64429    -0.01786    -0.01867
    2    -0.02802    -1.77964    -1.18215
    3    -0.02864    -1.14550    -1.67022
 ion    5
    1    -1.64425     0.01833    -0.01876
    2     0.02802    -1.77964     1.18215
    3    -0.02866     1.14575    -1.67021
 ion    6
    1    -1.64425     0.01833    -0.01876
    2     0.02802    -1.77964     1.18215
    3    -0.02866     1.14575    -1.67021
 ion    7
    1    -1.64425     0.01833    -0.01876
    2     0.02802    -1.77964     1.18215
    3    -0.02866     1.14575    -1.67021
 ion    8
    1    -1.64425     0.01833    -0.01876
    2     0.02802    -1.77964     1.18215
    3    -0.02866     1.14575    -1.67021
 ion    9
    1    -1.72891     0.00031     1.17853
    2     0.00000    -1.60620    -0.00000
    3     1.12452     0.00009    -1.61825
 ion   10
    1    -1.72891     0.00031     1.17853
    2     0.00000    -1.60620    -0.00000
    3     1.12452     0.00009    -1.61825
 ion   11
    1    -1.72891     0.00031     1.17853
    2     0.00000    -1.60620    -0.00000
    3     1.12452     0.00009    -1.61825
 ion   12
    1    -1.72891     0.00031     1.17853
    2     0.00000    -1.60620    -0.00000
    3     1.12452     0.00009    -1.61825
 ion   13
    1    -1.82998     0.00028    -1.17878
    2     0.00000    -1.68350    -0.00000
    3    -1.16435     0.00017    -1.72786
 ion   14
    1    -1.82998     0.00028    -1.17878
    2     0.00000    -1.68350    -0.00000
    3    -1.16435     0.00017    -1.72786
 ion   15
    1    -1.82998     0.00028    -1.17878
    2     0.00000    -1.68350    -0.00000
    3    -1.16435     0.00017    -1.72786
 ion   16
    1    -1.82998     0.00028    -1.17878
    2     0.00000    -1.68350    -0.00000
    3    -1.16435     0.00017    -1.72786
 ion   17
    1    -1.64425     0.01833    -0.01876
    2     0.02802    -1.77964     1.18215
    3    -0.02866     1.14575    -1.67021
 ion   18
    1    -1.64425     0.01833    -0.01876
    2     0.02802    -1.77964     1.18215
    3    -0.02866     1.14575    -1.67021
 ion   19
    1    -1.64425     0.01833    -0.01876
    2     0.02802    -1.77964     1.18215
    3    -0.02866     1.14575    -1.67021
 ion   20
    1    -1.64425     0.01833    -0.01876
    2     0.02802    -1.77964     1.18215
    3    -0.02866     1.14575    -1.67021
 ion   21
    1    -1.64429    -0.01786    -0.01867
    2    -0.02802    -1.77964    -1.18215
    3    -0.02864    -1.14550    -1.67022
 ion   22
    1    -1.64429    -0.01786    -0.01867
    2    -0.02802    -1.77964    -1.18215
    3    -0.02864    -1.14550    -1.67022
 ion   23
    1    -1.64429    -0.01786    -0.01867
    2    -0.02802    -1.77964    -1.18215
    3    -0.02864    -1.14550    -1.67022
 ion   24
    1    -1.64429    -0.01786    -0.01867
    2    -0.02802    -1.77964    -1.18215
    3    -0.02864    -1.14550    -1.67022
 ion   25
    1    -1.72891     0.00031     1.17853
    2     0.00000    -1.60620    -0.00000
    3     1.12452     0.00009    -1.61825
 ion   26
    1    -1.72891     0.00031     1.17853
    2     0.00000    -1.60620    -0.00000
    3     1.12452     0.00009    -1.61825
 ion   27
    1    -1.72891     0.00031     1.17853
    2     0.00000    -1.60620    -0.00000
    3     1.12452     0.00009    -1.61825
 ion   28
    1    -1.72891     0.00031     1.17853
    2     0.00000    -1.60620    -0.00000
    3     1.12452     0.00009    -1.61825
 ion   29
    1    -1.82998     0.00028    -1.17878
    2     0.00000    -1.68350    -0.00000
    3    -1.16435     0.00017    -1.72786
 ion   30
    1    -1.82998     0.00028    -1.17878
    2     0.00000    -1.68350    -0.00000
    3    -1.16435     0.00017    -1.72786
 ion   31
    1    -1.82998     0.00028    -1.17878
    2     0.00000    -1.68350    -0.00000
    3    -1.16435     0.00017    -1.72786
 ion   32
    1    -1.82998     0.00028    -1.17878
    2     0.00000    -1.68350    -0.00000
    3    -1.16435     0.00017    -1.72786
 ion   33
    1     0.62588    -0.24518    -0.00433
    2     0.24522     0.62306    -0.01008
    3     0.00713     0.02425     0.48392
 ion   34
    1     0.62588    -0.24518    -0.00433
    2     0.24522     0.62306    -0.01008
    3     0.00713     0.02425     0.48392
 ion   35
    1     0.62588    -0.24518    -0.00433
    2     0.24522     0.62306    -0.01008
    3     0.00713     0.02425     0.48392
 ion   36
    1     0.62588    -0.24518    -0.00433
    2     0.24522     0.62306    -0.01008
    3     0.00713     0.02425     0.48392
 ion   37
    1     0.62533     0.24379    -0.00878
    2    -0.24522     0.62306     0.01008
    3     0.00598    -0.02473     0.48168
 ion   38
    1     0.62533     0.24379    -0.00878
    2    -0.24522     0.62306     0.01008
    3     0.00598    -0.02473     0.48168
 ion   39
    1     0.62533     0.24379    -0.00878
    2    -0.24522     0.62306     0.01008
    3     0.00598    -0.02473     0.48168
 ion   40
    1     0.62533     0.24379    -0.00878
    2    -0.24522     0.62306     0.01008
    3     0.00598    -0.02473     0.48168
 ion   41
    1     0.62588    -0.24518    -0.00433
    2     0.24522     0.62306    -0.01008
    3     0.00713     0.02425     0.48392
 ion   42
    1     0.62588    -0.24518    -0.00433
    2     0.24522     0.62306    -0.01008
    3     0.00713     0.02425     0.48392
 ion   43
    1     0.62588    -0.24518    -0.00433
    2     0.24522     0.62306    -0.01008
    3     0.00713     0.02425     0.48392
 ion   44
    1     0.62588    -0.24518    -0.00433
    2     0.24522     0.62306    -0.01008
    3     0.00713     0.02425     0.48392
 ion   45
    1     0.62533     0.24379    -0.00878
    2    -0.24522     0.62306     0.01008
    3     0.00598    -0.02473     0.48168
 ion   46
    1     0.62533     0.24379    -0.00878
    2    -0.24522     0.62306     0.01008
    3     0.00598    -0.02473     0.48168
 ion   47
    1     0.62533     0.24379    -0.00878
    2    -0.24522     0.62306     0.01008
    3     0.00598    -0.02473     0.48168
 ion   48
    1     0.62533     0.24379    -0.00878
    2    -0.24522     0.62306     0.01008
    3     0.00598    -0.02473     0.48168
 ion   49
    1     2.79720     0.11811     0.02502
    2    -0.12043     2.80142     0.00153
    3     0.04193    -0.02045     2.86041
 ion   50
    1     2.79720     0.11811     0.02502
    2    -0.12043     2.80142     0.00153
    3     0.04193    -0.02045     2.86041
 ion   51
    1     2.79720     0.11811     0.02502
    2    -0.12043     2.80142     0.00153
    3     0.04193    -0.02045     2.86041
 ion   52
    1     2.79720     0.11811     0.02502
    2    -0.12043     2.80142     0.00153
    3     0.04193    -0.02045     2.86041
 ion   53
    1     2.79902    -0.11778     0.02576
    2     0.12043     2.80142    -0.00153
    3     0.04209     0.02040     2.86052
 ion   54
    1     2.79902    -0.11778     0.02576
    2     0.12043     2.80142    -0.00153
    3     0.04209     0.02040     2.86052
 ion   55
    1     2.79902    -0.11778     0.02576
    2     0.12043     2.80142    -0.00153
    3     0.04209     0.02040     2.86052
 ion   56
    1     2.79902    -0.11778     0.02576
    2     0.12043     2.80142    -0.00153
    3     0.04209     0.02040     2.86052
 ion   57
    1     2.79720     0.11811     0.02502
    2    -0.12043     2.80142     0.00153
    3     0.04193    -0.02045     2.86041
 ion   58
    1     2.79720     0.11811     0.02502
    2    -0.12043     2.80142     0.00153
    3     0.04193    -0.02045     2.86041
 ion   59
    1     2.79720     0.11811     0.02502
    2    -0.12043     2.80142     0.00153
    3     0.04193    -0.02045     2.86041
 ion   60
    1     2.79720     0.11811     0.02502
    2    -0.12043     2.80142     0.00153
    3     0.04193    -0.02045     2.86041
 ion   61
    1     2.79902    -0.11778     0.02576
    2     0.12043     2.80142    -0.00153
    3     0.04209     0.02040     2.86052
 ion   62
    1     2.79902    -0.11778     0.02576
    2     0.12043     2.80142    -0.00153
    3     0.04209     0.02040     2.86052
 ion   63
    1     2.79902    -0.11778     0.02576
    2     0.12043     2.80142    -0.00153
    3     0.04209     0.02040     2.86052
 ion   64
    1     2.79902    -0.11778     0.02576
    2     0.12043     2.80142    -0.00153
    3     0.04209     0.02040     2.86052


--------------------------------------------------------------------------------------------------------


 writing wavefunctions
     LOOP+:  cpu time78092.2066: real time79884.2552
    4ORBIT:  cpu time    0.0001: real time    0.0009
 


 total charge     
 
# of ion       s       p       d       tot
------------------------------------------
    1        1.314   2.410   0.000   3.724
    2        1.314   2.410   0.000   3.724
    3        1.314   2.410   0.000   3.724
    4        1.314   2.410   0.000   3.724
    5        1.313   2.410   0.000   3.723
    6        1.313   2.410   0.000   3.723
    7        1.313   2.410   0.000   3.723
    8        1.313   2.410   0.000   3.723
    9        1.314   2.409   0.000   3.723
   10        1.314   2.409   0.000   3.723
   11        1.314   2.409   0.000   3.723
   12        1.314   2.409   0.000   3.723
   13        1.313   2.411   0.000   3.724
   14        1.313   2.411   0.000   3.724
   15        1.313   2.411   0.000   3.724
   16        1.313   2.411   0.000   3.724
   17        1.313   2.410   0.000   3.723
   18        1.313   2.410   0.000   3.723
   19        1.313   2.410   0.000   3.723
   20        1.313   2.410   0.000   3.723
   21        1.314   2.410   0.000   3.724
   22        1.314   2.410   0.000   3.724
   23        1.314   2.410   0.000   3.724
   24        1.314   2.410   0.000   3.724
   25        1.314   2.409   0.000   3.723
   26        1.314   2.409   0.000   3.723
   27        1.314   2.409   0.000   3.723
   28        1.314   2.409   0.000   3.723
   29        1.313   2.411   0.000   3.724
   30        1.313   2.411   0.000   3.724
   31        1.313   2.411   0.000   3.724
   32        1.313   2.411   0.000   3.724
   33        0.260   6.202   8.917  15.378
   34        0.260   6.202   8.917  15.378
   35        0.260   6.202   8.917  15.378
   36        0.260   6.202   8.917  15.378
   37        0.260   6.202   8.917  15.378
   38        0.260   6.202   8.917  15.378
   39        0.260   6.202   8.917  15.378
   40        0.260   6.202   8.917  15.378
   41        0.260   6.202   8.917  15.378
   42        0.260   6.202   8.917  15.378
   43        0.260   6.202   8.917  15.378
   44        0.260   6.202   8.917  15.378
   45        0.260   6.202   8.917  15.378
   46        0.260   6.202   8.917  15.378
   47        0.260   6.202   8.917  15.378
   48        0.260   6.202   8.917  15.378
   49        0.350   6.351   5.820  12.521
   50        0.350   6.351   5.820  12.521
   51        0.350   6.351   5.820  12.521
   52        0.350   6.351   5.820  12.521
   53        0.350   6.351   5.820  12.521
   54        0.350   6.351   5.820  12.521
   55        0.350   6.351   5.820  12.521
   56        0.350   6.351   5.820  12.521
   57        0.350   6.351   5.820  12.521
   58        0.350   6.351   5.820  12.521
   59        0.350   6.351   5.820  12.521
   60        0.350   6.351   5.820  12.521
   61        0.350   6.351   5.820  12.521
   62        0.350   6.351   5.820  12.521
   63        0.350   6.351   5.820  12.521
   64        0.350   6.351   5.820  12.521
--------------------------------------------------
tot         51.789 277.969 235.779 565.537
 


 magnetization (x)
 
# of ion       s       p       d       tot
------------------------------------------
    1        0.000  -0.004   0.000  -0.004
    2        0.000  -0.004   0.000  -0.004
    3        0.000  -0.004   0.000  -0.004
    4        0.000  -0.004   0.000  -0.004
    5        0.000   0.004   0.000   0.004
    6        0.000   0.004   0.000   0.004
    7        0.000   0.004   0.000   0.004
    8        0.000   0.004   0.000   0.004
    9       -0.000   0.000   0.000   0.000
   10       -0.000   0.000   0.000   0.000
   11       -0.000   0.000   0.000   0.000
   12       -0.000   0.000   0.000   0.000
   13       -0.000   0.000   0.000   0.000
   14       -0.000   0.000   0.000   0.000
   15       -0.000   0.000   0.000   0.000
   16       -0.000   0.000   0.000   0.000
   17        0.000   0.004   0.000   0.004
   18        0.000   0.004   0.000   0.004
   19        0.000   0.004   0.000   0.004
   20        0.000   0.004   0.000   0.004
   21        0.000  -0.004   0.000  -0.004
   22        0.000  -0.004   0.000  -0.004
   23        0.000  -0.004   0.000  -0.004
   24        0.000  -0.004   0.000  -0.004
   25       -0.000   0.000   0.000   0.000
   26       -0.000   0.000   0.000   0.000
   27       -0.000   0.000   0.000   0.000
   28       -0.000   0.000   0.000   0.000
   29       -0.000   0.000   0.000   0.000
   30       -0.000   0.000   0.000   0.000
   31       -0.000   0.000   0.000   0.000
   32       -0.000   0.000   0.000   0.000
   33        0.000   0.001  -0.001   0.000
   34        0.000   0.001  -0.001   0.000
   35        0.000   0.001  -0.001   0.000
   36        0.000   0.001  -0.001   0.000
   37       -0.000  -0.001   0.001   0.000
   38       -0.000  -0.001   0.001   0.000
   39       -0.000  -0.001   0.001   0.000
   40       -0.000  -0.001   0.001   0.000
   41        0.000   0.001  -0.001   0.000
   42        0.000   0.001  -0.001   0.000
   43        0.000   0.001  -0.001   0.000
   44        0.000   0.001  -0.001   0.000
   45       -0.000  -0.001   0.001   0.000
   46       -0.000  -0.001   0.001   0.000
   47       -0.000  -0.001   0.001   0.000
   48       -0.000  -0.001   0.001   0.000
   49        0.020   0.054   3.671   3.744
   50        0.020   0.054   3.671   3.744
   51        0.020   0.054   3.671   3.744
   52        0.020   0.054   3.671   3.744
   53       -0.020  -0.054  -3.671  -3.744
   54       -0.020  -0.054  -3.671  -3.744
   55       -0.020  -0.054  -3.671  -3.744
   56       -0.020  -0.054  -3.671  -3.744
   57        0.020   0.054   3.671   3.744
   58        0.020   0.054   3.671   3.744
   59        0.020   0.054   3.671   3.744
   60        0.020   0.054   3.671   3.744
   61       -0.020  -0.054  -3.671  -3.745
   62       -0.020  -0.054  -3.671  -3.744
   63       -0.020  -0.054  -3.671  -3.745
   64       -0.020  -0.054  -3.671  -3.744
--------------------------------------------------
tot         -0.000   0.000   0.000   0.000
 
 BZINTS: Fermi energy:  5.006930;688.000000 electrons
         Band energy:***********;  BLOECHL correction:  0.000000

 total amount of memory used by VASP MPI-rank0   881832. kBytes
=======================================================================

   base      :      30000. kBytes
   nonl-proj :     680181. kBytes
   fftplans  :       4588. kBytes
   grid      :      69719. kBytes
   one-center:       1990. kBytes
   wavefun   :      95354. kBytes
 
  
  
 General timing and accounting informations for this job:
 ========================================================
  
                  Total CPU time used (sec):    78242.812
                            User time (sec):    77978.373
                          System time (sec):      264.439
                         Elapsed time (sec):    80043.158
  
                   Maximum memory used (kb):     1947628.
                   Average memory used (kb):           0.
  
                          Minor page faults:     84871181
                          Major page faults:        38207
                 Voluntary context switches:        53986
