       N       E                     dE             d eps       ncg     rms          rms(c)
DAV:   1    -0.298255109583E+03   -0.29826E+03   -0.17410E+03 19456   0.242E+02    0.414E+01
DAV:   2    -0.327299861456E+03   -0.29045E+02   -0.29108E+02 14336   0.272E+01    0.167E+01
DAV:   3    -0.327619001176E+03   -0.31914E+00   -0.49241E+00 19968   0.460E+00    0.124E+01
DAV:   4    -0.327605811528E+03    0.13190E-01   -0.44203E-01 13312   0.187E+00    0.105E+01
DAV:   5    -0.327605575485E+03    0.23604E-03   -0.32798E-02 16128   0.550E-01    0.904E+00
DAV:   6    -0.327605178901E+03    0.39658E-03   -0.39933E-03 16128   0.168E-01    0.713E+00
DAV:   7    -0.327603254444E+03    0.19245E-02   -0.61614E-03 15872   0.230E-01    0.195E+00
DAV:   8    -0.327603245772E+03    0.86713E-05   -0.34848E-04 14336   0.369E-02    0.117E+00
DAV:   9    -0.327603231935E+03    0.13837E-04   -0.38582E-05 17408   0.118E-02    0.968E-01
DAV:  10    -0.327603208598E+03    0.23337E-04   -0.54860E-04 14336   0.453E-02    0.577E-02
DAV:  11    -0.327603212162E+03   -0.35633E-05   -0.17387E-05 15360   0.682E-03    0.677E-02
DAV:  12    -0.327603213758E+03   -0.15957E-05   -0.26529E-06 17152   0.207E-03    0.556E-02
DAV:  13    -0.327603215351E+03   -0.15938E-05   -0.44409E-06 15872   0.208E-03    0.434E-02
DAV:  14    -0.327603215731E+03   -0.37954E-06   -0.51412E-07 14336   0.103E-03    0.219E-02
DAV:  15    -0.327603215975E+03   -0.24385E-06   -0.19047E-07 16640   0.427E-04    0.827E-03
DAV:  16    -0.327603216111E+03   -0.13612E-06   -0.31030E-07 16640   0.506E-04    0.823E-04
DAV:  17    -0.327603216095E+03    0.16313E-07   -0.36602E-08 13312   0.249E-04    0.122E-03
DAV:  18    -0.327603216092E+03    0.20373E-08   -0.17636E-10  9728   0.550E-05
   1 F= -.32760322E+03 E0= -.32760322E+03  d E =-.420571E-48  mag=    -0.0000
