       N       E                     dE             d eps       ncg     rms          ort
SDA:   1     0.108683032951E+03    0.10868E+03    0.00000E+00 12480   0.505E+03 0.000E+00
CGA:   2     0.336190283800E+02   -0.75064E+02   -0.76317E+02 12480   0.352E+03 0.815E+00
CGA:   3    -0.318036983277E+02   -0.65423E+02   -0.65309E+02 12480   0.178E+03-0.712E+01
CGA:   4    -0.588976260141E+02   -0.27094E+02   -0.27427E+02 12480   0.622E+02 0.214E+01
CGA:   5    -0.705541493297E+02   -0.11657E+02   -0.11659E+02 12480   0.285E+02-0.306E+00
CGA:   6    -0.769416441206E+02   -0.63875E+01   -0.63759E+01 12480   0.137E+02 0.141E+00
CGA:   7    -0.798420201082E+02   -0.29004E+01   -0.29058E+01 12480   0.680E+01-0.284E+00
CGA:   8    -0.811355040791E+02   -0.12935E+01   -0.12936E+01 12480   0.283E+01 0.861E-02
CGA:   9    -0.816999794380E+02   -0.56448E+00   -0.56463E+00 12480   0.115E+01-0.386E-01
CGA:  10    -0.819098887159E+02   -0.20991E+00   -0.20992E+00 12480   0.411E+00-0.803E-03
CGA:  11    -0.819908332117E+02   -0.80944E-01   -0.80950E-01 12480   0.154E+00-0.174E-02
CGA:  12    -0.820220187915E+02   -0.31186E-01   -0.31182E-01 12480   0.697E-01 0.389E-03
CGA:  13    -0.820361572995E+02   -0.14139E-01   -0.14146E-01 12480   0.326E-01-0.349E-03
CGA:  14    -0.820433174542E+02   -0.71602E-02   -0.71859E-02 12480   0.152E-01-0.125E-03
CGA:  15    -0.820466423368E+02   -0.33249E-02   -0.33501E-02 12480   0.840E-02-0.133E-03
CGA:  16    -0.820483240015E+02   -0.16817E-02   -0.16860E-02 12480   0.363E-02-0.180E-03
CGA:  17    -0.820490893750E+02   -0.76537E-03   -0.77975E-03 12480   0.167E-02-0.559E-04
CGA:  18    -0.820494051455E+02   -0.31577E-03   -0.30388E-03 12480   0.727E-03-0.112E-04
CGA:  19    -0.820495497038E+02   -0.14456E-03   -0.14888E-03 12480   0.387E-03-0.257E-04
CGA:  20    -0.820496296438E+02   -0.79940E-04   -0.68179E-04 12480   0.242E-03-0.406E-04
CGA:  21    -0.820496074968E+02    0.22147E-04   -0.74167E-04 12480   0.422E-03-0.175E-03
CGA:  22    -0.820497262699E+02   -0.11877E-03   -0.32986E-04 12480   0.775E-04 0.841E-04
CGA:  23    -0.820497294235E+02   -0.31536E-05   -0.84389E-05 12480   0.709E-04 0.562E-04
CGA:  24    -0.820497491776E+02   -0.19754E-04   -0.33987E-05 12480   0.372E-04 0.390E-04
CGA:  25    -0.820497537243E+02   -0.45466E-05   -0.51962E-05 12480   0.251E-04 0.264E-04
CGA:  26    -0.820497611341E+02   -0.74098E-05   -0.12013E-05 12480   0.198E-04 0.194E-04
CGA:  27    -0.820497636054E+02   -0.24713E-05   -0.12458E-05 12480   0.171E-04 0.169E-04
CGA:  28    -0.820497668464E+02   -0.32410E-05   -0.72527E-06 12480   0.150E-04 0.149E-04
CGA:  29    -0.820497679398E+02   -0.10934E-05   -0.86886E-06 12480   0.133E-04 0.133E-04
CGA:  30    -0.820497687363E+02   -0.79657E-06   -0.60216E-06 12480   0.120E-04 0.118E-04
CGA:  31    -0.820497694995E+02   -0.76320E-06   -0.63109E-06 12480   0.109E-04 0.106E-04
CGA:  32    -0.820497709009E+02   -0.14014E-05   -0.47162E-06 12480   0.987E-05 0.966E-05
CGA:  33    -0.820497717036E+02   -0.80273E-06   -0.45381E-06 12480   0.908E-05 0.890E-05
CGA:  34    -0.820497729115E+02   -0.12079E-05   -0.38161E-06 12480   0.838E-05 0.822E-05
CGA:  35    -0.820497737648E+02   -0.85332E-06   -0.33780E-06 12480   0.780E-05 0.769E-05
CGA:  36    -0.820497743873E+02   -0.62248E-06   -0.31553E-06 12480   0.729E-05 0.719E-05
CGA:  37    -0.820497749207E+02   -0.53337E-06   -0.31353E-06 12480   0.683E-05 0.669E-05
CGA:  38    -0.820497755901E+02   -0.66941E-06   -0.26912E-06 12480   0.640E-05 0.626E-05
CGA:  39    -0.820497762063E+02   -0.61617E-06   -0.25446E-06 12480   0.602E-05 0.591E-05
CGA:  40    -0.820497769097E+02   -0.70349E-06   -0.21704E-06 12480   0.567E-05 0.561E-05
CGA:  41    -0.820497773647E+02   -0.45498E-06   -0.21219E-06 12480   0.537E-05 0.534E-05
CGA:  42    -0.820497777639E+02   -0.39913E-06   -0.19586E-06 12480   0.510E-05 0.507E-05
CGA:  43    -0.820497780956E+02   -0.33170E-06   -0.19392E-06 12480   0.485E-05 0.482E-05
CGA:  44    -0.820497784933E+02   -0.39774E-06   -0.16610E-06 12480   0.462E-05 0.459E-05
CGA:  45    -0.820497787720E+02   -0.27866E-06   -0.16356E-06 12480   0.442E-05 0.439E-05
CGA:  46    -0.820497790660E+02   -0.29402E-06   -0.14722E-06 12480   0.424E-05 0.421E-05
CGA:  47    -0.820497793513E+02   -0.28533E-06   -0.13962E-06 12480   0.407E-05 0.404E-05
CGA:  48    -0.820497796904E+02   -0.33909E-06   -0.12452E-06 12480   0.391E-05 0.390E-05
CGA:  49    -0.820497799472E+02   -0.25676E-06   -0.11472E-06 12480   0.377E-05 0.377E-05
CGA:  50    -0.820497801904E+02   -0.24325E-06   -0.10704E-06 12480   0.365E-05 0.365E-05
CGA:  51    -0.820497804204E+02   -0.22997E-06   -0.98805E-07 12480   0.354E-05 0.354E-05
CGA:  52    -0.820497806466E+02   -0.22623E-06   -0.90390E-07 12480   0.344E-05 0.344E-05
CGA:  53    -0.820497808453E+02   -0.19864E-06   -0.85014E-07 12480   0.334E-05 0.335E-05
CGA:  54    -0.820497810329E+02   -0.18768E-06   -0.79046E-07 12480   0.326E-05 0.327E-05
CGA:  55    -0.820497811942E+02   -0.16129E-06   -0.75209E-07 12480   0.318E-05 0.319E-05
CGA:  56    -0.820497813288E+02   -0.13460E-06   -0.72279E-07 12480   0.310E-05 0.312E-05
CGA:  57    -0.820497814151E+02   -0.86296E-07   -0.70321E-07 12480   0.303E-05 0.304E-05
CGA:  58    -0.820497814815E+02   -0.66342E-07   -0.68898E-07 12480   0.296E-05 0.297E-05
CGA:  59    -0.820497815967E+02   -0.11519E-06   -0.62798E-07 12480   0.290E-05 0.290E-05
CGA:  60    -0.820497817164E+02   -0.11971E-06   -0.61579E-07 12480   0.284E-05 0.284E-05
CGA:  61    -0.820497818861E+02   -0.16969E-06   -0.52611E-07 12480   0.278E-05 0.278E-05
CGA:  62    -0.820497820015E+02   -0.11542E-06   -0.49323E-07 12480   0.273E-05 0.274E-05
CGA:  63    -0.820497820901E+02   -0.88665E-07   -0.48194E-07 12480   0.269E-05 0.269E-05
CGA:  64    -0.820497822087E+02   -0.11852E-06   -0.42600E-07 12480   0.264E-05 0.265E-05
CGA:  65    -0.820497823531E+02   -0.14446E-06   -0.33492E-07 12480   0.261E-05 0.262E-05
CGA:  66    -0.820497824097E+02   -0.56560E-07   -0.35538E-07 12480   0.258E-05 0.258E-05
CGA:  67    -0.820497823446E+02    0.65116E-07   -0.35250E-07 12480   0.255E-05 0.255E-05
CGA:  68    -0.820497823307E+02    0.13872E-07   -0.47455E-07 12480   0.251E-05 0.250E-05
CGA:  69    -0.820497823957E+02   -0.64960E-07   -0.52862E-07 12480   0.246E-05 0.245E-05
CGA:  70    -0.820497825189E+02   -0.12328E-06   -0.44347E-07 12480   0.242E-05 0.241E-05
CGA:  71    -0.820497827720E+02   -0.25303E-06   -0.31456E-07 12480   0.238E-05 0.238E-05
CGA:  72    -0.820497828891E+02   -0.11711E-06   -0.23625E-07 12480   0.235E-05 0.236E-05
CGA:  73    -0.820497829484E+02   -0.59361E-07   -0.46032E-07 12480   0.231E-05 0.233E-05
CGA:  74    -0.820497830071E+02   -0.58630E-07   -0.12903E-07 12480   0.230E-05 0.230E-05
CGA:  75    -0.820497830664E+02   -0.59357E-07   -0.40943E-07 12480   0.226E-05 0.228E-05
CGA:  76    -0.820497831038E+02   -0.37326E-07   -0.10165E-07 12480   0.225E-05 0.226E-05
CGA:  77    -0.820497831424E+02   -0.38628E-07   -0.12448E-07 12480   0.224E-05 0.225E-05
CGA:  78    -0.820497831628E+02   -0.20467E-07   -0.10879E-07 12480   0.223E-05 0.224E-05
CGA:  79    -0.820497831744E+02   -0.11547E-07   -0.10095E-07 12480   0.223E-05 0.223E-05
CGA:  80    -0.820497831890E+02   -0.14588E-07   -0.90947E-08 12480   0.222E-05 0.222E-05
CGA:  81    -0.820497832050E+02   -0.16069E-07   -0.81398E-08 12480   0.221E-05 0.221E-05
CGA:  82    -0.820497832159E+02   -0.10823E-07   -0.72937E-08 12480   0.221E-05 0.221E-05
CGA:  83    -0.820497832304E+02   -0.14519E-07   -0.66376E-08 12480   0.220E-05 0.220E-05
CGA:  84    -0.820497832414E+02   -0.10972E-07   -0.58627E-08 12480   0.219E-05 0.220E-05
CGA:  85    -0.820497832521E+02   -0.10783E-07   -0.53187E-08 12480   0.219E-05 0.219E-05
CGA:  86    -0.820497832614E+02   -0.92587E-08   -0.47156E-08 12480   0.219E-05 0.219E-05
   1 F= -.82049783E+02 E0= -.82049783E+02  d E =0.000000E+00  mag=    -0.0000     0.0000    -0.0000
