 vasp.5.4.4.18Apr17-6-g9f103f2a35 (build Oct 30 2023 17:49:44) complex          
  
 executed on             LinuxIFC date 2024.12.11  04:33:37
 running on  256 total cores
 distrk:  each k-point on  256 cores,    1 groups
 distr:  one band on NCORES_PER_BAND=  32 cores,    8 groups


--------------------------------------------------------------------------------------------------------


 INCAR:
 POTCAR:    PAW_PBE S 06Sep2000                   
 POTCAR:     PAW_PBE Cu_pv 06Sep2000              
 POTCAR:     PAW_PBE Fe_pv 02Aug2007              
 POTCAR:    PAW_PBE S 06Sep2000                   
   SHA256 =  0fc7481fb0695f01bdc6462160264c5c84044ae9ec85a907d398b887a2bc3132 S/
   COPYR  = (c) Copyright 06Sep2000 Georg Kresse                                
   COPYR  = This file is part of the software VASP. Any use, copying, and all ot
   COPYR  = If you do not have a valid VASP license, you may not use, copy or di
   VRHFIN =S : s2p4                                                             
   LEXCH  = PE                                                                  
   EATOM  =   276.8230 eV,   20.3459 Ry                                         
                                                                                
   TITEL  = PAW_PBE S 06Sep2000                                                 
   LULTRA =        F    use ultrasoft PP ?                                      
   IUNSCR =        1    unscreen: 0-lin 1-nonlin 2-no                           
   RPACOR =    1.500    partial core radius                                     
   POMASS =   32.066; ZVAL   =    6.000    mass and valenz                      
   RCORE  =    1.900    outmost cutoff radius                                   
   RWIGS  =    2.200; RWIGS  =    1.164    wigner-seitz radius (au A)           
   ENMAX  =  258.689; ENMIN  =  194.016 eV                                      
   ICORE  =        2    local potential                                         
   LCOR   =        T    correct aug charges                                     
   LPAW   =        T    paw PP                                                  
   EAUG   =  335.092                                                            
   DEXC   =    0.000                                                            
   RMAX   =    1.942    core radius for proj-oper                               
   RAUG   =    1.300    factor for augmentation sphere                          
   RDEP   =    1.954    radius for radial grids                                 
   RDEPT  =    1.744    core radius for aug-charge                              
                                                                                
   Atomic configuration                                                         
    6 entries                                                                   
     n  l   j            E        occ.                                          
     1  0  0.50     -2405.8406   2.0000                                         
     2  0  0.50      -211.7007   2.0000                                         
     2  1  1.50      -156.4958   6.0000                                         
     3  0  0.50       -17.2562   2.0000                                         
     3  1  0.50        -7.0085   4.0000                                         
     3  2  1.50        -6.8029   0.0000                                         
   Description                                                                  
     l       E           TYP  RCUT    TYP  RCUT                                 
     0    -17.2561641     23  1.900                                             
     0    -15.8743224     23  1.900                                             
     1     -7.0085400     23  1.900                                             
     1     -2.7779785     23  1.900                                             
     2     -6.8029130     23  1.900                                             
  local pseudopotential read in
  partial core-charges read in
  partial kinetic energy density read in
  atomic valenz-charges read in
  non local Contribution for L=           0  read in
    real space projection operators read in
  non local Contribution for L=           0  read in
    real space projection operators read in
  non local Contribution for L=           1  read in
    real space projection operators read in
  non local Contribution for L=           1  read in
    real space projection operators read in
    PAW grid and wavefunctions read in
 
   number of l-projection  operators is LMAX  =           4
   number of lm-projection operators is LMMAX =           8
 
 POTCAR:     PAW_PBE Cu_pv 06Sep2000              
   SHA256 =  cb7b504e2ea725fe1f25c85a9ac77d4012ce94cd394135b722c4e25ec297f1cb Cu
   COPYR  = (c) Copyright 06Sep2000 Georg Kresse                                
   COPYR  = This file is part of the software VASP. Any use, copying, and all ot
   COPYR  = If you do not have a valid VASP license, you may not use, copy or di
   VRHFIN =Cu: d10 p1                                                           
   LEXCH  = PE                                                                  
   EATOM  =  4120.1201 eV,  302.8203 Ry                                         
                                                                                
   TITEL  = PAW_PBE Cu_pv 06Sep2000                                             
   LULTRA =        F    use ultrasoft PP ?                                      
   IUNSCR =        1    unscreen: 0-lin 1-nonlin 2-no                           
   RPACOR =    1.500    partial core radius                                     
   POMASS =   63.546; ZVAL   =   17.000    mass and valenz                      
   RCORE  =    2.000    outmost cutoff radius                                   
   RWIGS  =    2.000; RWIGS  =    1.058    wigner-seitz radius (au A)           
   ENMAX  =  368.648; ENMIN  =  276.486 eV                                      
   RCLOC  =    1.304    cutoff for local pot                                    
   LCOR   =        T    correct aug charges                                     
   LPAW   =        T    paw PP                                                  
   EAUG   =  758.233                                                            
   DEXC   =    0.000                                                            
   RMAX   =    2.046    core radius for proj-oper                               
   RAUG   =    1.300    factor for augmentation sphere                          
   RDEP   =    2.025    radius for radial grids                                 
   RDEPT  =    1.558    core radius for aug-charge                              
                                                                                
   Atomic configuration                                                         
    8 entries                                                                   
     n  l   j            E        occ.                                          
     1  0  0.50     -8850.2467   2.0000                                         
     2  0  0.50     -1062.3498   2.0000                                         
     2  1  1.50      -916.8226   6.0000                                         
     3  0  0.50      -114.6929   2.0000                                         
     3  1  1.50       -72.1325   6.0000                                         
     3  2  2.50        -5.0394  10.0000                                         
     4  0  0.50        -4.6097   1.0000                                         
     4  3  2.50        -1.3606   0.0000                                         
   Description                                                                  
     l       E           TYP  RCUT    TYP  RCUT                                 
     1    -72.1324777     23  1.700                                             
     1     -1.3605826     23  1.700                                             
     2     -5.0393776     23  2.000                                             
     2     -6.3999602     23  2.000                                             
     0     -4.6097062     23  1.800                                             
     0     14.1620818     23  1.800                                             
  local pseudopotential read in
  partial core-charges read in
  partial kinetic energy density read in
  atomic valenz-charges read in
  non local Contribution for L=           1  read in
    real space projection operators read in
  non local Contribution for L=           1  read in
    real space projection operators read in
  non local Contribution for L=           2  read in
    real space projection operators read in
  non local Contribution for L=           2  read in
    real space projection operators read in
  non local Contribution for L=           0  read in
    real space projection operators read in
  non local Contribution for L=           0  read in
    real space projection operators read in
    PAW grid and wavefunctions read in
 
   number of l-projection  operators is LMAX  =           6
   number of lm-projection operators is LMMAX =          18
 
 POTCAR:     PAW_PBE Fe_pv 02Aug2007              
   SHA256 =  5d22e414b1f82158bf2c7ecb8b97b28fd0923e48cadc1c3bf74d524558f5dd32 Fe
   COPYR  = (c) Copyright 02Aug2007 Georg Kresse                                
   COPYR  = This file is part of the software VASP. Any use, copying, and all ot
   COPYR  = If you do not have a valid VASP license, you may not use, copy or di
   VRHFIN =Fe:  3pd7s1                                                          
   LEXCH  = PE                                                                  
   EATOM  =  2457.4239 eV,  180.6156 Ry                                         
                                                                                
   TITEL  = PAW_PBE Fe_pv 02Aug2007                                             
   LULTRA =        F    use ultrasoft PP ?                                      
   IUNSCR =        1    unscreen: 0-lin 1-nonlin 2-no                           
   RPACOR =    1.750    partial core radius                                     
   POMASS =   55.847; ZVAL   =   14.000    mass and valenz                      
   RCORE  =    2.200    outmost cutoff radius                                   
   RWIGS  =    2.200; RWIGS  =    1.164    wigner-seitz radius (au A)           
   ENMAX  =  293.238; ENMIN  =  219.928 eV                                      
   ICORE  =        3    local potential                                         
   LCOR   =        T    correct aug charges                                     
   LPAW   =        T    paw PP                                                  
   EAUG   =  578.342                                                            
   DEXC   =    0.000                                                            
   RMAX   =    2.249    core radius for proj-oper                               
   RAUG   =    1.300    factor for augmentation sphere                          
   RDEP   =    2.296    radius for radial grids                                 
   RDEPT  =    1.766    core radius for aug-charge                              
                                                                                
   Atomic configuration                                                         
    8 entries                                                                   
     n  l   j            E        occ.                                          
     1  0  0.50     -6993.8440   2.0000                                         
     2  0  0.50      -814.6047   2.0000                                         
     2  1  1.50      -693.3689   6.0000                                         
     3  0  0.50       -89.4732   2.0000                                         
     3  1  1.50       -55.6373   6.0000                                         
     3  2  2.50        -3.8151   7.0000                                         
     4  0  0.50        -4.2551   1.0000                                         
     4  3  2.50        -1.3606   0.0000                                         
   Description                                                                  
     l       E           TYP  RCUT    TYP  RCUT                                 
     1    -55.6372668     23  2.000                                             
     1     -5.4423304     23  2.000                                             
     2     -3.8151096     23  2.200                                             
     2     -5.1756922     23  2.200                                             
     0     -4.2550951     23  2.200                                             
     0     27.2116520     23  2.200                                             
     3     -1.3605826     23  2.200                                             
  local pseudopotential read in
  partial core-charges read in
  partial kinetic energy density read in
  atomic valenz-charges read in
  non local Contribution for L=           1  read in
    real space projection operators read in
  non local Contribution for L=           1  read in
    real space projection operators read in
  non local Contribution for L=           2  read in
    real space projection operators read in
  non local Contribution for L=           2  read in
    real space projection operators read in
  non local Contribution for L=           0  read in
    real space projection operators read in
  non local Contribution for L=           0  read in
    real space projection operators read in
    PAW grid and wavefunctions read in
 
   number of l-projection  operators is LMAX  =           6
   number of lm-projection operators is LMMAX =          18
 

 ----------------------------------------------------------------------------- 
|                                                                             |
|  ADVICE TO THIS USER RUNNING 'VASP/VAMP'   (HEAR YOUR MASTER'S VOICE ...):  |
|                                                                             |
|      You enforced a specific xc-type in the INCAR file,                     |
|      a different type was found on the POTCAR file                          |
|          I HOPE YOU KNOW, WHAT YOU ARE  DOING                               |
|                                                                             |
 ----------------------------------------------------------------------------- 

  PAW_PBE S 06Sep2000                   :
 energy of atom  1       EATOM= -276.8230
 kinetic energy error for atom=    0.0007 (will be added to EATOM!!)
   PAW_PBE Cu_pv 06Sep2000              :
 energy of atom  2       EATOM=-4120.1201
 kinetic energy error for atom=    0.0094 (will be added to EATOM!!)
   PAW_PBE Fe_pv 02Aug2007              :
 energy of atom  3       EATOM=-2457.4239
 kinetic energy error for atom=    0.0025 (will be added to EATOM!!)
 
 
 POSCAR: sm_isp_SD0310437-standardized_unitcell  
  positions in direct lattice
  velocities in cartesian coordinates
 exchange correlation table for  LEXCH =       14
   RHO(1)=    0.500       N(1)  =     2000
   RHO(2)=  100.500       N(2)  =     4000
 


--------------------------------------------------------------------------------------------------------


 ion  position               nearest neighbor table
   1  0.252  0.250  0.125-  10 2.26  11 2.26  13 2.27  16 2.27
   2  0.748  0.750  0.125-  10 2.26  11 2.26  13 2.27  16 2.27
   3  0.250  0.747  0.875-  11 2.26  12 2.26  13 2.27  14 2.27
   4  0.750  0.253  0.875-  11 2.26  12 2.26  13 2.27  14 2.27
   5  0.248  0.250  0.625-   9 2.26  12 2.26  14 2.27  15 2.27
   6  0.752  0.750  0.625-   9 2.26  12 2.26  14 2.27  15 2.27
   7  0.750  0.247  0.375-   9 2.26  10 2.26  15 2.27  16 2.27
   8  0.250  0.753  0.375-   9 2.26  10 2.26  15 2.27  16 2.27
   9  0.000  0.000  0.500-   5 2.26   6 2.26   7 2.26   8 2.26
  10  0.500  0.000  0.250-   1 2.26   2 2.26   7 2.26   8 2.26
  11  0.500  0.500  0.000-   1 2.26   2 2.26   4 2.26   3 2.26
  12  0.000  0.500  0.750-   5 2.26   6 2.26   4 2.26   3 2.26
  13  0.000  0.000  0.000-   2 2.27   1 2.27   3 2.27   4 2.27
  14  0.500  0.000  0.750-   6 2.27   5 2.27   3 2.27   4 2.27
  15  0.500  0.500  0.500-   6 2.27   5 2.27   8 2.27   7 2.27
  16  0.000  0.500  0.250-   2 2.27   1 2.27   8 2.27   7 2.27
 
  LATTYP: Found a simple orthorhombic cell.
 ALAT       =     5.2061977990
 B/A-ratio  =     1.0239434815
 C/A-ratio  =     1.9792277963
  
  Lattice vectors:
  
 A1 = (   5.2061977990,   0.0000000000,   0.0000000000)
 A2 = (   0.0000000000,   5.3308522994,   0.0000000000)
 A3 = (   0.0000000000,   0.0000000000,  10.3042513969)


Analysis of symmetry for initial positions (statically):
=====================================================================
 Subroutine PRICEL returns following result:
 
  LATTYP: Found a body centered orthorhombic cell.
 ALAT       =     5.2061977990
 B/A-ratio  =     1.0239434815
 C/A-ratio  =     1.9792277963
  
  Lattice vectors:
  
 A1 = (   2.6030988995,  -2.6654261497,   5.1521256984)
 A2 = (  -2.6030988995,   2.6654261497,   5.1521256984)
 A3 = (  -2.6030988995,  -2.6654261497,  -5.1521256984)
 
   2 primitive cells build up your supercell.
 

 Routine SETGRP: Setting up the symmetry group for a 
 simple orthorhombic supercell.


 Subroutine GETGRP returns: Found  2 space group operations
 (whereof  2 operations were pure point group operations)
 out of a pool of  8 trial point group operations.


The static configuration has the point symmetry C_2 .


Analysis of symmetry for dynamics (positions and initial velocities):
=====================================================================
 Subroutine PRICEL returns following result:
 
  LATTYP: Found a body centered orthorhombic cell.
 ALAT       =     5.2061977990
 B/A-ratio  =     1.0239434815
 C/A-ratio  =     1.9792277963
  
  Lattice vectors:
  
 A1 = (   2.6030988995,  -2.6654261497,   5.1521256984)
 A2 = (  -2.6030988995,   2.6654261497,   5.1521256984)
 A3 = (  -2.6030988995,  -2.6654261497,  -5.1521256984)
 
   2 primitive cells build up your supercell.
 

 Routine SETGRP: Setting up the symmetry group for a 
 simple orthorhombic supercell.


 Subroutine GETGRP returns: Found  2 space group operations
 (whereof  2 operations were pure point group operations)
 out of a pool of  8 trial point group operations.


The dynamic configuration has the point symmetry C_2 .


Analysis of structural, dynamic, and magnetic symmetry:
=====================================================================
 Subroutine PRICEL returns following result:
 
  LATTYP: Found a body centered orthorhombic cell.
 ALAT       =     5.2061977990
 B/A-ratio  =     1.0239434815
 C/A-ratio  =     1.9792277963
  
  Lattice vectors:
  
 A1 = (   2.6030988995,  -2.6654261497,   5.1521256984)
 A2 = (  -2.6030988995,   2.6654261497,   5.1521256984)
 A3 = (  -2.6030988995,  -2.6654261497,  -5.1521256984)
 
   2 primitive cells build up your supercell.
 

 Routine SETGRP: Setting up the symmetry group for a 
 simple orthorhombic supercell.


 Subroutine GETGRP returns: Found  2 space group operations
 (whereof  2 operations were pure point group operations)
 out of a pool of  8 trial point group operations.


The (compounded) configuration has the point symmetry C_2 .


 Subroutine INISYM returns: Found  2 space group operations
 (whereof  2 operations are pure point group operations),
 and found     2 'primitive' translations

 
 
 KPOINTS: Automatic mesh                          

Automatic generation of k-mesh.
Space group operators:
 irot       det(A)        alpha          n_x          n_y          n_z        tau_x        tau_y        tau_z
    1     1.000000     0.000000     1.000000     0.000000     0.000000     0.000000     0.000000     0.000000
    2     1.000000   180.000000     0.000000     0.000000     1.000000     0.000000     0.000000     0.000000
 
 Subroutine IBZKPT returns following result:
 ===========================================
 
 Found     60 irreducible k-points:
 
 Following reciprocal coordinates:
            Coordinates               Weight
  0.000000  0.000000  0.000000      1.000000
  0.166667  0.000000  0.000000      2.000000
  0.333333  0.000000  0.000000      2.000000
  0.500000  0.000000  0.000000      1.000000
  0.000000  0.166667  0.000000      2.000000
  0.166667  0.166667  0.000000      2.000000
  0.333333  0.166667  0.000000      2.000000
  0.500000  0.166667  0.000000      2.000000
 -0.333333  0.166667  0.000000      2.000000
 -0.166667  0.166667  0.000000      2.000000
  0.000000  0.333333  0.000000      2.000000
  0.166667  0.333333  0.000000      2.000000
  0.333333  0.333333  0.000000      2.000000
  0.500000  0.333333  0.000000      2.000000
 -0.333333  0.333333  0.000000      2.000000
 -0.166667  0.333333  0.000000      2.000000
  0.000000  0.500000  0.000000      1.000000
  0.166667  0.500000  0.000000      2.000000
  0.333333  0.500000  0.000000      2.000000
  0.500000  0.500000  0.000000      1.000000
  0.000000  0.000000  0.333333      1.000000
  0.166667  0.000000  0.333333      2.000000
  0.333333  0.000000  0.333333      2.000000
  0.500000  0.000000  0.333333      1.000000
  0.000000  0.166667  0.333333      2.000000
  0.166667  0.166667  0.333333      2.000000
  0.333333  0.166667  0.333333      2.000000
  0.500000  0.166667  0.333333      2.000000
 -0.333333  0.166667  0.333333      2.000000
 -0.166667  0.166667  0.333333      2.000000
  0.000000  0.333333  0.333333      2.000000
  0.166667  0.333333  0.333333      2.000000
  0.333333  0.333333  0.333333      2.000000
  0.500000  0.333333  0.333333      2.000000
 -0.333333  0.333333  0.333333      2.000000
 -0.166667  0.333333  0.333333      2.000000
  0.000000  0.500000  0.333333      1.000000
  0.166667  0.500000  0.333333      2.000000
  0.333333  0.500000  0.333333      2.000000
  0.500000  0.500000  0.333333      1.000000
  0.000000  0.000000 -0.333333      1.000000
  0.166667  0.000000 -0.333333      2.000000
  0.333333  0.000000 -0.333333      2.000000
  0.500000  0.000000 -0.333333      1.000000
  0.000000  0.166667 -0.333333      2.000000
  0.166667  0.166667 -0.333333      2.000000
  0.333333  0.166667 -0.333333      2.000000
  0.500000  0.166667 -0.333333      2.000000
 -0.333333  0.166667 -0.333333      2.000000
 -0.166667  0.166667 -0.333333      2.000000
  0.000000  0.333333 -0.333333      2.000000
  0.166667  0.333333 -0.333333      2.000000
  0.333333  0.333333 -0.333333      2.000000
  0.500000  0.333333 -0.333333      2.000000
 -0.333333  0.333333 -0.333333      2.000000
 -0.166667  0.333333 -0.333333      2.000000
  0.000000  0.500000 -0.333333      1.000000
  0.166667  0.500000 -0.333333      2.000000
  0.333333  0.500000 -0.333333      2.000000
  0.500000  0.500000 -0.333333      1.000000
 
 Following cartesian coordinates:
            Coordinates               Weight
  0.000000  0.000000  0.000000      1.000000
  0.032013  0.000000  0.000000      2.000000
  0.064026  0.000000  0.000000      2.000000
  0.096039  0.000000  0.000000      1.000000
  0.000000  0.031265  0.000000      2.000000
  0.032013  0.031265  0.000000      2.000000
  0.064026  0.031265  0.000000      2.000000
  0.096039  0.031265  0.000000      2.000000
 -0.064026  0.031265  0.000000      2.000000
 -0.032013  0.031265  0.000000      2.000000
  0.000000  0.062529  0.000000      2.000000
  0.032013  0.062529  0.000000      2.000000
  0.064026  0.062529  0.000000      2.000000
  0.096039  0.062529  0.000000      2.000000
 -0.064026  0.062529  0.000000      2.000000
 -0.032013  0.062529  0.000000      2.000000
  0.000000  0.093794  0.000000      1.000000
  0.032013  0.093794  0.000000      2.000000
  0.064026  0.093794  0.000000      2.000000
  0.096039  0.093794  0.000000      1.000000
  0.000000  0.000000  0.032349      1.000000
  0.032013  0.000000  0.032349      2.000000
  0.064026  0.000000  0.032349      2.000000
  0.096039  0.000000  0.032349      1.000000
  0.000000  0.031265  0.032349      2.000000
  0.032013  0.031265  0.032349      2.000000
  0.064026  0.031265  0.032349      2.000000
  0.096039  0.031265  0.032349      2.000000
 -0.064026  0.031265  0.032349      2.000000
 -0.032013  0.031265  0.032349      2.000000
  0.000000  0.062529  0.032349      2.000000
  0.032013  0.062529  0.032349      2.000000
  0.064026  0.062529  0.032349      2.000000
  0.096039  0.062529  0.032349      2.000000
 -0.064026  0.062529  0.032349      2.000000
 -0.032013  0.062529  0.032349      2.000000
  0.000000  0.093794  0.032349      1.000000
  0.032013  0.093794  0.032349      2.000000
  0.064026  0.093794  0.032349      2.000000
  0.096039  0.093794  0.032349      1.000000
  0.000000  0.000000 -0.032349      1.000000
  0.032013  0.000000 -0.032349      2.000000
  0.064026  0.000000 -0.032349      2.000000
  0.096039  0.000000 -0.032349      1.000000
  0.000000  0.031265 -0.032349      2.000000
  0.032013  0.031265 -0.032349      2.000000
  0.064026  0.031265 -0.032349      2.000000
  0.096039  0.031265 -0.032349      2.000000
 -0.064026  0.031265 -0.032349      2.000000
 -0.032013  0.031265 -0.032349      2.000000
  0.000000  0.062529 -0.032349      2.000000
  0.032013  0.062529 -0.032349      2.000000
  0.064026  0.062529 -0.032349      2.000000
  0.096039  0.062529 -0.032349      2.000000
 -0.064026  0.062529 -0.032349      2.000000
 -0.032013  0.062529 -0.032349      2.000000
  0.000000  0.093794 -0.032349      1.000000
  0.032013  0.093794 -0.032349      2.000000
  0.064026  0.093794 -0.032349      2.000000
  0.096039  0.093794 -0.032349      1.000000
 
 TETIRR: Found    648 inequivalent tetrahedra from      648


--------------------------------------------------------------------------------------------------------




 Dimension of arrays:
   k-points           NKPTS =     60   k-points in BZ     NKDIM =     60   number of bands    NBANDS=    208
   number of dos      NEDOS =    301   number of ions     NIONS =     16
   non local maximal  LDIM  =      6   non local SUM 2l+1 LMDIM =     18
   total plane-waves  NPLWV = 207360
   max r-space proj   IRMAX =      1   max aug-charges    IRDMAX=  23041
   dimension x,y,z NGX =    48 NGY =   48 NGZ =   90
   dimension x,y,z NGXF=    96 NGYF=   96 NGZF=  180
   support grid    NGXF=    96 NGYF=   96 NGZF=  180
   ions per type =               8   4   4
   NGX,Y,Z   is equivalent  to a cutoff of  15.33, 14.97, 14.52 a.u.
   NGXF,Y,Z  is equivalent  to a cutoff of  30.66, 29.94, 29.04 a.u.

 SYSTEM =  CuFeS2                                  
 POSCAR =  sm_isp_SD0310437-standardized_unitcell  

 Startparameter for this run:
   NWRITE =      2    write-flag & timer
   PREC   = accura    normal or accurate (medium, high low for compatibility)
   ISTART =      1    job   : 0-new  1-cont  2-samecut
   ICHARG =      1    charge: 1-file 2-atom 10-const
   ISPIN  =      1    spin polarized calculation?
   LNONCOLLINEAR =      T non collinear calculations
   LSORBIT =      F    spin-orbit coupling
   INIWAV =      1    electr: 0-lowe 1-rand  2-diag
   LASPH  =      T    aspherical Exc in radial PAW
   METAGGA=      F    non-selfconsistent MetaGGA calc.

 Electronic Relaxation 1
   ENCUT  =  700.0 eV  51.45 Ry    7.17 a.u.  11.23 11.50 22.23*2*pi/ulx,y,z
   ENINI  =  700.0     initial cutoff
   ENAUG  =  758.2 eV  augmentation charge cutoff
   NELM   =    200;   NELMIN=  2; NELMDL=  0     # of ELM steps 
   EDIFF  = 0.1E-07   stopping-criterion for ELM
   LREAL  =      F    real-space projection
   NLSPLINE    = F    spline interpolate recip. space projectors
   LCOMPAT=      F    compatible to vasp.4.4
   GGA_COMPAT  = T    GGA compatible to vasp.4.4-vasp.4.6
   LMAXPAW     = -100 max onsite density
   LMAXMIX     =    4 max onsite mixed and CHGCAR
   VOSKOWN=      0    Vosko Wilk Nusair interpolation
   ROPT   =    0.00000   0.00000   0.00000
 Ionic relaxation
   EDIFFG = -.1E-04   stopping-criterion for IOM
   NSW    =      0    number of steps for IOM
   NBLOCK =      1;   KBLOCK =      1    inner block; outer block 
   IBRION =     -1    ionic relax: 0-MD 1-quasi-New 2-CG
   NFREE  =      0    steps in history (QN), initial steepest desc. (CG)
   ISIF   =      2    stress and relaxation
   IWAVPR =     10    prediction:  0-non 1-charg 2-wave 3-comb
   ISYM   =      1    0-nonsym 1-usesym 2-fastsym
   LCORR  =      T    Harris-Foulkes like correction to forces

   POTIM  = 0.1000    time-step for ionic-motion
   TEIN   =    0.0    initial temperature
   TEBEG  =    0.0;   TEEND  =   0.0 temperature during run
   SMASS  =  -3.00    Nose mass-parameter (am)
   estimated Nose-frequenzy (Omega)   =  0.10E-29 period in steps =****** mass=  -0.619E-27a.u.
   SCALEE = 1.0000    scale energy and forces
   NPACO  =    256;   APACO  = 16.0  distance and # of slots for P.C.
   PSTRESS=    0.0 pullay stress

  Mass of Ions in am
   POMASS =  32.07 63.55 55.85
  Ionic Valenz
   ZVAL   =   6.00 17.00 14.00
  Atomic Wigner-Seitz radii
   RWIGS  =  -1.00 -1.00 -1.00
  virtual crystal weights 
   VCA    =   1.00  1.00  1.00
   NELECT =     172.0000    total number of electrons
   NUPDOWN=      -1.0000    fix difference up-down

 DOS related values:
   EMIN   =  10.00;   EMAX   =-10.00  energy-range for DOS
   EFERMI =   0.00
   ISMEAR =    -5;   SIGMA  =   0.03  broadening in eV -4-tet -1-fermi 0-gaus

 Electronic relaxation 2 (details)
   IALGO  =     58    algorithm
   LDIAG  =      T    sub-space diagonalisation (order eigenvalues)
   LSUBROT=      F    optimize rotation matrix (better conditioning)
   TURBO    =      0    0=normal 1=particle mesh
   IRESTART =      0    0=no restart 2=restart with 2 vectors
   NREBOOT  =      0    no. of reboots
   NMIN     =      0    reboot dimension
   EREF     =   0.00    reference energy to select bands
   IMIX   =      4    mixing-type and parameters
     AMIX     =   0.40;   BMIX     =  1.00
     AMIX_MAG =   1.60;   BMIX_MAG =  1.00
     AMIN     =   0.10
     WC   =   100.;   INIMIX=   1;  MIXPRE=   1;  MAXMIX= -45

 Intra band minimization:
   WEIMIN = 0.0000     energy-eigenvalue tresh-hold
   EBREAK =  0.12E-10  absolut break condition
   DEPER  =   0.30     relativ break condition  

   TIME   =   0.40     timestep for ELM

  volume/ion in A,a.u.               =      17.87       120.62
  Fermi-wavevector in a.u.,A,eV,Ry     =   1.381889  2.611391 25.981908  1.909616
  Thomas-Fermi vector in A             =   2.506631
 
 Write flags
   LWAVE        =      T    write WAVECAR
   LDOWNSAMPLE  =      F    k-point downsampling of WAVECAR
   LCHARG       =      T    write CHGCAR
   LVTOT        =      F    write LOCPOT, total local potential
   LVHAR        =      F    write LOCPOT, Hartree potential only
   LELF         =      F    write electronic localiz. function (ELF)
   LORBIT       =     11    0 simple, 1 ext, 2 COOP (PROOUT), +10 PAW based schemes


 Dipole corrections
   LMONO  =      F    monopole corrections only (constant potential shift)
   LDIPOL =      F    correct potential (dipole corrections)
   IDIPOL =      0    1-x, 2-y, 3-z, 4-all directions 
   EPSILON=  1.0000000 bulk dielectric constant

 LDA+U is selected, type is set to LDAUTYPE =  2
   angular momentum for each species LDAUL =     2    2    2
   U (eV)           for each species LDAUU =   0.0  0.1  4.7
   J (eV)           for each species LDAUJ =   0.0  0.0  0.0
 Exchange correlation treatment:
   GGA     =    PS    GGA type
   LEXCH   =    14    internal setting for exchange type
   VOSKOWN=      0    Vosko Wilk Nusair interpolation
   LHFCALC =     F    Hartree Fock is set to
   LHFONE  =     F    Hartree Fock one center treatment
   AEXX    =    0.0000 exact exchange contribution

 Linear response parameters
   LEPSILON=     F    determine dielectric tensor
   LRPA    =     F    only Hartree local field effects (RPA)
   LNABLA  =     F    use nabla operator in PAW spheres
   LVEL    =     F    velocity operator in full k-point grid
   LINTERFAST=   F  fast interpolation
   KINTER  =     0    interpolate to denser k-point grid
   CSHIFT  =0.1000    complex shift for real part using Kramers Kronig
   OMEGAMAX=  -1.0    maximum frequency
   DEG_THRESHOLD= 0.2000000E-02 threshold for treating states as degnerate
   RTIME   =   -0.100 relaxation time in fs
  (WPLASMAI=    0.000 imaginary part of plasma frequency in eV, 0.658/RTIME)
   DFIELD  = 0.0000000 0.0000000 0.0000000 field for delta impulse in time
 
 Orbital magnetization related:
   ORBITALMAG=     F  switch on orbital magnetization
   LCHIMAG   =     F  perturbation theory with respect to B field
   DQ        =  0.001000  dq finite difference perturbation B field
   LLRAUG    =     F  two centre corrections for induced B field



--------------------------------------------------------------------------------------------------------


 Static calculation
 charge density and potential will be updated during run
 non collinear spin polarized calculation
 Conjugate gradient for all bands (Freysoldt, et al. PRB 79, 241103 (2009))
 preconditioned conjugated gradient                                        
 perform sub-space diagonalisation
    before iterative eigenvector-optimisation
 modified Broyden-mixing scheme, WC =      100.0
 initial mixing is a Kerker type mixing with AMIX =  0.4000 and BMIX =      1.0000
 Hartree-type preconditioning will be used
 using additional bands          122
 reciprocal scheme for non local part
 use partial core corrections
 no Harris-corrections to forces 
 use gradient corrections 
 use of overlap-Matrix (Vanderbilt PP)
 Fermi weights with tetrahedron method with Bloechl corrections


--------------------------------------------------------------------------------------------------------


  energy-cutoff  :      700.00
  volume of cell :      285.98
      direct lattice vectors                 reciprocal lattice vectors
     5.206197799  0.000000000  0.000000000     0.192078757  0.000000000  0.000000000
     0.000000000  5.330852299  0.000000000     0.000000000  0.187587264  0.000000000
     0.000000000  0.000000000 10.304251397     0.000000000  0.000000000  0.097047322

  length of vectors
     5.206197799  5.330852299 10.304251397     0.192078757  0.187587264  0.097047322


 
 old parameters found on file WAVECAR:
  energy-cutoff  :      700.00
  volume of cell :      285.95
      direct lattice vectors                 reciprocal lattice vectors
     5.206197799  0.000000000  0.000000000     0.192078757  0.000000000  0.000000000
     0.000000000  5.330338141  0.000000000     0.000000000  0.187605359  0.000000000
     0.000000000  0.000000000 10.304251397     0.000000000  0.000000000  0.097047322

  length of vectors

 
 k-points in units of 2pi/SCALE and weight: Automatic mesh                          
   0.00000000  0.00000000  0.00000000       0.009
   0.03201313  0.00000000  0.00000000       0.019
   0.06402625  0.00000000  0.00000000       0.019
   0.09603938  0.00000000  0.00000000       0.009
   0.00000000  0.03126454  0.00000000       0.019
   0.03201313  0.03126454  0.00000000       0.019
   0.06402625  0.03126454  0.00000000       0.019
   0.09603938  0.03126454  0.00000000       0.019
  -0.06402625  0.03126454  0.00000000       0.019
  -0.03201313  0.03126454  0.00000000       0.019
   0.00000000  0.06252909  0.00000000       0.019
   0.03201313  0.06252909  0.00000000       0.019
   0.06402625  0.06252909  0.00000000       0.019
   0.09603938  0.06252909  0.00000000       0.019
  -0.06402625  0.06252909  0.00000000       0.019
  -0.03201313  0.06252909  0.00000000       0.019
   0.00000000  0.09379363  0.00000000       0.009
   0.03201313  0.09379363  0.00000000       0.019
   0.06402625  0.09379363  0.00000000       0.019
   0.09603938  0.09379363  0.00000000       0.009
   0.00000000  0.00000000  0.03234911       0.009
   0.03201313  0.00000000  0.03234911       0.019
   0.06402625  0.00000000  0.03234911       0.019
   0.09603938  0.00000000  0.03234911       0.009
   0.00000000  0.03126454  0.03234911       0.019
   0.03201313  0.03126454  0.03234911       0.019
   0.06402625  0.03126454  0.03234911       0.019
   0.09603938  0.03126454  0.03234911       0.019
  -0.06402625  0.03126454  0.03234911       0.019
  -0.03201313  0.03126454  0.03234911       0.019
   0.00000000  0.06252909  0.03234911       0.019
   0.03201313  0.06252909  0.03234911       0.019
   0.06402625  0.06252909  0.03234911       0.019
   0.09603938  0.06252909  0.03234911       0.019
  -0.06402625  0.06252909  0.03234911       0.019
  -0.03201313  0.06252909  0.03234911       0.019
   0.00000000  0.09379363  0.03234911       0.009
   0.03201313  0.09379363  0.03234911       0.019
   0.06402625  0.09379363  0.03234911       0.019
   0.09603938  0.09379363  0.03234911       0.009
   0.00000000  0.00000000 -0.03234911       0.009
   0.03201313  0.00000000 -0.03234911       0.019
   0.06402625  0.00000000 -0.03234911       0.019
   0.09603938  0.00000000 -0.03234911       0.009
   0.00000000  0.03126454 -0.03234911       0.019
   0.03201313  0.03126454 -0.03234911       0.019
   0.06402625  0.03126454 -0.03234911       0.019
   0.09603938  0.03126454 -0.03234911       0.019
  -0.06402625  0.03126454 -0.03234911       0.019
  -0.03201313  0.03126454 -0.03234911       0.019
   0.00000000  0.06252909 -0.03234911       0.019
   0.03201313  0.06252909 -0.03234911       0.019
   0.06402625  0.06252909 -0.03234911       0.019
   0.09603938  0.06252909 -0.03234911       0.019
  -0.06402625  0.06252909 -0.03234911       0.019
  -0.03201313  0.06252909 -0.03234911       0.019
   0.00000000  0.09379363 -0.03234911       0.009
   0.03201313  0.09379363 -0.03234911       0.019
   0.06402625  0.09379363 -0.03234911       0.019
   0.09603938  0.09379363 -0.03234911       0.009
 
 k-points in reciprocal lattice and weights: Automatic mesh                          
   0.00000000  0.00000000  0.00000000       0.009
   0.16666667  0.00000000  0.00000000       0.019
   0.33333333  0.00000000  0.00000000       0.019
   0.50000000  0.00000000  0.00000000       0.009
   0.00000000  0.16666667  0.00000000       0.019
   0.16666667  0.16666667  0.00000000       0.019
   0.33333333  0.16666667  0.00000000       0.019
   0.50000000  0.16666667  0.00000000       0.019
  -0.33333333  0.16666667  0.00000000       0.019
  -0.16666667  0.16666667  0.00000000       0.019
   0.00000000  0.33333333  0.00000000       0.019
   0.16666667  0.33333333  0.00000000       0.019
   0.33333333  0.33333333  0.00000000       0.019
   0.50000000  0.33333333  0.00000000       0.019
  -0.33333333  0.33333333  0.00000000       0.019
  -0.16666667  0.33333333  0.00000000       0.019
   0.00000000  0.50000000  0.00000000       0.009
   0.16666667  0.50000000  0.00000000       0.019
   0.33333333  0.50000000  0.00000000       0.019
   0.50000000  0.50000000  0.00000000       0.009
   0.00000000  0.00000000  0.33333333       0.009
   0.16666667  0.00000000  0.33333333       0.019
   0.33333333  0.00000000  0.33333333       0.019
   0.50000000  0.00000000  0.33333333       0.009
   0.00000000  0.16666667  0.33333333       0.019
   0.16666667  0.16666667  0.33333333       0.019
   0.33333333  0.16666667  0.33333333       0.019
   0.50000000  0.16666667  0.33333333       0.019
  -0.33333333  0.16666667  0.33333333       0.019
  -0.16666667  0.16666667  0.33333333       0.019
   0.00000000  0.33333333  0.33333333       0.019
   0.16666667  0.33333333  0.33333333       0.019
   0.33333333  0.33333333  0.33333333       0.019
   0.50000000  0.33333333  0.33333333       0.019
  -0.33333333  0.33333333  0.33333333       0.019
  -0.16666667  0.33333333  0.33333333       0.019
   0.00000000  0.50000000  0.33333333       0.009
   0.16666667  0.50000000  0.33333333       0.019
   0.33333333  0.50000000  0.33333333       0.019
   0.50000000  0.50000000  0.33333333       0.009
   0.00000000  0.00000000 -0.33333333       0.009
   0.16666667  0.00000000 -0.33333333       0.019
   0.33333333  0.00000000 -0.33333333       0.019
   0.50000000  0.00000000 -0.33333333       0.009
   0.00000000  0.16666667 -0.33333333       0.019
   0.16666667  0.16666667 -0.33333333       0.019
   0.33333333  0.16666667 -0.33333333       0.019
   0.50000000  0.16666667 -0.33333333       0.019
  -0.33333333  0.16666667 -0.33333333       0.019
  -0.16666667  0.16666667 -0.33333333       0.019
   0.00000000  0.33333333 -0.33333333       0.019
   0.16666667  0.33333333 -0.33333333       0.019
   0.33333333  0.33333333 -0.33333333       0.019
   0.50000000  0.33333333 -0.33333333       0.019
  -0.33333333  0.33333333 -0.33333333       0.019
  -0.16666667  0.33333333 -0.33333333       0.019
   0.00000000  0.50000000 -0.33333333       0.009
   0.16666667  0.50000000 -0.33333333       0.019
   0.33333333  0.50000000 -0.33333333       0.019
   0.50000000  0.50000000 -0.33333333       0.009
 
 position of ions in fractional coordinates (direct lattice) 
   0.25234559  0.25000000  0.12500000
   0.74765444  0.75000000  0.12500000
   0.25000000  0.74749190  0.87500000
   0.75000000  0.25250813  0.87500000
   0.24765441  0.25000000  0.62500000
   0.75234556  0.75000000  0.62500000
   0.75000000  0.24749187  0.37500000
   0.25000000  0.75250810  0.37500000
   0.00000000  0.00000000  0.50018313
   0.50000000  0.00000000  0.24981687
   0.50000000  0.50000000  0.00018313
   0.00000000  0.50000000  0.74981687
   0.00000000  0.00000000  0.00000530
   0.50000000  0.00000000  0.74999470
   0.50000000  0.50000000  0.50000530
   0.00000000  0.50000000  0.24999470
 
 position of ions in cartesian coordinates  (Angst):
   1.31376104  1.33271307  1.28803142
   3.89243692  3.99813922  1.28803142
   1.30154945  3.98476893  9.01621997
   3.90464835  1.34608353  9.01621997
   1.28933786  1.33271307  6.44015712
   3.91685978  3.99813922  6.44015712
   3.90464835  1.31934262  3.86409427
   1.30154945  4.01150951  3.86409427
   0.00000000  0.00000000  5.15401274
   2.60309890  0.00000000  2.57417581
   2.60309890  2.66542615  0.00188704
   0.00000000  2.66542615  7.72630151
   0.00000000  0.00000000  0.00005460
   2.60309890  0.00000000  7.72813395
   2.60309890  2.66542615  5.15218029
   0.00000000  2.66542615  2.57600825
 
 Euler angles ALPHA=     0.0000000  BETA=     0.0000000

 transformation matrix from SAXIS to cartesian coordinates
 ---------------------------------------------------------
     1.0000000 m_x     0.0000000 m_y     0.0000000 m_z
     0.0000000 m_x     1.0000000 m_y     0.0000000 m_z
     0.0000000 m_x     0.0000000 m_y     1.0000000 m_z

 transformation matrix from cartesian coordinates to SAXIS
 ---------------------------------------------------------
     1.0000000 m_x     0.0000000 m_y     0.0000000 m_z
     0.0000000 m_x     1.0000000 m_y     0.0000000 m_z
     0.0000000 m_x     0.0000000 m_y     1.0000000 m_z




--------------------------------------------------------------------------------------------------------


 k-point  1 :   0.0000 0.0000 0.0000  plane waves:   24050
 k-point  2 :   0.1667 0.0000 0.0000  plane waves:   24058
 k-point  3 :   0.3333 0.0000 0.0000  plane waves:   24020
 k-point  4 :   0.5000 0.0000 0.0000  plane waves:   24012
 k-point  5 :   0.0000 0.1667 0.0000  plane waves:   24086
 k-point  6 :   0.1667 0.1667 0.0000  plane waves:   24062
 k-point  7 :   0.3333 0.1667 0.0000  plane waves:   24066
 k-point  8 :   0.5000 0.1667 0.0000  plane waves:   24108
 k-point  9 :  -0.3333 0.1667 0.0000  plane waves:   24066
 k-point 10 :  -0.1667 0.1667 0.0000  plane waves:   24062
 k-point 11 :   0.0000 0.3333 0.0000  plane waves:   24070
 k-point 12 :   0.1667 0.3333 0.0000  plane waves:   24044
 k-point 13 :   0.3333 0.3333 0.0000  plane waves:   24046
 k-point 14 :   0.5000 0.3333 0.0000  plane waves:   24048
 k-point 15 :  -0.3333 0.3333 0.0000  plane waves:   24046
 k-point 16 :  -0.1667 0.3333 0.0000  plane waves:   24044
 k-point 17 :   0.0000 0.5000 0.0000  plane waves:   23992
 k-point 18 :   0.1667 0.5000 0.0000  plane waves:   23960
 k-point 19 :   0.3333 0.5000 0.0000  plane waves:   24048
 k-point 20 :   0.5000 0.5000 0.0000  plane waves:   24024
 k-point 21 :   0.0000 0.0000 0.3333  plane waves:   24092
 k-point 22 :   0.1667 0.0000 0.3333  plane waves:   24088
 k-point 23 :   0.3333 0.0000 0.3333  plane waves:   24106
 k-point 24 :   0.5000 0.0000 0.3333  plane waves:   24128
 k-point 25 :   0.0000 0.1667 0.3333  plane waves:   24056
 k-point 26 :   0.1667 0.1667 0.3333  plane waves:   24050
 k-point 27 :   0.3333 0.1667 0.3333  plane waves:   24092
 k-point 28 :   0.5000 0.1667 0.3333  plane waves:   24096
 k-point 29 :  -0.3333 0.1667 0.3333  plane waves:   24092
 k-point 30 :  -0.1667 0.1667 0.3333  plane waves:   24050
 k-point 31 :   0.0000 0.3333 0.3333  plane waves:   24052
 k-point 32 :   0.1667 0.3333 0.3333  plane waves:   24038
 k-point 33 :   0.3333 0.3333 0.3333  plane waves:   24040
 k-point 34 :   0.5000 0.3333 0.3333  plane waves:   24064
 k-point 35 :  -0.3333 0.3333 0.3333  plane waves:   24040
 k-point 36 :  -0.1667 0.3333 0.3333  plane waves:   24038
 k-point 37 :   0.0000 0.5000 0.3333  plane waves:   24096
 k-point 38 :   0.1667 0.5000 0.3333  plane waves:   24068
 k-point 39 :   0.3333 0.5000 0.3333  plane waves:   23932
 k-point 40 :   0.5000 0.5000 0.3333  plane waves:   23984
 k-point 41 :   0.0000 0.0000-0.3333  plane waves:   24092
 k-point 42 :   0.1667 0.0000-0.3333  plane waves:   24088
 k-point 43 :   0.3333 0.0000-0.3333  plane waves:   24106
 k-point 44 :   0.5000 0.0000-0.3333  plane waves:   24128
 k-point 45 :   0.0000 0.1667-0.3333  plane waves:   24056
 k-point 46 :   0.1667 0.1667-0.3333  plane waves:   24050
 k-point 47 :   0.3333 0.1667-0.3333  plane waves:   24092
 k-point 48 :   0.5000 0.1667-0.3333  plane waves:   24096
 k-point 49 :  -0.3333 0.1667-0.3333  plane waves:   24092
 k-point 50 :  -0.1667 0.1667-0.3333  plane waves:   24050
 k-point 51 :   0.0000 0.3333-0.3333  plane waves:   24052
 k-point 52 :   0.1667 0.3333-0.3333  plane waves:   24038
 k-point 53 :   0.3333 0.3333-0.3333  plane waves:   24040
 k-point 54 :   0.5000 0.3333-0.3333  plane waves:   24064
 k-point 55 :  -0.3333 0.3333-0.3333  plane waves:   24040
 k-point 56 :  -0.1667 0.3333-0.3333  plane waves:   24038
 k-point 57 :   0.0000 0.5000-0.3333  plane waves:   24096
 k-point 58 :   0.1667 0.5000-0.3333  plane waves:   24068
 k-point 59 :   0.3333 0.5000-0.3333  plane waves:   23932
 k-point 60 :   0.5000 0.5000-0.3333  plane waves:   23984

 maximum and minimum number of plane-waves per node :       796      710

 maximum number of plane-waves:     24128
 maximum index in each direction: 
   IXMAX=   11   IYMAX=   11   IZMAX=   22
   IXMIN=  -11   IYMIN=  -12   IZMIN=  -22


 parallel 3D FFT for wavefunctions:
    minimum data exchange during FFTs selected (reduces bandwidth)
 parallel 3D FFT for charge:
    minimum data exchange during FFTs selected (reduces bandwidth)


 total amount of memory used by VASP MPI-rank0   108106. kBytes
=======================================================================

   base      :      30000. kBytes
   nonl-proj :      10051. kBytes
   fftplans  :       1363. kBytes
   grid      :       5529. kBytes
   one-center:         62. kBytes
   wavefun   :      61101. kBytes
 
     INWAV:  cpu time   12.4079: real time   12.7621
 Broyden mixing: mesh for mixing (old mesh)
   NGX = 23   NGY = 23   NGZ = 45
  (NGX  = 96   NGY  = 96   NGZ  =180)
  gives a total of  23805 points

 initial charge density was supplied:
 number of electron     172.0000012 magnetization      -0.0000000      0.0000000      0.0000000
 charge density for first step will be calculated from the start-wavefunctions


--------------------------------------------------------------------------------------------------------


 BZINTS: Fermi energy:  4.897194;172.000000 electrons
         Band energy:***********;  BLOECHL correction:  0.000000
 Maximum index for augmentation-charges          887 (set IRDMAX)


--------------------------------------------------------------------------------------------------------


 initial charge from wavefunction
 First call to EWALD:  gamma=   0.269
 Maximum number of real-space cells 3x 3x 2
 Maximum number of reciprocal cells 2x 2x 4

    FEWALD:  cpu time    0.0611: real time    0.0613

 ----------------------------------------------------------------------------- 
|                                                                             |
|           W    W    AA    RRRRR   N    N  II  N    N   GGGG   !!!           |
|           W    W   A  A   R    R  NN   N  II  NN   N  G    G  !!!           |
|           W    W  A    A  R    R  N N  N  II  N N  N  G       !!!           |
|           W WW W  AAAAAA  RRRRR   N  N N  II  N  N N  G  GGG   !            |
|           WW  WW  A    A  R   R   N   NN  II  N   NN  G    G                |
|           W    W  A    A  R    R  N    N  II  N    N   GGGG   !!!           |
|                                                                             |
|      ALGO=A and IALGO=5X tend to fail with the tetrahedron method           |
|      (e.g. Bloechls method ISMEAR=-5 is not variational)                    |
|      please switch to IMSEAR=0-n, except for DOS calculations               |
|      For DOS calculations use IALGO=53 after preconverging with ISMEAR>=0   |
|          I HOPE YOU KNOW, WHAT YOU ARE  DOING                               |
|                                                                             |
 ----------------------------------------------------------------------------- 



--------------------------------------- Iteration      1(   1)  ---------------------------------------


    POTLOK:  cpu time    0.1632: real time    0.1641
    SETDIJ:  cpu time    0.5898: real time    0.5916
    TRIAL :  cpu time    6.4919: real time    6.5960
 BZINTS: Fermi energy:  5.326031;172.000000 electrons
         Band energy:***********;  BLOECHL correction:  0.000000
 BZINTS: Fermi energy:  5.291204;172.000000 electrons
         Band energy:***********;  BLOECHL correction:  0.000000
    CORREC:  cpu time    4.9149: real time    4.9398
    CHARGE:  cpu time    1.2038: real time    1.2098
    --------------------------------------------
      LOOP:  cpu time   13.4026: real time   13.5803

 eigenvalue-minimisations  :     0
 total energy-change (2. order) : 0.1086830E+03  (-0.7631688E+02)
 number of electron     172.0000013 magnetization       0.0000000      0.0000000      0.0000000
 augmentation part       71.8643269 magnetization       0.0000004      0.0000009      0.0000012

 Free energy of the ion-electron system (eV)
  ---------------------------------------------------
  alpha Z        PSCENC =       592.51573939
  Ewald energy   TEWEN  =    -15648.34197011
  -Hartree energ DENC   =    -10661.34319830
  -exchange      EXHF   =         0.00000000
  -V(xc)+E(xc)   XCENC  =       819.66120300
  PAW double counting   =     56237.24575306   -57173.18555747
  entropy T*S    EENTRO =         0.00000000
  eigenvalues    EBANDS =     -2562.88521352
  atomic energy  EATOM  =     28505.01627691
  ---------------------------------------------------
  free energy    TOTEN  =       108.68303295 eV

  energy without entropy =      108.68303295  energy(sigma->0) =      108.68303295


--------------------------------------------------------------------------------------------------------




--------------------------------------- Iteration      1(   2)  ---------------------------------------


    POTLOK:  cpu time    0.0850: real time    0.0855
    SETDIJ:  cpu time    0.5889: real time    0.5908
    TRIAL :  cpu time    6.3420: real time    6.3811
 BZINTS: Fermi energy:  5.815561;172.000000 electrons
         Band energy:***********;  BLOECHL correction:  0.000000
 BZINTS: Fermi energy:  5.687253;172.000000 electrons
         Band energy:***********;  BLOECHL correction:  0.000000
    CORREC:  cpu time    4.9060: real time    4.9308
    CHARGE:  cpu time    1.2220: real time    1.2283
    --------------------------------------------
      LOOP:  cpu time   13.1502: real time   13.2256

 eigenvalue-minimisations  :     0
 total energy-change (2. order) :-0.7506400E+02  (-0.6530861E+02)
 number of electron     172.0000013 magnetization       0.0000000      0.0000000     -0.0000000
 augmentation part       70.3636622 magnetization      -0.0000006     -0.0000002      0.0005534

 Free energy of the ion-electron system (eV)
  ---------------------------------------------------
  alpha Z        PSCENC =       592.51573939
  Ewald energy   TEWEN  =    -15648.34197011
  -Hartree energ DENC   =    -10911.50500837
  -exchange      EXHF   =         0.00000000
  -V(xc)+E(xc)   XCENC  =       828.60999594
  PAW double counting   =     43602.42719659   -44584.87231144
  entropy T*S    EENTRO =         0.00000000
  eigenvalues    EBANDS =     -2350.23089051
  atomic energy  EATOM  =     28505.01627691
  ---------------------------------------------------
  free energy    TOTEN  =        33.61902838 eV

  energy without entropy =       33.61902838  energy(sigma->0) =       33.61902838


--------------------------------------------------------------------------------------------------------




--------------------------------------- Iteration      1(   3)  ---------------------------------------


    POTLOK:  cpu time    0.0836: real time    0.0841
    SETDIJ:  cpu time    0.5882: real time    0.5901
    TRIAL :  cpu time    6.2865: real time    6.3250
 BZINTS: Fermi energy:  5.918131;172.000000 electrons
         Band energy:***********;  BLOECHL correction: -0.000908
 BZINTS: Fermi energy:  5.880309;172.000000 electrons
         Band energy:***********;  BLOECHL correction:  0.000000
    CORREC:  cpu time    5.0247: real time    5.0500
    CHARGE:  cpu time    1.2072: real time    1.2132
    --------------------------------------------
      LOOP:  cpu time   13.2004: real time   13.2728

 eigenvalue-minimisations  :     0
 total energy-change (2. order) :-0.6542273E+02  (-0.2742707E+02)
 number of electron     172.0000013 magnetization       0.0000000      0.0000000     -0.0000000
 augmentation part       70.3480313 magnetization       0.0000012      0.0000007      0.0004977

 Free energy of the ion-electron system (eV)
  ---------------------------------------------------
  alpha Z        PSCENC =       592.51573939
  Ewald energy   TEWEN  =    -15648.34197011
  -Hartree energ DENC   =    -10568.27439369
  -exchange      EXHF   =         0.00000000
  -V(xc)+E(xc)   XCENC  =       816.69859072
  PAW double counting   =     33095.47755334   -34016.29820588
  entropy T*S    EENTRO =         0.00000000
  eigenvalues    EBANDS =     -2808.59728900
  atomic energy  EATOM  =     28505.01627691
  ---------------------------------------------------
  free energy    TOTEN  =       -31.80369833 eV

  energy without entropy =      -31.80369833  energy(sigma->0) =      -31.80369833


--------------------------------------------------------------------------------------------------------




--------------------------------------- Iteration      1(   4)  ---------------------------------------


    POTLOK:  cpu time    0.0836: real time    0.0840
    SETDIJ:  cpu time    0.5867: real time    0.5887
    TRIAL :  cpu time    6.3181: real time    6.3571
 BZINTS: Fermi energy:  5.722361;172.000000 electrons
         Band energy:***********;  BLOECHL correction: -0.005419
 BZINTS: Fermi energy:  5.729815;172.000000 electrons
         Band energy:***********;  BLOECHL correction: -0.004849
    CORREC:  cpu time    5.1351: real time    5.1613
    CHARGE:  cpu time    1.2206: real time    1.2266
    --------------------------------------------
      LOOP:  cpu time   13.3551: real time   13.4292

 eigenvalue-minimisations  :     0
 total energy-change (2. order) :-0.2709393E+02  (-0.1165850E+02)
 number of electron     172.0000013 magnetization       0.0000000      0.0000000     -0.0027501
 augmentation part       70.7959720 magnetization      -0.0000035     -0.0000041     -0.0013388

 Free energy of the ion-electron system (eV)
  ---------------------------------------------------
  alpha Z        PSCENC =       592.51573939
  Ewald energy   TEWEN  =    -15648.34197011
  -Hartree energ DENC   =    -10646.46882608
  -exchange      EXHF   =         0.00000000
  -V(xc)+E(xc)   XCENC  =       818.58326240
  PAW double counting   =     30279.45706322   -31205.44667923
  entropy T*S    EENTRO =         0.00000000
  eigenvalues    EBANDS =     -2754.21249249
  atomic energy  EATOM  =     28505.01627691
  ---------------------------------------------------
  free energy    TOTEN  =       -58.89762601 eV

  energy without entropy =      -58.89762601  energy(sigma->0) =      -58.89762601


--------------------------------------------------------------------------------------------------------




--------------------------------------- Iteration      1(   5)  ---------------------------------------


    POTLOK:  cpu time    0.0833: real time    0.0839
    SETDIJ:  cpu time    0.5887: real time    0.5906
    TRIAL :  cpu time    6.3570: real time    6.3964
 BZINTS: Fermi energy:  5.700854;172.000000 electrons
         Band energy:***********;  BLOECHL correction:  0.000000
 BZINTS: Fermi energy:  5.718848;172.000000 electrons
         Band energy:***********;  BLOECHL correction:  0.000000
    CORREC:  cpu time    4.9841: real time    5.0096
    CHARGE:  cpu time    1.2066: real time    1.2126
    --------------------------------------------
      LOOP:  cpu time   13.2305: real time   13.3064

 eigenvalue-minimisations  :     0
 total energy-change (2. order) :-0.1165652E+02  (-0.6375949E+01)
 number of electron     172.0000013 magnetization       0.0000000      0.0000000     -0.0000000
 augmentation part       70.6041361 magnetization       0.0000018      0.0000059      0.0001841

 Free energy of the ion-electron system (eV)
  ---------------------------------------------------
  alpha Z        PSCENC =       592.51573939
  Ewald energy   TEWEN  =    -15648.34197011
  -Hartree energ DENC   =    -10725.01776363
  -exchange      EXHF   =         0.00000000
  -V(xc)+E(xc)   XCENC  =       821.76783679
  PAW double counting   =     29209.84507513   -30142.73257259
  entropy T*S    EENTRO =         0.00000000
  eigenvalues    EBANDS =     -2683.60677121
  atomic energy  EATOM  =     28505.01627691
  ---------------------------------------------------
  free energy    TOTEN  =       -70.55414933 eV

  energy without entropy =      -70.55414933  energy(sigma->0) =      -70.55414933


--------------------------------------------------------------------------------------------------------




--------------------------------------- Iteration      1(   6)  ---------------------------------------


    POTLOK:  cpu time    0.0836: real time    0.0841
    SETDIJ:  cpu time    0.5878: real time    0.5897
    TRIAL :  cpu time    6.3260: real time    6.3656
 BZINTS: Fermi energy:  5.585605;172.000000 electrons
         Band energy:***********;  BLOECHL correction:  0.000000
 BZINTS: Fermi energy:  5.580937;172.000000 electrons
         Band energy:***********;  BLOECHL correction:  0.000000
    CORREC:  cpu time    4.9362: real time    4.9613
    CHARGE:  cpu time    1.2106: real time    1.2166
    --------------------------------------------
      LOOP:  cpu time   13.1539: real time   13.2284

 eigenvalue-minimisations  :     0
 total energy-change (2. order) :-0.6387495E+01  (-0.2905813E+01)
 number of electron     172.0000012 magnetization       0.0000000      0.0000000     -0.0000000
 augmentation part       70.3469268 magnetization      -0.0000013     -0.0000083     -0.0003055

 Free energy of the ion-electron system (eV)
  ---------------------------------------------------
  alpha Z        PSCENC =       592.51573939
  Ewald energy   TEWEN  =    -15648.34197011
  -Hartree energ DENC   =    -10755.05252615
  -exchange      EXHF   =         0.00000000
  -V(xc)+E(xc)   XCENC  =       823.03096806
  PAW double counting   =     28563.02777499   -29491.50442928
  entropy T*S    EENTRO =         0.00000000
  eigenvalues    EBANDS =     -2665.63347793
  atomic energy  EATOM  =     28505.01627691
  ---------------------------------------------------
  free energy    TOTEN  =       -76.94164412 eV

  energy without entropy =      -76.94164412  energy(sigma->0) =      -76.94164412


--------------------------------------------------------------------------------------------------------




--------------------------------------- Iteration      1(   7)  ---------------------------------------


    POTLOK:  cpu time    0.0837: real time    0.0841
    SETDIJ:  cpu time    0.5884: real time    0.5903
    TRIAL :  cpu time    6.3185: real time    6.3575
 BZINTS: Fermi energy:  5.301815;172.000000 electrons
         Band energy:***********;  BLOECHL correction:  0.000000
 BZINTS: Fermi energy:  5.304459;172.000000 electrons
         Band energy:***********;  BLOECHL correction:  0.000000
    CORREC:  cpu time    4.8857: real time    4.9109
    CHARGE:  cpu time    1.2139: real time    1.2199
    --------------------------------------------
      LOOP:  cpu time   13.1000: real time   13.1728

 eigenvalue-minimisations  :     0
 total energy-change (2. order) :-0.2900376E+01  (-0.1293607E+01)
 number of electron     172.0000013 magnetization       0.0000000      0.0000000      0.0000000
 augmentation part       70.6478557 magnetization       0.0000008      0.0000030      0.0001763

 Free energy of the ion-electron system (eV)
  ---------------------------------------------------
  alpha Z        PSCENC =       592.51573939
  Ewald energy   TEWEN  =    -15648.34197011
  -Hartree energ DENC   =    -10685.04977822
  -exchange      EXHF   =         0.00000000
  -V(xc)+E(xc)   XCENC  =       820.94347016
  PAW double counting   =     28156.75850648   -29071.82658677
  entropy T*S    EENTRO =         0.00000000
  eigenvalues    EBANDS =     -2749.85767793
  atomic energy  EATOM  =     28505.01627691
  ---------------------------------------------------
  free energy    TOTEN  =       -79.84202011 eV

  energy without entropy =      -79.84202011  energy(sigma->0) =      -79.84202011


--------------------------------------------------------------------------------------------------------




--------------------------------------- Iteration      1(   8)  ---------------------------------------


    POTLOK:  cpu time    0.0832: real time    0.0836
    SETDIJ:  cpu time    0.5882: real time    0.5900
    TRIAL :  cpu time    6.2655: real time    6.3046
 BZINTS: Fermi energy:  5.176818;172.000000 electrons
         Band energy:***********;  BLOECHL correction:  0.000000
 BZINTS: Fermi energy:  5.171073;172.000000 electrons
         Band energy:***********;  BLOECHL correction:  0.000000
    CORREC:  cpu time    4.8728: real time    4.8977
    CHARGE:  cpu time    1.2083: real time    1.2144
    --------------------------------------------
      LOOP:  cpu time   13.0268: real time   13.0999

 eigenvalue-minimisations  :     0
 total energy-change (2. order) :-0.1293484E+01  (-0.5646342E+00)
 number of electron     172.0000012 magnetization       0.0000000      0.0000000      0.0000000
 augmentation part       70.5567276 magnetization      -0.0000006     -0.0000031      0.0003401

 Free energy of the ion-electron system (eV)
  ---------------------------------------------------
  alpha Z        PSCENC =       592.51573939
  Ewald energy   TEWEN  =    -15648.34197011
  -Hartree energ DENC   =    -10751.31787231
  -exchange      EXHF   =         0.00000000
  -V(xc)+E(xc)   XCENC  =       822.93109393
  PAW double counting   =     28196.95229096   -29124.03263674
  entropy T*S    EENTRO =         0.00000000
  eigenvalues    EBANDS =     -2674.85842610
  atomic energy  EATOM  =     28505.01627691
  ---------------------------------------------------
  free energy    TOTEN  =       -81.13550408 eV

  energy without entropy =      -81.13550408  energy(sigma->0) =      -81.13550408


--------------------------------------------------------------------------------------------------------




--------------------------------------- Iteration      1(   9)  ---------------------------------------


    POTLOK:  cpu time    0.0832: real time    0.0837
    SETDIJ:  cpu time    0.5885: real time    0.5904
    TRIAL :  cpu time    6.3735: real time    6.4131
 BZINTS: Fermi energy:  5.141782;172.000000 electrons
         Band energy:***********;  BLOECHL correction:  0.000000
 BZINTS: Fermi energy:  5.173698;172.000000 electrons
         Band energy:***********;  BLOECHL correction:  0.000000
    CORREC:  cpu time    4.8961: real time    4.9209
    CHARGE:  cpu time    1.2119: real time    1.2179
    --------------------------------------------
      LOOP:  cpu time   13.1636: real time   13.2366

 eigenvalue-minimisations  :     0
 total energy-change (2. order) :-0.5644754E+00  (-0.2099183E+00)
 number of electron     172.0000012 magnetization       0.0000000      0.0000000      0.0000000
 augmentation part       70.5470791 magnetization       0.0000019      0.0000029      0.0002230

 Free energy of the ion-electron system (eV)
  ---------------------------------------------------
  alpha Z        PSCENC =       592.51573939
  Ewald energy   TEWEN  =    -15648.34197011
  -Hartree energ DENC   =    -10712.00255365
  -exchange      EXHF   =         0.00000000
  -V(xc)+E(xc)   XCENC  =       821.56493752
  PAW double counting   =     28097.62438786   -29019.79507784
  entropy T*S    EENTRO =         0.00000000
  eigenvalues    EBANDS =     -2718.28171951
  atomic energy  EATOM  =     28505.01627691
  ---------------------------------------------------
  free energy    TOTEN  =       -81.69997944 eV

  energy without entropy =      -81.69997944  energy(sigma->0) =      -81.69997944


--------------------------------------------------------------------------------------------------------




--------------------------------------- Iteration      1(  10)  ---------------------------------------


    POTLOK:  cpu time    0.0834: real time    0.0840
    SETDIJ:  cpu time    0.5885: real time    0.5904
    TRIAL :  cpu time    6.3111: real time    6.3506
 BZINTS: Fermi energy:  4.973383;172.000000 electrons
         Band energy:***********;  BLOECHL correction:  0.000000
 BZINTS: Fermi energy:  4.971770;172.000000 electrons
         Band energy:***********;  BLOECHL correction:  0.000000
    CORREC:  cpu time    4.9010: real time    4.9259
    CHARGE:  cpu time    1.2069: real time    1.2129
    --------------------------------------------
      LOOP:  cpu time   13.1015: real time   13.1748

 eigenvalue-minimisations  :     0
 total energy-change (2. order) :-0.2099093E+00  (-0.8094967E-01)
 number of electron     172.0000012 magnetization       0.0000000      0.0000000     -0.0000000
 augmentation part       70.5489358 magnetization      -0.0000012     -0.0000031      0.0003044

 Free energy of the ion-electron system (eV)
  ---------------------------------------------------
  alpha Z        PSCENC =       592.51573939
  Ewald energy   TEWEN  =    -15648.34197011
  -Hartree energ DENC   =    -10719.08135930
  -exchange      EXHF   =         0.00000000
  -V(xc)+E(xc)   XCENC  =       821.71657426
  PAW double counting   =     28094.32239770   -29017.91723721
  entropy T*S    EENTRO =         0.00000000
  eigenvalues    EBANDS =     -2710.14031033
  atomic energy  EATOM  =     28505.01627691
  ---------------------------------------------------
  free energy    TOTEN  =       -81.90988872 eV

  energy without entropy =      -81.90988872  energy(sigma->0) =      -81.90988872


--------------------------------------------------------------------------------------------------------




--------------------------------------- Iteration      1(  11)  ---------------------------------------


    POTLOK:  cpu time    0.0834: real time    0.0839
    SETDIJ:  cpu time    0.5880: real time    0.5899
    TRIAL :  cpu time    6.2682: real time    6.3075
 BZINTS: Fermi energy:  4.976184;172.000000 electrons
         Band energy:***********;  BLOECHL correction:  0.000000
 BZINTS: Fermi energy:  4.966234;172.000000 electrons
         Band energy:***********;  BLOECHL correction:  0.000000
    CORREC:  cpu time    4.8917: real time    4.9170
    CHARGE:  cpu time    1.2070: real time    1.2131
    --------------------------------------------
      LOOP:  cpu time   13.0419: real time   13.1182

 eigenvalue-minimisations  :     0
 total energy-change (2. order) :-0.8094450E-01  (-0.3118210E-01)
 number of electron     172.0000012 magnetization       0.0000000      0.0000000      0.0000000
 augmentation part       70.5661470 magnetization       0.0000024      0.0000039      0.0002031

 Free energy of the ion-electron system (eV)
  ---------------------------------------------------
  alpha Z        PSCENC =       592.51573939
  Ewald energy   TEWEN  =    -15648.34197011
  -Hartree energ DENC   =    -10715.21361315
  -exchange      EXHF   =         0.00000000
  -V(xc)+E(xc)   XCENC  =       821.64915953
  PAW double counting   =     28089.32603439   -29012.55870910
  entropy T*S    EENTRO =         0.00000000
  eigenvalues    EBANDS =     -2714.38375106
  atomic energy  EATOM  =     28505.01627691
  ---------------------------------------------------
  free energy    TOTEN  =       -81.99083321 eV

  energy without entropy =      -81.99083321  energy(sigma->0) =      -81.99083321


--------------------------------------------------------------------------------------------------------




--------------------------------------- Iteration      1(  12)  ---------------------------------------


    POTLOK:  cpu time    0.0834: real time    0.0839
    SETDIJ:  cpu time    0.5881: real time    0.5900
    TRIAL :  cpu time    6.2980: real time    6.3374
 BZINTS: Fermi energy:  5.000529;172.000000 electrons
         Band energy:***********;  BLOECHL correction:  0.000000
 BZINTS: Fermi energy:  4.993044;172.000000 electrons
         Band energy:***********;  BLOECHL correction:  0.000000
    CORREC:  cpu time    4.9084: real time    4.9341
    CHARGE:  cpu time    1.2236: real time    1.2297
    --------------------------------------------
      LOOP:  cpu time   13.1091: real time   13.1829

 eigenvalue-minimisations  :     0
 total energy-change (2. order) :-0.3118558E-01  (-0.1414642E-01)
 number of electron     172.0000012 magnetization       0.0000000      0.0000000      0.0000000
 augmentation part       70.5389199 magnetization      -0.0000011     -0.0000025      0.0001343

 Free energy of the ion-electron system (eV)
  ---------------------------------------------------
  alpha Z        PSCENC =       592.51573939
  Ewald energy   TEWEN  =    -15648.34197011
  -Hartree energ DENC   =    -10723.97816054
  -exchange      EXHF   =         0.00000000
  -V(xc)+E(xc)   XCENC  =       821.95379491
  PAW double counting   =     28113.56401754   -29038.03192404
  entropy T*S    EENTRO =         0.00000000
  eigenvalues    EBANDS =     -2704.71979283
  atomic energy  EATOM  =     28505.01627691
  ---------------------------------------------------
  free energy    TOTEN  =       -82.02201879 eV

  energy without entropy =      -82.02201879  energy(sigma->0) =      -82.02201879


--------------------------------------------------------------------------------------------------------




--------------------------------------- Iteration      1(  13)  ---------------------------------------


    POTLOK:  cpu time    0.0840: real time    0.0845
    SETDIJ:  cpu time    0.5875: real time    0.5894
    TRIAL :  cpu time    6.2532: real time    6.2925
 BZINTS: Fermi energy:  5.043497;172.000000 electrons
         Band energy:***********;  BLOECHL correction:  0.000000
 BZINTS: Fermi energy:  5.013961;172.000000 electrons
         Band energy:***********;  BLOECHL correction:  0.000000
    CORREC:  cpu time    4.8928: real time    4.9179
    CHARGE:  cpu time    1.2045: real time    1.2108
    --------------------------------------------
      LOOP:  cpu time   13.0299: real time   13.1061

 eigenvalue-minimisations  :     0
 total energy-change (2. order) :-0.1413851E-01  (-0.7185851E-02)
 number of electron     172.0000012 magnetization       0.0000000      0.0000000      0.0000000
 augmentation part       70.5533793 magnetization       0.0000013      0.0000025      0.0001110

 Free energy of the ion-electron system (eV)
  ---------------------------------------------------
  alpha Z        PSCENC =       592.51573939
  Ewald energy   TEWEN  =    -15648.34197011
  -Hartree energ DENC   =    -10716.52767162
  -exchange      EXHF   =         0.00000000
  -V(xc)+E(xc)   XCENC  =       821.73459754
  PAW double counting   =     28112.33576532   -29035.53664673
  entropy T*S    EENTRO =         0.00000000
  eigenvalues    EBANDS =     -2713.23224798
  atomic energy  EATOM  =     28505.01627691
  ---------------------------------------------------
  free energy    TOTEN  =       -82.03615730 eV

  energy without entropy =      -82.03615730  energy(sigma->0) =      -82.03615730


--------------------------------------------------------------------------------------------------------




--------------------------------------- Iteration      1(  14)  ---------------------------------------


    POTLOK:  cpu time    0.0844: real time    0.0849
    SETDIJ:  cpu time    0.5873: real time    0.5891
    TRIAL :  cpu time    6.3210: real time    6.3599
 BZINTS: Fermi energy:  4.878757;172.000000 electrons
         Band energy:***********;  BLOECHL correction:  0.000000
 BZINTS: Fermi energy:  5.068488;172.000000 electrons
         Band energy:***********;  BLOECHL correction:  0.000000
    CORREC:  cpu time    4.8847: real time    4.9099
    CHARGE:  cpu time    1.2045: real time    1.2105
    --------------------------------------------
      LOOP:  cpu time   13.0891: real time   13.1654

 eigenvalue-minimisations  :     0
 total energy-change (2. order) :-0.7160155E-02  (-0.3350114E-02)
 number of electron     172.0000012 magnetization       0.0000000      0.0000000     -0.0000000
 augmentation part       70.5536027 magnetization      -0.0000008     -0.0000029      0.0000558

 Free energy of the ion-electron system (eV)
  ---------------------------------------------------
  alpha Z        PSCENC =       592.51573939
  Ewald energy   TEWEN  =    -15648.34197011
  -Hartree energ DENC   =    -10720.70305657
  -exchange      EXHF   =         0.00000000
  -V(xc)+E(xc)   XCENC  =       821.86224652
  PAW double counting   =     28133.14671788   -29056.96135455
  entropy T*S    EENTRO =         0.00000000
  eigenvalues    EBANDS =     -2708.57791691
  atomic energy  EATOM  =     28505.01627691
  ---------------------------------------------------
  free energy    TOTEN  =       -82.04331745 eV

  energy without entropy =      -82.04331745  energy(sigma->0) =      -82.04331745


--------------------------------------------------------------------------------------------------------




--------------------------------------- Iteration      1(  15)  ---------------------------------------


    POTLOK:  cpu time    0.0845: real time    0.0853
    SETDIJ:  cpu time    0.5885: real time    0.5904
    TRIAL :  cpu time    6.2686: real time    6.3075
 BZINTS: Fermi energy:  4.871201;172.000000 electrons
         Band energy:***********;  BLOECHL correction:  0.000000
 BZINTS: Fermi energy:  4.868017;172.000000 electrons
         Band energy:***********;  BLOECHL correction:  0.000000
    CORREC:  cpu time    4.8932: real time    4.9187
    CHARGE:  cpu time    1.2067: real time    1.2130
    --------------------------------------------
      LOOP:  cpu time   13.0536: real time   13.1272

 eigenvalue-minimisations  :     0
 total energy-change (2. order) :-0.3324883E-02  (-0.1685966E-02)
 number of electron     172.0000012 magnetization       0.0000000      0.0000000      0.0000000
 augmentation part       70.5546114 magnetization       0.0000004      0.0000023      0.0000393

 Free energy of the ion-electron system (eV)
  ---------------------------------------------------
  alpha Z        PSCENC =       592.51573939
  Ewald energy   TEWEN  =    -15648.34197011
  -Hartree energ DENC   =    -10718.90282322
  -exchange      EXHF   =         0.00000000
  -V(xc)+E(xc)   XCENC  =       821.80676634
  PAW double counting   =     28135.53032347   -29059.11101606
  entropy T*S    EENTRO =         0.00000000
  eigenvalues    EBANDS =     -2710.55993904
  atomic energy  EATOM  =     28505.01627691
  ---------------------------------------------------
  free energy    TOTEN  =       -82.04664234 eV

  energy without entropy =      -82.04664234  energy(sigma->0) =      -82.04664234


--------------------------------------------------------------------------------------------------------




--------------------------------------- Iteration      1(  16)  ---------------------------------------


    POTLOK:  cpu time    0.0836: real time    0.0840
    SETDIJ:  cpu time    0.5884: real time    0.5905
    TRIAL :  cpu time    6.2525: real time    6.2922
 BZINTS: Fermi energy:  4.998849;172.000000 electrons
         Band energy:***********;  BLOECHL correction:  0.000000
 BZINTS: Fermi energy:  4.983421;172.000000 electrons
         Band energy:***********;  BLOECHL correction:  0.000000
    CORREC:  cpu time    4.8905: real time    4.9161
    CHARGE:  cpu time    1.2069: real time    1.2130
    --------------------------------------------
      LOOP:  cpu time   13.0307: real time   13.1063

 eigenvalue-minimisations  :     0
 total energy-change (2. order) :-0.1681665E-02  (-0.7797545E-03)
 number of electron     172.0000012 magnetization       0.0000000      0.0000000     -0.0000000
 augmentation part       70.5510152 magnetization      -0.0000006     -0.0000024      0.0000547

 Free energy of the ion-electron system (eV)
  ---------------------------------------------------
  alpha Z        PSCENC =       592.51573939
  Ewald energy   TEWEN  =    -15648.34197011
  -Hartree energ DENC   =    -10719.89398941
  -exchange      EXHF   =         0.00000000
  -V(xc)+E(xc)   XCENC  =       821.83709873
  PAW double counting   =     28135.78526195   -29059.52116356
  entropy T*S    EENTRO =         0.00000000
  eigenvalues    EBANDS =     -2709.44557789
  atomic energy  EATOM  =     28505.01627691
  ---------------------------------------------------
  free energy    TOTEN  =       -82.04832400 eV

  energy without entropy =      -82.04832400  energy(sigma->0) =      -82.04832400


--------------------------------------------------------------------------------------------------------




--------------------------------------- Iteration      1(  17)  ---------------------------------------


    POTLOK:  cpu time    0.0834: real time    0.0839
    SETDIJ:  cpu time    0.5864: real time    0.5883
    TRIAL :  cpu time    6.3375: real time    6.3765
 BZINTS: Fermi energy:  4.922838;172.000000 electrons
         Band energy:***********;  BLOECHL correction:  0.000000
 BZINTS: Fermi energy:  4.862056;172.000000 electrons
         Band energy:***********;  BLOECHL correction:  0.000000
    CORREC:  cpu time    4.8856: real time    4.9106
    CHARGE:  cpu time    1.2117: real time    1.2177
    --------------------------------------------
      LOOP:  cpu time   13.1132: real time   13.1868

 eigenvalue-minimisations  :     0
 total energy-change (2. order) :-0.7653735E-03  (-0.3038827E-03)
 number of electron     172.0000012 magnetization       0.0000000      0.0000000      0.0000000
 augmentation part       70.5545230 magnetization       0.0000007      0.0000022      0.0000522

[...]
 -0.000   0.000  -0.000   0.000   0.000  -0.000  -0.000   0.000   0.000  -0.000   0.000  -0.000  -0.000   0.000   0.000  -0.000
 pseudopotential strength for first ion, spin component:           3
  0.000   0.000   0.000   0.000  -0.000   0.000   0.000  -0.000  -0.000  -0.000  -0.000   0.000   0.000  -0.000  -0.000  -0.000
  0.000   0.000   0.000   0.000  -0.000   0.000   0.000  -0.000  -0.000  -0.000  -0.000   0.000   0.000  -0.000  -0.000  -0.000
 -0.000   0.000  -0.000   0.000  -0.000  -0.000  -0.000  -0.000   0.000   0.000  -0.000  -0.000  -0.000  -0.000   0.000   0.000
  0.000  -0.000   0.000  -0.000  -0.000  -0.000   0.000   0.000  -0.000  -0.000  -0.000  -0.000   0.000   0.000  -0.000  -0.000
 -0.000  -0.000  -0.000  -0.000   0.000   0.000  -0.000  -0.000   0.000   0.000   0.000   0.000  -0.000  -0.000   0.000   0.000
 -0.000   0.000  -0.000   0.000  -0.000  -0.000  -0.000  -0.000   0.000   0.000  -0.000  -0.000  -0.000  -0.000   0.000   0.000
  0.000  -0.000   0.000  -0.000  -0.000  -0.000   0.000   0.000  -0.000  -0.000  -0.000  -0.000   0.000   0.000  -0.000  -0.000
 -0.000  -0.000  -0.000  -0.000   0.000   0.000  -0.000  -0.000   0.000   0.000   0.000   0.000  -0.000  -0.000   0.000   0.000
 pseudopotential strength for first ion, spin component:           4
 39.501   0.000  45.364   0.000  -0.001   0.000  -0.001   0.000  -0.003   0.000  -0.001   0.000  -0.001   0.000  -0.004   0.000
 45.364   0.000  52.101   0.000  -0.001   0.000  -0.001   0.000  -0.003   0.000  -0.002   0.000  -0.001   0.000  -0.004   0.000
 -0.001   0.000  -0.001   0.000   8.203   0.000   0.002   0.000  -0.000   0.000  11.119   0.000   0.002   0.000  -0.000   0.000
 -0.001   0.000  -0.001   0.000   0.002   0.000   8.203   0.000  -0.001   0.000   0.002   0.000  11.118   0.000  -0.001   0.000
 -0.003   0.000  -0.003   0.000  -0.000   0.000  -0.001   0.000   8.203   0.000  -0.000   0.000  -0.001   0.000  11.119   0.000
 -0.001   0.000  -0.002   0.000  11.119   0.000   0.002   0.000  -0.000   0.000  15.090   0.000   0.003   0.000  -0.001   0.000
 -0.001   0.000  -0.001   0.000   0.002   0.000  11.118   0.000  -0.001   0.000   0.003   0.000  15.090   0.000  -0.001   0.000
 -0.004   0.000  -0.004   0.000  -0.000   0.000  -0.001   0.000  11.119   0.000  -0.001   0.000  -0.001   0.000  15.090   0.000
 total augmentation occupancy for first ion, spin component:           1
 10.969  -6.811   0.000   0.000  -0.540  -0.000  -0.000   0.141
 -6.811   4.931  -0.000  -0.000   0.442   0.000   0.000  -0.086
  0.000  -0.000   3.690   0.082   0.000  -1.055  -0.043   0.000
  0.000  -0.000   0.082   3.611   0.000  -0.043  -1.016   0.000
 -0.540   0.442   0.000   0.000   3.637   0.000   0.000  -1.029
 -0.000   0.000  -1.055  -0.043   0.000   0.356   0.015  -0.000
 -0.000   0.000  -0.043  -1.016   0.000   0.015   0.341  -0.000
  0.141  -0.086   0.000   0.000  -1.029  -0.000  -0.000   0.347
 total augmentation occupancy for first ion, spin component:           2
 -0.000   0.000   0.000   0.000   0.000  -0.000  -0.000   0.000
  0.000  -0.000  -0.000  -0.000  -0.000   0.000   0.000  -0.000
  0.000  -0.000   0.000  -0.000   0.000  -0.000   0.000  -0.000
  0.000  -0.000  -0.000  -0.000   0.000   0.000   0.000  -0.000
  0.000  -0.000   0.000   0.000  -0.000  -0.000  -0.000   0.000
 -0.000   0.000  -0.000   0.000  -0.000   0.000  -0.000   0.000
 -0.000   0.000   0.000   0.000  -0.000  -0.000  -0.000   0.000
  0.000  -0.000  -0.000  -0.000   0.000   0.000   0.000  -0.000
 total augmentation occupancy for first ion, spin component:           3
 -0.000   0.000  -0.000  -0.000   0.000   0.000   0.000  -0.000
  0.000  -0.000   0.000   0.000  -0.000  -0.000  -0.000   0.000
 -0.000   0.000  -0.000  -0.000  -0.000   0.000   0.000   0.000
 -0.000   0.000  -0.000  -0.000  -0.000   0.000   0.000   0.000
  0.000  -0.000  -0.000  -0.000   0.000   0.000   0.000  -0.000
  0.000  -0.000   0.000   0.000   0.000  -0.000  -0.000  -0.000
  0.000  -0.000   0.000   0.000   0.000  -0.000  -0.000  -0.000
 -0.000   0.000   0.000   0.000  -0.000  -0.000  -0.000   0.000
 total augmentation occupancy for first ion, spin component:           4
 -0.000   0.000   0.108   0.096  -0.000   0.082   0.081   0.000
  0.000   0.000  -0.086  -0.075   0.000  -0.090  -0.088  -0.000
  0.108  -0.086  -0.000  -0.000   0.007  -0.000  -0.000  -0.006
  0.096  -0.075  -0.000   0.000   0.008  -0.000  -0.000  -0.004
 -0.000   0.000   0.007   0.008  -0.000  -0.006  -0.004  -0.000
  0.082  -0.090  -0.000  -0.000  -0.006   0.000   0.000   0.016
  0.081  -0.088  -0.000  -0.000  -0.004   0.000   0.000   0.014
  0.000  -0.000  -0.006  -0.004  -0.000   0.016   0.014   0.000


------------------------ aborting loop because EDIFF is reached ----------------------------------------


 


 total charge     
 
# of ion       s       p       d       tot
------------------------------------------
    1        1.313   2.413   0.000   3.726
    2        1.313   2.413   0.000   3.726
    3        1.314   2.412   0.000   3.725
    4        1.314   2.412   0.000   3.725
    5        1.313   2.413   0.000   3.726
    6        1.313   2.413   0.000   3.726
    7        1.314   2.412   0.000   3.725
    8        1.314   2.412   0.000   3.725
    9        0.261   6.205   8.916  15.382
   10        0.261   6.205   8.916  15.382
   11        0.261   6.205   8.916  15.382
   12        0.261   6.205   8.916  15.382
   13        0.351   6.354   5.826  12.531
   14        0.351   6.354   5.826  12.531
   15        0.351   6.354   5.826  12.531
   16        0.351   6.354   5.826  12.531
--------------------------------------------------
tot         12.959  69.534  58.966 141.459
 


 magnetization (x)
 
# of ion       s       p       d       tot
------------------------------------------
    1       -0.000   0.000   0.000  -0.000
    2        0.000   0.000   0.000   0.000
    3       -0.000  -0.000   0.000  -0.000
    4        0.000  -0.000   0.000   0.000
    5        0.000   0.000   0.000   0.000
    6       -0.000   0.000   0.000  -0.000
    7       -0.000  -0.000   0.000  -0.000
    8        0.000  -0.000   0.000   0.000
    9        0.000  -0.000   0.000   0.000
   10       -0.000   0.000  -0.000  -0.000
   11        0.000  -0.000   0.000   0.000
   12       -0.000   0.000  -0.000  -0.000
   13       -0.000   0.000  -0.000   0.000
   14        0.000   0.000  -0.000  -0.000
   15       -0.000   0.000  -0.000  -0.000
   16        0.000   0.000  -0.000  -0.000
--------------------------------------------------
tot          0.000  -0.000  -0.000   0.000
 


 magnetization (y)
 
# of ion       s       p       d       tot
------------------------------------------
    1       -0.000  -0.000   0.000  -0.000
    2        0.000   0.000   0.000   0.000
    3        0.000   0.000   0.000   0.000
    4       -0.000   0.000   0.000  -0.000
    5        0.000   0.000   0.000   0.000
    6       -0.000  -0.000   0.000  -0.000
    7        0.000   0.000   0.000   0.000
    8       -0.000   0.000   0.000  -0.000
    9       -0.000  -0.000   0.000   0.000
   10        0.000  -0.000   0.000   0.000
   11       -0.000  -0.000   0.000   0.000
   12        0.000  -0.000   0.000   0.000
   13        0.000   0.000  -0.000  -0.000
   14        0.000   0.000  -0.000  -0.000
   15        0.000   0.000  -0.000  -0.000
   16       -0.000   0.000  -0.000  -0.000
--------------------------------------------------
tot          0.000   0.000   0.000   0.000
 


 magnetization (z)
 
# of ion       s       p       d       tot
------------------------------------------
    1       -0.000  -0.000   0.000  -0.000
    2       -0.000  -0.000   0.000  -0.000
    3        0.000   0.000   0.000   0.000
    4        0.000   0.000   0.000   0.000
    5       -0.000  -0.000   0.000  -0.000
    6       -0.000  -0.000   0.000  -0.000
    7        0.000   0.000   0.000   0.000
    8        0.000   0.000   0.000   0.000
    9        0.000   0.001  -0.002  -0.001
   10       -0.000  -0.001   0.002   0.001
   11        0.000   0.001  -0.002  -0.001
   12       -0.000  -0.001   0.002   0.001
   13        0.020   0.054   3.661   3.735
   14       -0.020  -0.054  -3.661  -3.735
   15        0.020   0.054   3.661   3.735
   16       -0.020  -0.054  -3.661  -3.735
--------------------------------------------------
tot          0.000   0.000   0.000   0.000
 
    FORLOC:  cpu time    0.0029: real time    0.0029
    FORNL :  cpu time    1.8788: real time    1.8877
    STRESS:  cpu time    1.7334: real time    1.7413
    FORCOR:  cpu time    0.0734: real time    0.0738
    OFIELD:  cpu time    0.0003: real time    0.0003

  FORCE on cell =-STRESS in cart. coord.  units (eV):
  Direction    XX          YY          ZZ          XY          YZ          ZX
  --------------------------------------------------------------------------------------
  Alpha Z   592.51574   592.51574   592.51574
  Ewald   -5243.64734 -5133.48389 -5271.24745    -0.00000    -0.00000     0.00000
  Hartree  3556.56993  3608.94019  3554.03790     0.00127    -0.00000     0.00000
  E(xc)   -1050.89124 -1050.82564 -1050.88852    -0.00010    -0.00000     0.00000
  Local   -1199.50827 -1361.51315 -1166.25137    -0.01207    -0.00000     0.00000
  n-local   121.87828   123.28149   121.89090     0.01164     0.00066     0.00090
  augment  1181.17147  1181.97373  1178.91704    -0.01176    -0.00000    -0.00000
  Kinetic  2043.39795  2039.10699  2042.39048     0.02007     0.00133     0.00146
  Fock        0.00000     0.00000     0.00000     0.00000     0.00000     0.00000
  -------------------------------------------------------------------------------------
  Total       1.48652    -0.00455     1.36472     0.00906     0.00000     0.00000
  in kB       8.32812    -0.02546     7.64577     0.05073     0.00000     0.00000
  external pressure =        5.32 kB  Pullay stress =        0.00 kB


 VOLUME and BASIS-vectors are now :
 -----------------------------------------------------------------------------
  energy-cutoff  :      700.00
  volume of cell :      285.98
      direct lattice vectors                 reciprocal lattice vectors
     5.206197799  0.000000000  0.000000000     0.192078757  0.000000000  0.000000000
     0.000000000  5.330852299  0.000000000     0.000000000  0.187587264  0.000000000
     0.000000000  0.000000000 10.304251397     0.000000000  0.000000000  0.097047322

  length of vectors
     5.206197799  5.330852299 10.304251397     0.192078757  0.187587264  0.097047322


 FORCES acting on ions:
    Electron-Ion                     Ewald-Force                    Non-Local-Force
 -----------------------------------------------------------------------------------------------
   0.420E+02 -.502E-03 -.838E-03   -.428E+02 0.142E-13 0.568E-13   0.832E+00 0.718E-03 0.826E-03
   -.420E+02 0.502E-03 -.838E-03   0.428E+02 -.142E-13 -.114E-12   -.832E+00 -.718E-03 0.826E-03
   0.570E-03 -.435E+02 -.824E-03   -.160E-13 0.443E+02 -.142E-13   -.712E-03 -.872E+00 0.770E-03
   -.570E-03 0.435E+02 -.824E-03   0.178E-14 -.443E+02 0.142E-13   0.712E-03 0.872E+00 0.770E-03
   -.420E+02 0.502E-03 -.838E-03   0.428E+02 -.622E-14 0.711E-13   -.832E+00 -.718E-03 0.826E-03
   0.420E+02 -.502E-03 -.838E-03   -.428E+02 0.187E-13 0.142E-12   0.832E+00 0.718E-03 0.826E-03
   0.570E-03 -.435E+02 -.824E-03   -.426E-13 0.443E+02 -.284E-13   -.712E-03 -.872E+00 0.770E-03
   -.570E-03 0.435E+02 -.824E-03   0.000E+00 -.443E+02 0.142E-12   0.712E-03 0.872E+00 0.770E-03
   -.815E-12 0.192E-12 -.103E+01   0.111E-04 -.241E-04 0.104E+01   0.000E+00 0.169E-20 -.101E-01
   0.261E-11 0.181E-12 0.103E+01   -.111E-04 -.241E-04 -.104E+01   0.000E+00 0.000E+00 0.846E-02
   0.735E-12 0.109E-10 -.103E+01   -.111E-04 0.241E-04 0.104E+01   0.000E+00 0.847E-21 -.101E-01
   0.997E-12 -.528E-12 0.103E+01   0.111E-04 0.241E-04 -.104E+01   0.000E+00 0.000E+00 0.846E-02
   -.613E-13 0.800E-13 0.260E+01   -.843E-05 0.201E-04 -.260E+01   0.000E+00 0.132E-22 -.467E-02
   0.599E-12 -.480E-13 -.260E+01   0.843E-05 0.201E-04 0.260E+01   0.000E+00 -.424E-21 -.210E-02
   0.582E-12 0.752E-11 0.260E+01   0.843E-05 -.201E-04 -.260E+01   0.000E+00 0.000E+00 -.467E-02
   -.394E-13 0.512E-12 -.260E+01   -.843E-05 -.201E-04 0.260E+01   0.000E+00 -.847E-21 -.210E-02
 -----------------------------------------------------------------------------------------------
   0.113E-10 0.188E-10 0.100E-01   0.438E-13 -.225E-13 0.142E-13   0.111E-15 0.111E-15 -.104E-01
 
 
 POSITION                                       TOTAL-FORCE (eV/Angst)
 -----------------------------------------------------------------------------------
      1.31376      1.33271      1.28803        -0.000286      0.000199     -0.000008
      3.89244      3.99814      1.28803         0.000286     -0.000199     -0.000008
      1.30155      3.98477      9.01622        -0.000126      0.000259     -0.000049
      3.90465      1.34608      9.01622         0.000126     -0.000259     -0.000049
      1.28934      1.33271      6.44016         0.000286     -0.000199     -0.000008
      3.91686      3.99814      6.44016        -0.000286      0.000199     -0.000008
      3.90465      1.31934      3.86409        -0.000126      0.000259     -0.000049
      1.30155      4.01151      3.86409         0.000126     -0.000259     -0.000049
      0.00000      0.00000      5.15401         0.000000      0.000000     -0.000068
      2.60310      0.00000      2.57418         0.000000      0.000000      0.000099
      2.60310      2.66543      0.00189         0.000000      0.000000     -0.000068
      0.00000      2.66543      7.72630         0.000000      0.000000      0.000099
      0.00000      0.00000      0.00005         0.000000      0.000000      0.000455
      2.60310      0.00000      7.72813         0.000000      0.000000     -0.000373
      2.60310      2.66543      5.15218         0.000000      0.000000      0.000455
      0.00000      2.66543      2.57601         0.000000      0.000000     -0.000373
 -----------------------------------------------------------------------------------
    total drift:                                0.000000      0.000000     -0.000351


--------------------------------------------------------------------------------------------------------



  FREE ENERGIE OF THE ION-ELECTRON SYSTEM (eV)
  ---------------------------------------------------
  free  energy   TOTEN  =       -82.04978326 eV

  energy  without entropy=      -82.04978326  energy(sigma->0) =      -82.04978326
 


--------------------------------------------------------------------------------------------------------


    POTLOK:  cpu time    0.6898: real time    0.6924


--------------------------------------------------------------------------------------------------------


 writing wavefunctions
     LOOP+:  cpu time 1173.0235: real time 1260.6287
    4ORBIT:  cpu time    0.0000: real time    0.0000
 


 total charge     
 
# of ion       s       p       d       tot
------------------------------------------
    1        1.313   2.413   0.000   3.726
    2        1.313   2.413   0.000   3.726
    3        1.314   2.412   0.000   3.725
    4        1.314   2.412   0.000   3.725
    5        1.313   2.413   0.000   3.726
    6        1.313   2.413   0.000   3.726
    7        1.314   2.412   0.000   3.725
    8        1.314   2.412   0.000   3.725
    9        0.261   6.205   8.916  15.382
   10        0.261   6.205   8.916  15.382
   11        0.261   6.205   8.916  15.382
   12        0.261   6.205   8.916  15.382
   13        0.351   6.354   5.826  12.531
   14        0.351   6.354   5.826  12.531
   15        0.351   6.354   5.826  12.531
   16        0.351   6.354   5.826  12.531
--------------------------------------------------
tot         12.959  69.534  58.966 141.459
 


 magnetization (x)
 
# of ion       s       p       d       tot
------------------------------------------
    1       -0.000   0.000   0.000  -0.000
    2        0.000   0.000   0.000   0.000
    3       -0.000  -0.000   0.000  -0.000
    4        0.000  -0.000   0.000   0.000
    5        0.000   0.000   0.000   0.000
    6       -0.000   0.000   0.000  -0.000
    7       -0.000  -0.000   0.000  -0.000
    8        0.000  -0.000   0.000   0.000
    9        0.000  -0.000   0.000   0.000
   10       -0.000   0.000  -0.000  -0.000
   11        0.000  -0.000   0.000   0.000
   12       -0.000   0.000  -0.000  -0.000
   13       -0.000   0.000  -0.000   0.000
   14        0.000   0.000  -0.000  -0.000
   15       -0.000   0.000  -0.000  -0.000
   16        0.000   0.000  -0.000  -0.000
--------------------------------------------------
tot          0.000  -0.000  -0.000   0.000
 


 magnetization (y)
 
# of ion       s       p       d       tot
------------------------------------------
    1       -0.000  -0.000   0.000  -0.000
    2        0.000   0.000   0.000   0.000
    3        0.000   0.000   0.000   0.000
    4       -0.000   0.000   0.000  -0.000
    5        0.000   0.000   0.000   0.000
    6       -0.000  -0.000   0.000  -0.000
    7        0.000   0.000   0.000   0.000
    8       -0.000   0.000   0.000  -0.000
    9       -0.000  -0.000   0.000   0.000
   10        0.000  -0.000   0.000   0.000
   11       -0.000  -0.000   0.000   0.000
   12        0.000  -0.000   0.000   0.000
   13        0.000   0.000  -0.000  -0.000
   14        0.000   0.000  -0.000  -0.000
   15        0.000   0.000  -0.000  -0.000
   16       -0.000   0.000  -0.000  -0.000
--------------------------------------------------
tot          0.000   0.000   0.000   0.000
 


 magnetization (z)
 
# of ion       s       p       d       tot
------------------------------------------
    1       -0.000  -0.000   0.000  -0.000
    2       -0.000  -0.000   0.000  -0.000
    3        0.000   0.000   0.000   0.000
    4        0.000   0.000   0.000   0.000
    5       -0.000  -0.000   0.000  -0.000
    6       -0.000  -0.000   0.000  -0.000
    7        0.000   0.000   0.000   0.000
    8        0.000   0.000   0.000   0.000
    9        0.000   0.001  -0.002  -0.001
   10       -0.000  -0.001   0.002   0.001
   11        0.000   0.001  -0.002  -0.001
   12       -0.000  -0.001   0.002   0.001
   13        0.020   0.054   3.661   3.735
   14       -0.020  -0.054  -3.661  -3.735
   15        0.020   0.054   3.661   3.735
   16       -0.020  -0.054  -3.661  -3.735
--------------------------------------------------
tot          0.000   0.000   0.000   0.000
 
 BZINTS: Fermi energy:  4.966127;172.000000 electrons
         Band energy:***********;  BLOECHL correction:  0.000000
 BZINTS: Fermi energy:  4.966127;172.000000 electrons
         Band energy:***********;  BLOECHL correction:  0.000000
 BZINTS: Fermi energy:  4.966127;172.000000 electrons
         Band energy:***********;  BLOECHL correction:  0.000000
 BZINTS: Fermi energy:  4.966127;172.000000 electrons
         Band energy:***********;  BLOECHL correction:  0.000000

 total amount of memory used by VASP MPI-rank0   108106. kBytes
=======================================================================

   base      :      30000. kBytes
   nonl-proj :      10051. kBytes
   fftplans  :       1363. kBytes
   grid      :       5529. kBytes
   one-center:         62. kBytes
   wavefun   :      61101. kBytes
 
  
  
 General timing and accounting informations for this job:
 ========================================================
  
                  Total CPU time used (sec):     1212.788
                            User time (sec):     1192.486
                          System time (sec):       20.302
                         Elapsed time (sec):     1302.467
  
                   Maximum memory used (kb):      586872.
                   Average memory used (kb):           0.
  
                          Minor page faults:       797293
                          Major page faults:         2950
                 Voluntary context switches:         6942
