       N       E                     dE             d eps       ncg     rms          ort
SDA:   1    -0.820103604111E+02   -0.82010E+02    0.00000E+00  4784   0.139E-04 0.000E+00
CGA:   2    -0.820103643583E+02   -0.39472E-05   -0.31804E-06  4784   0.907E-05 0.107E-04
CGA:   3    -0.820103676407E+02   -0.32824E-05   -0.31710E-06  4784   0.647E-05 0.727E-05
CGA:   4    -0.820103698581E+02   -0.22174E-05   -0.44381E-06  4784   0.427E-05 0.494E-05
CGA:   5    -0.820103706497E+02   -0.79161E-06   -0.19473E-06  4784   0.338E-05 0.368E-05
CGA:   6    -0.820103712226E+02   -0.57291E-06   -0.17310E-06  4784   0.273E-05 0.282E-05
CGA:   7    -0.820103714984E+02   -0.27575E-06   -0.63562E-07  4784   0.251E-05 0.222E-05
CGA:   8    -0.820103717291E+02   -0.23075E-06   -0.71762E-07  4784   0.244E-05 0.180E-05
CGA:   9    -0.820103718183E+02   -0.89156E-07   -0.37987E-07  4784   0.209E-05 0.170E-05
CGA:  10    -0.820103719333E+02   -0.11500E-06   -0.49919E-07  4784   0.203E-05 0.147E-05
CGA:  11    -0.820103721751E+02   -0.24187E-06   -0.28254E-07  4784   0.177E-05 0.152E-05
CGA:  12    -0.820103722370E+02   -0.61882E-07   -0.44101E-07  4784   0.175E-05 0.115E-05
CGA:  13    -0.820103724085E+02   -0.17150E-06   -0.34511E-07  4784   0.154E-05 0.935E-06
CGA:  14    -0.820103723782E+02    0.30323E-07   -0.31110E-07  4784   0.151E-05 0.757E-06
CGA:  15    -0.820103725415E+02   -0.16328E-06   -0.13927E-06  4784   0.983E-06 0.145E-05
CGA:  16    -0.820103725840E+02   -0.42515E-07   -0.12776E-07  4784   0.939E-06 0.452E-06
CGA:  17    -0.820103726686E+02   -0.84594E-07   -0.51008E-07  4784   0.787E-06 0.687E-06
CGA:  18    -0.820103727098E+02   -0.41167E-07   -0.84125E-08  4784   0.772E-06 0.405E-06
CGA:  19    -0.820103727465E+02   -0.36722E-07   -0.85754E-08  4784   0.804E-06 0.192E-06
CGA:  20    -0.820103727719E+02   -0.25431E-07   -0.16769E-07  4784   0.715E-06 0.468E-06
CGA:  21    -0.820103728071E+02   -0.35203E-07   -0.52246E-08  4784   0.551E-06 0.375E-06
CGA:  22    -0.820103728298E+02   -0.22646E-07   -0.44939E-08  4784   0.736E-06 0.262E-06
CGA:  23    -0.820103727937E+02    0.36043E-07   -0.84112E-08  4784   0.647E-06 0.212E-06
CGA:  24    -0.820103728069E+02   -0.13166E-07   -0.12925E-07  4784   0.675E-06 0.635E-06
CGA:  25    -0.820103728803E+02   -0.73454E-07   -0.30733E-08  4784   0.485E-06 0.332E-06
CGA:  26    -0.820103728556E+02    0.24715E-07   -0.44296E-08  4784   0.516E-06 0.509E-06
CGA:  27    -0.820103729006E+02   -0.45020E-07   -0.16762E-08  4784   0.385E-06 0.388E-06
CGA:  28    -0.820103728902E+02    0.10406E-07   -0.24541E-08  4784   0.477E-06 0.990E-07
CGA:  29    -0.820103728831E+02    0.71759E-08   -0.24339E-08  4784   0.506E-06 0.286E-06
   1 F= -.82010373E+02 E0= -.82010373E+02  d E =0.000000E+00  mag=     0.0000    -0.0000    -0.0000
