 vasp.5.4.4.18Apr17-6-g9f103f2a35 (build Oct 04 2018 15:53:47) complex          
  
 executed on             LinuxIFC date 2022.10.07  15:46:26
 running on  256 total cores
 distrk:  each k-point on  256 cores,    1 groups
 distr:  one band on NCORES_PER_BAND=  32 cores,    8 groups


--------------------------------------------------------------------------------------------------------


 INCAR:
 POTCAR:    PAW_PBE S 06Sep2000                   
 POTCAR:     PAW_PBE Cu_pv 06Sep2000              
 POTCAR:     PAW_PBE Fe_pv 02Aug2007              
 POTCAR:    PAW_PBE S 06Sep2000                   
   SHA256 =  0fc7481fb0695f01bdc6462160264c5c84044ae9ec85a907d398b887a2bc3132 S/
   COPYR  = (c) Copyright 06Sep2000 Georg Kresse                                
   COPYR  = This file is part of the software VASP. Any use, copying, and all ot
   COPYR  = If you do not have a valid VASP license, you may not use, copy or di
   VRHFIN =S : s2p4                                                             
   LEXCH  = PE                                                                  
   EATOM  =   276.8230 eV,   20.3459 Ry                                         
                                                                                
   TITEL  = PAW_PBE S 06Sep2000                                                 
   LULTRA =        F    use ultrasoft PP ?                                      
   IUNSCR =        1    unscreen: 0-lin 1-nonlin 2-no                           
   RPACOR =    1.500    partial core radius                                     
   POMASS =   32.066; ZVAL   =    6.000    mass and valenz                      
   RCORE  =    1.900    outmost cutoff radius                                   
   RWIGS  =    2.200; RWIGS  =    1.164    wigner-seitz radius (au A)           
   ENMAX  =  258.689; ENMIN  =  194.016 eV                                      
   ICORE  =        2    local potential                                         
   LCOR   =        T    correct aug charges                                     
   LPAW   =        T    paw PP                                                  
   EAUG   =  335.092                                                            
   DEXC   =    0.000                                                            
   RMAX   =    1.942    core radius for proj-oper                               
   RAUG   =    1.300    factor for augmentation sphere                          
   RDEP   =    1.954    radius for radial grids                                 
   RDEPT  =    1.744    core radius for aug-charge                              
                                                                                
   Atomic configuration                                                         
    6 entries                                                                   
     n  l   j            E        occ.                                          
     1  0  0.50     -2405.8406   2.0000                                         
     2  0  0.50      -211.7007   2.0000                                         
     2  1  1.50      -156.4958   6.0000                                         
     3  0  0.50       -17.2562   2.0000                                         
     3  1  0.50        -7.0085   4.0000                                         
     3  2  1.50        -6.8029   0.0000                                         
   Description                                                                  
     l       E           TYP  RCUT    TYP  RCUT                                 
     0    -17.2561641     23  1.900                                             
     0    -15.8743224     23  1.900                                             
     1     -7.0085400     23  1.900                                             
     1     -2.7779785     23  1.900                                             
     2     -6.8029130     23  1.900                                             
  local pseudopotential read in
  partial core-charges read in
  partial kinetic energy density read in
  atomic valenz-charges read in
  non local Contribution for L=           0  read in
    real space projection operators read in
  non local Contribution for L=           0  read in
    real space projection operators read in
  non local Contribution for L=           1  read in
    real space projection operators read in
  non local Contribution for L=           1  read in
    real space projection operators read in
    PAW grid and wavefunctions read in
 
   number of l-projection  operators is LMAX  =           4
   number of lm-projection operators is LMMAX =           8
 
 POTCAR:     PAW_PBE Cu_pv 06Sep2000              
   SHA256 =  cb7b504e2ea725fe1f25c85a9ac77d4012ce94cd394135b722c4e25ec297f1cb Cu
   COPYR  = (c) Copyright 06Sep2000 Georg Kresse                                
   COPYR  = This file is part of the software VASP. Any use, copying, and all ot
   COPYR  = If you do not have a valid VASP license, you may not use, copy or di
   VRHFIN =Cu: d10 p1                                                           
   LEXCH  = PE                                                                  
   EATOM  =  4120.1201 eV,  302.8203 Ry                                         
                                                                                
   TITEL  = PAW_PBE Cu_pv 06Sep2000                                             
   LULTRA =        F    use ultrasoft PP ?                                      
   IUNSCR =        1    unscreen: 0-lin 1-nonlin 2-no                           
   RPACOR =    1.500    partial core radius                                     
   POMASS =   63.546; ZVAL   =   17.000    mass and valenz                      
   RCORE  =    2.000    outmost cutoff radius                                   
   RWIGS  =    2.000; RWIGS  =    1.058    wigner-seitz radius (au A)           
   ENMAX  =  368.648; ENMIN  =  276.486 eV                                      
   RCLOC  =    1.304    cutoff for local pot                                    
   LCOR   =        T    correct aug charges                                     
   LPAW   =        T    paw PP                                                  
   EAUG   =  758.233                                                            
   DEXC   =    0.000                                                            
   RMAX   =    2.046    core radius for proj-oper                               
   RAUG   =    1.300    factor for augmentation sphere                          
   RDEP   =    2.025    radius for radial grids                                 
   RDEPT  =    1.558    core radius for aug-charge                              
                                                                                
   Atomic configuration                                                         
    8 entries                                                                   
     n  l   j            E        occ.                                          
     1  0  0.50     -8850.2467   2.0000                                         
     2  0  0.50     -1062.3498   2.0000                                         
     2  1  1.50      -916.8226   6.0000                                         
     3  0  0.50      -114.6929   2.0000                                         
     3  1  1.50       -72.1325   6.0000                                         
     3  2  2.50        -5.0394  10.0000                                         
     4  0  0.50        -4.6097   1.0000                                         
     4  3  2.50        -1.3606   0.0000                                         
   Description                                                                  
     l       E           TYP  RCUT    TYP  RCUT                                 
     1    -72.1324777     23  1.700                                             
     1     -1.3605826     23  1.700                                             
     2     -5.0393776     23  2.000                                             
     2     -6.3999602     23  2.000                                             
     0     -4.6097062     23  1.800                                             
     0     14.1620818     23  1.800                                             
  local pseudopotential read in
  partial core-charges read in
  partial kinetic energy density read in
  atomic valenz-charges read in
  non local Contribution for L=           1  read in
    real space projection operators read in
  non local Contribution for L=           1  read in
    real space projection operators read in
  non local Contribution for L=           2  read in
    real space projection operators read in
  non local Contribution for L=           2  read in
    real space projection operators read in
  non local Contribution for L=           0  read in
    real space projection operators read in
  non local Contribution for L=           0  read in
    real space projection operators read in
    PAW grid and wavefunctions read in
 
   number of l-projection  operators is LMAX  =           6
   number of lm-projection operators is LMMAX =          18
 
 POTCAR:     PAW_PBE Fe_pv 02Aug2007              
   SHA256 =  5d22e414b1f82158bf2c7ecb8b97b28fd0923e48cadc1c3bf74d524558f5dd32 Fe
   COPYR  = (c) Copyright 02Aug2007 Georg Kresse                                
   COPYR  = This file is part of the software VASP. Any use, copying, and all ot
   COPYR  = If you do not have a valid VASP license, you may not use, copy or di
   VRHFIN =Fe:  3pd7s1                                                          
   LEXCH  = PE                                                                  
   EATOM  =  2457.4239 eV,  180.6156 Ry                                         
                                                                                
   TITEL  = PAW_PBE Fe_pv 02Aug2007                                             
   LULTRA =        F    use ultrasoft PP ?                                      
   IUNSCR =        1    unscreen: 0-lin 1-nonlin 2-no                           
   RPACOR =    1.750    partial core radius                                     
   POMASS =   55.847; ZVAL   =   14.000    mass and valenz                      
   RCORE  =    2.200    outmost cutoff radius                                   
   RWIGS  =    2.200; RWIGS  =    1.164    wigner-seitz radius (au A)           
   ENMAX  =  293.238; ENMIN  =  219.928 eV                                      
   ICORE  =        3    local potential                                         
   LCOR   =        T    correct aug charges                                     
   LPAW   =        T    paw PP                                                  
   EAUG   =  578.342                                                            
   DEXC   =    0.000                                                            
   RMAX   =    2.249    core radius for proj-oper                               
   RAUG   =    1.300    factor for augmentation sphere                          
   RDEP   =    2.296    radius for radial grids                                 
   RDEPT  =    1.766    core radius for aug-charge                              
                                                                                
   Atomic configuration                                                         
    8 entries                                                                   
     n  l   j            E        occ.                                          
     1  0  0.50     -6993.8440   2.0000                                         
     2  0  0.50      -814.6047   2.0000                                         
     2  1  1.50      -693.3689   6.0000                                         
     3  0  0.50       -89.4732   2.0000                                         
     3  1  1.50       -55.6373   6.0000                                         
     3  2  2.50        -3.8151   7.0000                                         
     4  0  0.50        -4.2551   1.0000                                         
     4  3  2.50        -1.3606   0.0000                                         
   Description                                                                  
     l       E           TYP  RCUT    TYP  RCUT                                 
     1    -55.6372668     23  2.000                                             
     1     -5.4423304     23  2.000                                             
     2     -3.8151096     23  2.200                                             
     2     -5.1756922     23  2.200                                             
     0     -4.2550951     23  2.200                                             
     0     27.2116520     23  2.200                                             
     3     -1.3605826     23  2.200                                             
  local pseudopotential read in
  partial core-charges read in
  partial kinetic energy density read in
  atomic valenz-charges read in
  non local Contribution for L=           1  read in
    real space projection operators read in
  non local Contribution for L=           1  read in
    real space projection operators read in
  non local Contribution for L=           2  read in
    real space projection operators read in
  non local Contribution for L=           2  read in
    real space projection operators read in
  non local Contribution for L=           0  read in
    real space projection operators read in
  non local Contribution for L=           0  read in
    real space projection operators read in
    PAW grid and wavefunctions read in
 
   number of l-projection  operators is LMAX  =           6
   number of lm-projection operators is LMMAX =          18
 

 ----------------------------------------------------------------------------- 
|                                                                             |
|  ADVICE TO THIS USER RUNNING 'VASP/VAMP'   (HEAR YOUR MASTER'S VOICE ...):  |
|                                                                             |
|      You enforced a specific xc-type in the INCAR file,                     |
|      a different type was found on the POTCAR file                          |
|          I HOPE YOU KNOW, WHAT YOU ARE  DOING                               |
|                                                                             |
 ----------------------------------------------------------------------------- 

  PAW_PBE S 06Sep2000                   :
 energy of atom  1       EATOM= -276.8230
 kinetic energy error for atom=    0.0007 (will be added to EATOM!!)
   PAW_PBE Cu_pv 06Sep2000              :
 energy of atom  2       EATOM=-4120.1201
 kinetic energy error for atom=    0.0094 (will be added to EATOM!!)
   PAW_PBE Fe_pv 02Aug2007              :
 energy of atom  3       EATOM=-2457.4239
 kinetic energy error for atom=    0.0025 (will be added to EATOM!!)
 
 
 POSCAR: sm_isp_SD0310437-standardized_unitcell  
  positions in direct lattice
  velocities in cartesian coordinates
 exchange correlation table for  LEXCH =       14
   RHO(1)=    0.500       N(1)  =     2000
   RHO(2)=  100.500       N(2)  =     4000
 


--------------------------------------------------------------------------------------------------------


 ion  position               nearest neighbor table
   1  0.253  0.250  0.125-  10 2.25  11 2.25  13 2.27  16 2.27
   2  0.747  0.750  0.125-  10 2.25  11 2.25  13 2.27  16 2.27
   3  0.250  0.747  0.875-  11 2.25  12 2.25  13 2.27  14 2.27
   4  0.750  0.253  0.875-  11 2.25  12 2.25  13 2.27  14 2.27
   5  0.247  0.250  0.625-   9 2.25  12 2.25  14 2.27  15 2.27
   6  0.753  0.750  0.625-   9 2.25  12 2.25  14 2.27  15 2.27
   7  0.750  0.247  0.375-   9 2.25  10 2.25  15 2.27  16 2.27
   8  0.250  0.753  0.375-   9 2.25  10 2.25  15 2.27  16 2.27
   9  0.000  0.000  0.500-   5 2.25   7 2.25   6 2.25   8 2.25
  10  0.500  0.000  0.250-   1 2.25   7 2.25   2 2.25   8 2.25
  11  0.500  0.500  0.000-   1 2.25   4 2.25   3 2.25   2 2.25
  12  0.000  0.500  0.750-   4 2.25   5 2.25   3 2.25   6 2.25
  13  0.000  0.000  0.000-   2 2.27   3 2.27   1 2.27   4 2.27
  14  0.500  0.000  0.750-   3 2.27   6 2.27   5 2.27   4 2.27
  15  0.500  0.500  0.500-   6 2.27   8 2.27   7 2.27   5 2.27
  16  0.000  0.500  0.250-   2 2.27   8 2.27   7 2.27   1 2.27
 
  LATTYP: Found a simple tetragonal cell.
 ALAT       =     5.1536099424
 C/A-ratio  =     2.0794735040
  
  Lattice vectors:
  
 A1 = (   5.1536099424,   0.0000000000,   0.0000000000)
 A2 = (   0.0000000000,   5.1536099424,   0.0000000000)
 A3 = (   0.0000000000,   0.0000000000,  10.7167953252)


Analysis of symmetry for initial positions (statically):
=====================================================================
 Subroutine PRICEL returns following result:
 
  LATTYP: Found a body centered tetragonal cell.
 ALAT       =     5.1536099424
 C/A-ratio  =     2.0794735040
  
  Lattice vectors:
  
 A1 = (   2.5768049712,  -2.5768049712,   5.3583976626)
 A2 = (  -2.5768049712,   2.5768049712,   5.3583976626)
 A3 = (  -2.5768049712,  -2.5768049712,  -5.3583976626)
 
   2 primitive cells build up your supercell.
 

 Routine SETGRP: Setting up the symmetry group for a 
 simple tetragonal supercell.


 Subroutine GETGRP returns: Found  8 space group operations
 (whereof  4 operations were pure point group operations)
 out of a pool of 16 trial point group operations.


The static configuration has the point symmetry S_4 .
 The point group associated with its full space group is D_2d.


Analysis of symmetry for dynamics (positions and initial velocities):
=====================================================================
 Subroutine PRICEL returns following result:
 
  LATTYP: Found a body centered tetragonal cell.
 ALAT       =     5.1536099424
 C/A-ratio  =     2.0794735040
  
  Lattice vectors:
  
 A1 = (   2.5768049712,  -2.5768049712,   5.3583976626)
 A2 = (  -2.5768049712,   2.5768049712,   5.3583976626)
 A3 = (  -2.5768049712,  -2.5768049712,  -5.3583976626)
 
   2 primitive cells build up your supercell.
 

 Routine SETGRP: Setting up the symmetry group for a 
 simple tetragonal supercell.


 Subroutine GETGRP returns: Found  8 space group operations
 (whereof  4 operations were pure point group operations)
 out of a pool of 16 trial point group operations.


The dynamic configuration has the point symmetry S_4 .
 The point group associated with its full space group is D_2d.


Analysis of structural, dynamic, and magnetic symmetry:
=====================================================================
 Subroutine PRICEL returns following result:
 
  LATTYP: Found a body centered tetragonal cell.
 ALAT       =     5.1536099424
 C/A-ratio  =     2.0794735040
  
  Lattice vectors:
  
 A1 = (   2.5768049712,  -2.5768049712,   5.3583976626)
 A2 = (  -2.5768049712,   2.5768049712,   5.3583976626)
 A3 = (  -2.5768049712,  -2.5768049712,  -5.3583976626)
 
   2 primitive cells build up your supercell.
 

 Routine SETGRP: Setting up the symmetry group for a 
 simple tetragonal supercell.


 Subroutine GETGRP returns: Found  8 space group operations
 (whereof  4 operations were pure point group operations)
 out of a pool of 16 trial point group operations.


The (compounded) configuration has the point symmetry S_4 .
 The point group associated with its full space group is D_2d.


 Subroutine INISYM returns: Found  8 space group operations
 (whereof  4 operations are pure point group operations),
 and found     2 'primitive' translations

 
 
 KPOINTS: Automatic mesh                          

Automatic generation of k-mesh.
Space group operators:
 irot       det(A)        alpha          n_x          n_y          n_z        tau_x        tau_y        tau_z
    1     1.000000     0.000001     1.000000     0.000000     0.000000     0.000000     0.000000     0.000000
    2    -1.000000    90.000000     0.000000     0.000000    -1.000000     0.000000     0.000000     0.000000
    3     1.000000   180.000000     0.000000     0.000000     1.000000     0.000000     0.000000     0.000000
    4    -1.000000    90.000000     0.000000     0.000000     1.000000     0.000000     0.000000     0.000000
    5     1.000000   180.000000     0.000000     1.000000     0.000000     0.000000    -0.500000     0.250000
    6    -1.000000   180.000000     0.707107     0.707107     0.000000     0.000000    -0.500000     0.250000
    7     1.000000   180.000000     1.000000     0.000000     0.000000     0.000000    -0.500000     0.250000
    8    -1.000000   180.000000     0.707107    -0.707107     0.000000     0.000000    -0.500000     0.250000
 
 Subroutine IBZKPT returns following result:
 ===========================================
 
 Found     23 irreducible k-points:
 
 Following reciprocal coordinates:
            Coordinates               Weight
  0.000000  0.000000  0.000000      1.000000
  0.166667  0.000000  0.000000      4.000000
  0.333333  0.000000  0.000000      4.000000
  0.500000  0.000000  0.000000      2.000000
  0.166667  0.166667  0.000000      4.000000
  0.333333  0.166667  0.000000      8.000000
  0.500000  0.166667  0.000000      4.000000
  0.333333  0.333333  0.000000      4.000000
  0.500000  0.333333  0.000000      4.000000
  0.500000  0.500000  0.000000      1.000000
  0.000000  0.000000  0.333333      2.000000
  0.166667  0.000000  0.333333      8.000000
  0.333333  0.000000  0.333333      8.000000
  0.500000  0.000000  0.333333      4.000000
  0.166667  0.166667  0.333333      4.000000
  0.333333  0.166667  0.333333      8.000000
  0.500000  0.166667  0.333333      8.000000
 -0.333333  0.166667  0.333333      8.000000
 -0.166667  0.166667  0.333333      4.000000
  0.333333  0.333333  0.333333      4.000000
  0.500000  0.333333  0.333333      8.000000
 -0.333333  0.333333  0.333333      4.000000
  0.500000  0.500000  0.333333      2.000000
 
 Following cartesian coordinates:
            Coordinates               Weight
  0.000000  0.000000  0.000000      1.000000
  0.032340  0.000000  0.000000      4.000000
  0.064680  0.000000  0.000000      4.000000
  0.097019  0.000000  0.000000      2.000000
  0.032340  0.032340  0.000000      4.000000
  0.064680  0.032340  0.000000      8.000000
  0.097019  0.032340  0.000000      4.000000
  0.064680  0.064680  0.000000      4.000000
  0.097019  0.064680  0.000000      4.000000
  0.097019  0.097019  0.000000      1.000000
  0.000000  0.000000  0.031104      2.000000
  0.032340  0.000000  0.031104      8.000000
  0.064680  0.000000  0.031104      8.000000
  0.097019  0.000000  0.031104      4.000000
  0.032340  0.032340  0.031104      4.000000
  0.064680  0.032340  0.031104      8.000000
  0.097019  0.032340  0.031104      8.000000
 -0.064680  0.032340  0.031104      8.000000
 -0.032340  0.032340  0.031104      4.000000
  0.064680  0.064680  0.031104      4.000000
  0.097019  0.064680  0.031104      8.000000
 -0.064680  0.064680  0.031104      4.000000
  0.097019  0.097019  0.031104      2.000000
 
 TETIRR: Found    274 inequivalent tetrahedra from      648


--------------------------------------------------------------------------------------------------------




 Dimension of arrays:
   k-points           NKPTS =     23   k-points in BZ     NKDIM =     23   number of bands    NBANDS=    208
   number of dos      NEDOS =    301   number of ions     NIONS =     16
   non local maximal  LDIM  =      6   non local SUM 2l+1 LMDIM =     18
   total plane-waves  NPLWV = 221184
   max r-space proj   IRMAX =      1   max aug-charges    IRDMAX=  24678
   dimension x,y,z NGX =    48 NGY =   48 NGZ =   96
   dimension x,y,z NGXF=    96 NGYF=   96 NGZF=  192
   support grid    NGXF=    96 NGYF=   96 NGZF=  192
   ions per type =               8   4   4
   NGX,Y,Z   is equivalent  to a cutoff of  15.48, 15.48, 14.89 a.u.
   NGXF,Y,Z  is equivalent  to a cutoff of  30.97, 30.97, 29.78 a.u.

 SYSTEM =  CuFeS2                                  
 POSCAR =  sm_isp_SD0310437-standardized_unitcell  

 Startparameter for this run:
   NWRITE =      2    write-flag & timer
   PREC   = accura    normal or accurate (medium, high low for compatibility)
   ISTART =      1    job   : 0-new  1-cont  2-samecut
   ICHARG =      1    charge: 1-file 2-atom 10-const
   ISPIN  =      1    spin polarized calculation?
   LNONCOLLINEAR =      T non collinear calculations
   LSORBIT =      F    spin-orbit coupling
   INIWAV =      1    electr: 0-lowe 1-rand  2-diag
   LASPH  =      T    aspherical Exc in radial PAW
   METAGGA=      F    non-selfconsistent MetaGGA calc.

 Electronic Relaxation 1
   ENCUT  =  700.0 eV  51.45 Ry    7.17 a.u.  11.12 11.12 23.12*2*pi/ulx,y,z
   ENINI  =  700.0     initial cutoff
   ENAUG  =  758.2 eV  augmentation charge cutoff
   NELM   =    200;   NELMIN=  2; NELMDL=  0     # of ELM steps 
   EDIFF  = 0.1E-07   stopping-criterion for ELM
   LREAL  =      F    real-space projection
   NLSPLINE    = F    spline interpolate recip. space projectors
   LCOMPAT=      F    compatible to vasp.4.4
   GGA_COMPAT  = T    GGA compatible to vasp.4.4-vasp.4.6
   LMAXPAW     = -100 max onsite density
   LMAXMIX     =    4 max onsite mixed and CHGCAR
   VOSKOWN=      0    Vosko Wilk Nusair interpolation
   ROPT   =    0.00000   0.00000   0.00000
 Ionic relaxation
   EDIFFG = -.1E-04   stopping-criterion for IOM
   NSW    =      0    number of steps for IOM
   NBLOCK =      1;   KBLOCK =      1    inner block; outer block 
   IBRION =     -1    ionic relax: 0-MD 1-quasi-New 2-CG
   NFREE  =      0    steps in history (QN), initial steepest desc. (CG)
   ISIF   =      2    stress and relaxation
   IWAVPR =     10    prediction:  0-non 1-charg 2-wave 3-comb
   ISYM   =      1    0-nonsym 1-usesym 2-fastsym
   LCORR  =      T    Harris-Foulkes like correction to forces

   POTIM  = 0.1000    time-step for ionic-motion
   TEIN   =    0.0    initial temperature
   TEBEG  =    0.0;   TEEND  =   0.0 temperature during run
   SMASS  =  -3.00    Nose mass-parameter (am)
   estimated Nose-frequenzy (Omega)   =  0.10E-29 period in steps =****** mass=  -0.607E-27a.u.
   SCALEE = 1.0000    scale energy and forces
   NPACO  =    256;   APACO  = 16.0  distance and # of slots for P.C.
   PSTRESS=    0.0 pullay stress

  Mass of Ions in am
   POMASS =  32.07 63.55 55.85
  Ionic Valenz
   ZVAL   =   6.00 17.00 14.00
  Atomic Wigner-Seitz radii
   RWIGS  =  -1.00 -1.00 -1.00
  virtual crystal weights 
   VCA    =   1.00  1.00  1.00
   NELECT =     172.0000    total number of electrons
   NUPDOWN=      -1.0000    fix difference up-down

 DOS related values:
   EMIN   =  10.00;   EMAX   =-10.00  energy-range for DOS
   EFERMI =   0.00
   ISMEAR =    -5;   SIGMA  =   0.03  broadening in eV -4-tet -1-fermi 0-gaus

 Electronic relaxation 2 (details)
   IALGO  =     58    algorithm
   LDIAG  =      T    sub-space diagonalisation (order eigenvalues)
   LSUBROT=      F    optimize rotation matrix (better conditioning)
   TURBO    =      0    0=normal 1=particle mesh
   IRESTART =      0    0=no restart 2=restart with 2 vectors
   NREBOOT  =      0    no. of reboots
   NMIN     =      0    reboot dimension
   EREF     =   0.00    reference energy to select bands
   IMIX   =      4    mixing-type and parameters
     AMIX     =   0.40;   BMIX     =  1.00
     AMIX_MAG =   1.60;   BMIX_MAG =  1.00
     AMIN     =   0.10
     WC   =   100.;   INIMIX=   1;  MIXPRE=   1;  MAXMIX= -45

 Intra band minimization:
   WEIMIN = 0.0000     energy-eigenvalue tresh-hold
   EBREAK =  0.12E-10  absolut break condition
   DEPER  =   0.30     relativ break condition  

   TIME   =   0.40     timestep for ELM

  volume/ion in A,a.u.               =      17.79       120.05
  Fermi-wavevector in a.u.,A,eV,Ry     =   1.384060  2.615494 26.063627  1.915623
  Thomas-Fermi vector in A             =   2.508600
 
 Write flags
   LWAVE        =      T    write WAVECAR
   LDOWNSAMPLE  =      F    k-point downsampling of WAVECAR
   LCHARG       =      T    write CHGCAR
   LVTOT        =      F    write LOCPOT, total local potential
   LVHAR        =      F    write LOCPOT, Hartree potential only
   LELF         =      F    write electronic localiz. function (ELF)
   LORBIT       =     11    0 simple, 1 ext, 2 COOP (PROOUT), +10 PAW based schemes


 Dipole corrections
   LMONO  =      F    monopole corrections only (constant potential shift)
   LDIPOL =      F    correct potential (dipole corrections)
   IDIPOL =      0    1-x, 2-y, 3-z, 4-all directions 
   EPSILON=  1.0000000 bulk dielectric constant

 LDA+U is selected, type is set to LDAUTYPE =  2
   angular momentum for each species LDAUL =     2    2    2
   U (eV)           for each species LDAUU =   0.0  0.1  4.7
   J (eV)           for each species LDAUJ =   0.0  0.0  0.0
 Exchange correlation treatment:
   GGA     =    PS    GGA type
   LEXCH   =    14    internal setting for exchange type
   VOSKOWN=      0    Vosko Wilk Nusair interpolation
   LHFCALC =     F    Hartree Fock is set to
   LHFONE  =     F    Hartree Fock one center treatment
   AEXX    =    0.0000 exact exchange contribution

 Linear response parameters
   LEPSILON=     F    determine dielectric tensor
   LRPA    =     F    only Hartree local field effects (RPA)
   LNABLA  =     F    use nabla operator in PAW spheres
   LVEL    =     F    velocity operator in full k-point grid
   LINTERFAST=   F  fast interpolation
   KINTER  =     0    interpolate to denser k-point grid
   CSHIFT  =0.1000    complex shift for real part using Kramers Kronig
   OMEGAMAX=  -1.0    maximum frequency
   DEG_THRESHOLD= 0.2000000E-02 threshold for treating states as degnerate
   RTIME   =   -0.100 relaxation time in fs
  (WPLASMAI=    0.000 imaginary part of plasma frequency in eV, 0.658/RTIME)
   DFIELD  = 0.0000000 0.0000000 0.0000000 field for delta impulse in time
 
 Orbital magnetization related:
   ORBITALMAG=     F  switch on orbital magnetization
   LCHIMAG   =     F  perturbation theory with respect to B field
   DQ        =  0.001000  dq finite difference perturbation B field
   LLRAUG    =     F  two centre corrections for induced B field



--------------------------------------------------------------------------------------------------------


 Static calculation
 charge density and potential will be updated during run
 non collinear spin polarized calculation
 Conjugate gradient for all bands (Freysoldt, et al. PRB 79, 241103 (2009))
 preconditioned conjugated gradient                                        
 perform sub-space diagonalisation
    before iterative eigenvector-optimisation
 modified Broyden-mixing scheme, WC =      100.0
 initial mixing is a Kerker type mixing with AMIX =  0.4000 and BMIX =      1.0000
 Hartree-type preconditioning will be used
 using additional bands          122
 reciprocal scheme for non local part
 use partial core corrections
 no Harris-corrections to forces 
 use gradient corrections 
 use of overlap-Matrix (Vanderbilt PP)
 Fermi weights with tetrahedron method with Bloechl corrections


--------------------------------------------------------------------------------------------------------


  energy-cutoff  :      700.00
  volume of cell :      284.63
      direct lattice vectors                 reciprocal lattice vectors
     5.153609942  0.000000000  0.000000000     0.194038744  0.000000000  0.000000000
     0.000000000  5.153609942  0.000000000     0.000000000  0.194038744  0.000000000
     0.000000000  0.000000000 10.716795325     0.000000000  0.000000000  0.093311477

  length of vectors
     5.153609942  5.153609942 10.716795325     0.194038744  0.194038744  0.093311477


 
 old parameters found on file WAVECAR:
  energy-cutoff  :      700.00
  volume of cell :      284.63
      direct lattice vectors                 reciprocal lattice vectors
     5.153609942  0.000000000  0.000000000     0.194038744  0.000000000  0.000000000
     0.000000000  5.153609942  0.000000000     0.000000000  0.194038744  0.000000000
     0.000000000  0.000000000 10.716532611     0.000000000  0.000000000  0.093313764

  length of vectors

 
 k-points in units of 2pi/SCALE and weight: Automatic mesh                          
   0.00000000  0.00000000  0.00000000       0.009
   0.03233979  0.00000000  0.00000000       0.037
   0.06467958  0.00000000  0.00000000       0.037
   0.09701937  0.00000000  0.00000000       0.019
   0.03233979  0.03233979  0.00000000       0.037
   0.06467958  0.03233979  0.00000000       0.074
   0.09701937  0.03233979  0.00000000       0.037
   0.06467958  0.06467958  0.00000000       0.037
   0.09701937  0.06467958  0.00000000       0.037
   0.09701937  0.09701937  0.00000000       0.009
   0.00000000  0.00000000  0.03110383       0.019
   0.03233979  0.00000000  0.03110383       0.074
   0.06467958  0.00000000  0.03110383       0.074
   0.09701937  0.00000000  0.03110383       0.037
   0.03233979  0.03233979  0.03110383       0.037
   0.06467958  0.03233979  0.03110383       0.074
   0.09701937  0.03233979  0.03110383       0.074
  -0.06467958  0.03233979  0.03110383       0.074
  -0.03233979  0.03233979  0.03110383       0.037
   0.06467958  0.06467958  0.03110383       0.037
   0.09701937  0.06467958  0.03110383       0.074
  -0.06467958  0.06467958  0.03110383       0.037
   0.09701937  0.09701937  0.03110383       0.019
 
 k-points in reciprocal lattice and weights: Automatic mesh                          
   0.00000000  0.00000000  0.00000000       0.009
   0.16666667  0.00000000  0.00000000       0.037
   0.33333333  0.00000000  0.00000000       0.037
   0.50000000  0.00000000  0.00000000       0.019
   0.16666667  0.16666667  0.00000000       0.037
   0.33333333  0.16666667  0.00000000       0.074
   0.50000000  0.16666667  0.00000000       0.037
   0.33333333  0.33333333  0.00000000       0.037
   0.50000000  0.33333333  0.00000000       0.037
   0.50000000  0.50000000  0.00000000       0.009
   0.00000000  0.00000000  0.33333333       0.019
   0.16666667  0.00000000  0.33333333       0.074
   0.33333333  0.00000000  0.33333333       0.074
   0.50000000  0.00000000  0.33333333       0.037
   0.16666667  0.16666667  0.33333333       0.037
   0.33333333  0.16666667  0.33333333       0.074
   0.50000000  0.16666667  0.33333333       0.074
  -0.33333333  0.16666667  0.33333333       0.074
  -0.16666667  0.16666667  0.33333333       0.037
   0.33333333  0.33333333  0.33333333       0.037
   0.50000000  0.33333333  0.33333333       0.074
  -0.33333333  0.33333333  0.33333333       0.037
   0.50000000  0.50000000  0.33333333       0.019
 
 position of ions in fractional coordinates (direct lattice) 
   0.25285380  0.25000000  0.12500000
   0.74714623  0.75000000  0.12500000
   0.25000000  0.74714623  0.87500000
   0.75000000  0.25285380  0.87500000
   0.24714620  0.25000000  0.62500000
   0.75285377  0.75000000  0.62500000
   0.75000000  0.24714620  0.37500000
   0.25000000  0.75285377  0.37500000
   0.00000000  0.00000000  0.50000000
   0.50000000  0.00000000  0.25000000
   0.50000000  0.50000000  0.00000000
   0.00000000  0.50000000  0.75000000
   0.00000000  0.00000000  0.00000000
   0.50000000  0.00000000  0.75000000
   0.50000000  0.50000000  0.50000000
   0.00000000  0.50000000  0.25000000
 
 position of ions in cartesian coordinates  (Angst):
   1.30310983  1.28840249  1.33959942
   3.85050026  3.86520746  1.33959942
   1.28840249  3.85050026  9.37719591
   3.86520746  1.30310983  9.37719591
   1.27369514  1.28840249  6.69799708
   3.87991465  3.86520746  6.69799708
   3.86520746  1.27369514  4.01879825
   1.28840249  3.87991465  4.01879825
   0.00000000  0.00000000  5.35839766
   2.57680497  0.00000000  2.67919883
   2.57680497  2.57680497  0.00000000
   0.00000000  2.57680497  8.03759649
   0.00000000  0.00000000  0.00000000
   2.57680497  0.00000000  8.03759649
   2.57680497  2.57680497  5.35839766
   0.00000000  2.57680497  2.67919883
 
 Euler angles ALPHA=     0.0000000  BETA=     0.0000000

 transformation matrix from SAXIS to cartesian coordinates
 ---------------------------------------------------------
     1.0000000 m_x     0.0000000 m_y     0.0000000 m_z
     0.0000000 m_x     1.0000000 m_y     0.0000000 m_z
     0.0000000 m_x     0.0000000 m_y     1.0000000 m_z

 transformation matrix from cartesian coordinates to SAXIS
 ---------------------------------------------------------
     1.0000000 m_x     0.0000000 m_y     0.0000000 m_z
     0.0000000 m_x     1.0000000 m_y     0.0000000 m_z
     0.0000000 m_x     0.0000000 m_y     1.0000000 m_z




--------------------------------------------------------------------------------------------------------


 k-point  1 :   0.0000 0.0000 0.0000  plane waves:   23790
 k-point  2 :   0.1667 0.0000 0.0000  plane waves:   23916
 k-point  3 :   0.3333 0.0000 0.0000  plane waves:   23956
 k-point  4 :   0.5000 0.0000 0.0000  plane waves:   24012
 k-point  5 :   0.1667 0.1667 0.0000  plane waves:   23932
 k-point  6 :   0.3333 0.1667 0.0000  plane waves:   23918
 k-point  7 :   0.5000 0.1667 0.0000  plane waves:   23928
 k-point  8 :   0.3333 0.3333 0.0000  plane waves:   23960
 k-point  9 :   0.5000 0.3333 0.0000  plane waves:   23924
 k-point 10 :   0.5000 0.5000 0.0000  plane waves:   23936
 k-point 11 :   0.0000 0.0000 0.3333  plane waves:   23948
 k-point 12 :   0.1667 0.0000 0.3333  plane waves:   23910
 k-point 13 :   0.3333 0.0000 0.3333  plane waves:   23914
 k-point 14 :   0.5000 0.0000 0.3333  plane waves:   23912
 k-point 15 :   0.1667 0.1667 0.3333  plane waves:   23932
 k-point 16 :   0.3333 0.1667 0.3333  plane waves:   23946
 k-point 17 :   0.5000 0.1667 0.3333  plane waves:   23920
 k-point 18 :  -0.3333 0.1667 0.3333  plane waves:   23946
 k-point 19 :  -0.1667 0.1667 0.3333  plane waves:   23932
 k-point 20 :   0.3333 0.3333 0.3333  plane waves:   24006
 k-point 21 :   0.5000 0.3333 0.3333  plane waves:   23968
 k-point 22 :  -0.3333 0.3333 0.3333  plane waves:   24006
 k-point 23 :   0.5000 0.5000 0.3333  plane waves:   24024

 maximum and minimum number of plane-waves per node :       798      700

 maximum number of plane-waves:     24024
 maximum index in each direction: 
   IXMAX=   11   IYMAX=   11   IZMAX=   23
   IXMIN=  -11   IYMIN=  -11   IZMIN=  -23


 parallel 3D FFT for wavefunctions:
    minimum data exchange during FFTs selected (reduces bandwidth)
 parallel 3D FFT for charge:
    minimum data exchange during FFTs selected (reduces bandwidth)


 total amount of memory used by VASP MPI-rank0    64742. kBytes
=======================================================================

   base      :      30000. kBytes
   nonl-proj :       3913. kBytes
   fftplans  :       1448. kBytes
   grid      :       5898. kBytes
   one-center:         62. kBytes
   wavefun   :      23421. kBytes
 
     INWAV:  cpu time    5.5679: real time    5.6896
 Broyden mixing: mesh for mixing (old mesh)
   NGX = 23   NGY = 23   NGZ = 47
  (NGX  = 96   NGY  = 96   NGZ  =192)
  gives a total of  24863 points

 initial charge density was supplied:
 number of electron     171.9999965 magnetization       0.0000000     -0.0000000      0.0000000
 charge density for first step will be calculated from the start-wavefunctions


--------------------------------------------------------------------------------------------------------


 BZINTS: Fermi energy:  4.964007;172.000000 electrons
         Band energy:***********;  BLOECHL correction:  0.000000
 Maximum index for augmentation-charges          949 (set IRDMAX)


--------------------------------------------------------------------------------------------------------


 initial charge from wavefunction
 First call to EWALD:  gamma=   0.269
 Maximum number of real-space cells 3x 3x 2
 Maximum number of reciprocal cells 2x 2x 4

    FEWALD:  cpu time    0.0156: real time    0.0156

 ----------------------------------------------------------------------------- 
|                                                                             |
|           W    W    AA    RRRRR   N    N  II  N    N   GGGG   !!!           |
|           W    W   A  A   R    R  NN   N  II  NN   N  G    G  !!!           |
|           W    W  A    A  R    R  N N  N  II  N N  N  G       !!!           |
|           W WW W  AAAAAA  RRRRR   N  N N  II  N  N N  G  GGG   !            |
|           WW  WW  A    A  R   R   N   NN  II  N   NN  G    G                |
|           W    W  A    A  R    R  N    N  II  N    N   GGGG   !!!           |
|                                                                             |
|      ALGO=A and IALGO=5X tend to fail with the tetrahedron method           |
|      (e.g. Bloechls method ISMEAR=-5 is not variational)                    |
|      please switch to IMSEAR=0-n, except for DOS calculations               |
|      For DOS calculations use IALGO=53 after preconverging with ISMEAR>=0   |
|          I HOPE YOU KNOW, WHAT YOU ARE  DOING                               |
|                                                                             |
 ----------------------------------------------------------------------------- 



--------------------------------------- Iteration      1(   1)  ---------------------------------------


    POTLOK:  cpu time    0.1158: real time    0.1158
    SETDIJ:  cpu time    0.6402: real time    0.6402
    TRIAL :  cpu time    4.2465: real time    4.2608
 BZINTS: Fermi energy:  4.964008;172.000000 electrons
         Band energy:***********;  BLOECHL correction:  0.000000
 BZINTS: Fermi energy:  4.964006;172.000000 electrons
         Band energy:***********;  BLOECHL correction:  0.000000
    CORREC:  cpu time    3.3449: real time    3.3470
    CHARGE:  cpu time    1.0837: real time    1.0837
    --------------------------------------------
      LOOP:  cpu time    9.4393: real time    9.5047

 eigenvalue-minimisations  :     0
 total energy-change (2. order) :-0.8201036E+02  (-0.3180352E-06)
 number of electron     171.9999965 magnetization       0.0000000      0.0000000      0.0000000
 augmentation part       70.5481811 magnetization       0.0000007     -0.0000003     -0.0003563

 Free energy of the ion-electron system (eV)
  ---------------------------------------------------
  alpha Z        PSCENC =       595.31335311
  Ewald energy   TEWEN  =    -15674.24712867
  -Hartree energ DENC   =    -10702.18242140
  -exchange      EXHF   =         0.00000000
  -V(xc)+E(xc)   XCENC  =       821.97689159
  PAW double counting   =     28177.05989666   -29100.99535004
  entropy T*S    EENTRO =         0.00000000
  eigenvalues    EBANDS =     -2703.95187858
  atomic energy  EATOM  =     28505.01627691
  ---------------------------------------------------
  free energy    TOTEN  =       -82.01036041 eV

  energy without entropy =      -82.01036041  energy(sigma->0) =      -82.01036041


--------------------------------------------------------------------------------------------------------




--------------------------------------- Iteration      1(   2)  ---------------------------------------


    POTLOK:  cpu time    0.1115: real time    0.1115
    SETDIJ:  cpu time    0.6376: real time    0.6375
    TRIAL :  cpu time    2.8498: real time    2.8520
 BZINTS: Fermi energy:  4.964006;172.000000 electrons
         Band energy:***********;  BLOECHL correction:  0.000000
 BZINTS: Fermi energy:  4.964005;172.000000 electrons
         Band energy:***********;  BLOECHL correction:  0.000000
    CORREC:  cpu time    3.3401: real time    3.3422
    CHARGE:  cpu time    1.0856: real time    1.0856
    --------------------------------------------
      LOOP:  cpu time    8.0454: real time    8.0504

 eigenvalue-minimisations  :     0
 total energy-change (2. order) :-0.3947200E-05  (-0.3171002E-06)
 number of electron     171.9999965 magnetization      -0.0000000      0.0000000      0.0000000
 augmentation part       70.5481811 magnetization       0.0000006     -0.0000002     -0.0003563

 Free energy of the ion-electron system (eV)
  ---------------------------------------------------
  alpha Z        PSCENC =       595.31335311
  Ewald energy   TEWEN  =    -15674.24712867
  -Hartree energ DENC   =    -10702.18239980
  -exchange      EXHF   =         0.00000000
  -V(xc)+E(xc)   XCENC  =       821.97688344
  PAW double counting   =     28177.05984932   -29100.99529994
  entropy T*S    EENTRO =         0.00000000
  eigenvalues    EBANDS =     -2703.95189874
  atomic energy  EATOM  =     28505.01627691
  ---------------------------------------------------
  free energy    TOTEN  =       -82.01036436 eV

  energy without entropy =      -82.01036436  energy(sigma->0) =      -82.01036436


--------------------------------------------------------------------------------------------------------




--------------------------------------- Iteration      1(   3)  ---------------------------------------


    POTLOK:  cpu time    0.1124: real time    0.1124
    SETDIJ:  cpu time    0.6373: real time    0.6372
    TRIAL :  cpu time    2.8663: real time    2.8685
 BZINTS: Fermi energy:  4.964004;172.000000 electrons
         Band energy:***********;  BLOECHL correction:  0.000000
 BZINTS: Fermi energy:  4.964005;172.000000 electrons
         Band energy:***********;  BLOECHL correction:  0.000000
    CORREC:  cpu time    3.3522: real time    3.3543
    CHARGE:  cpu time    1.0895: real time    1.0895
    --------------------------------------------
      LOOP:  cpu time    8.0774: real time    8.0850

 eigenvalue-minimisations  :     0
 total energy-change (2. order) :-0.3282394E-05  (-0.4438066E-06)
 number of electron     171.9999965 magnetization       0.0000000      0.0000000      0.0000000
 augmentation part       70.5481811 magnetization       0.0000005     -0.0000002     -0.0003563

 Free energy of the ion-electron system (eV)
  ---------------------------------------------------
  alpha Z        PSCENC =       595.31335311
  Ewald energy   TEWEN  =    -15674.24712867
  -Hartree energ DENC   =    -10702.18237985
  -exchange      EXHF   =         0.00000000
  -V(xc)+E(xc)   XCENC  =       821.97687684
  PAW double counting   =     28177.05979565   -29100.99524383
  entropy T*S    EENTRO =         0.00000000
  eigenvalues    EBANDS =     -2703.95191779
  atomic energy  EATOM  =     28505.01627691
  ---------------------------------------------------
  free energy    TOTEN  =       -82.01036764 eV

  energy without entropy =      -82.01036764  energy(sigma->0) =      -82.01036764


--------------------------------------------------------------------------------------------------------




--------------------------------------- Iteration      1(   4)  ---------------------------------------


    POTLOK:  cpu time    0.1127: real time    0.1127
    SETDIJ:  cpu time    0.6350: real time    0.6350
    TRIAL :  cpu time    2.8612: real time    2.8634
 BZINTS: Fermi energy:  4.964005;172.000000 electrons
         Band energy:***********;  BLOECHL correction:  0.000000
 BZINTS: Fermi energy:  4.964005;172.000000 electrons
         Band energy:***********;  BLOECHL correction:  0.000000
    CORREC:  cpu time    3.3335: real time    3.3356
    CHARGE:  cpu time    1.0915: real time    1.0915
    --------------------------------------------
      LOOP:  cpu time    8.0598: real time    8.0674

 eigenvalue-minimisations  :     0
 total energy-change (2. order) :-0.2217424E-05  (-0.1947266E-06)
 number of electron     171.9999965 magnetization       0.0000000      0.0000000      0.0000000
 augmentation part       70.5481811 magnetization       0.0000005     -0.0000001     -0.0003563

 Free energy of the ion-electron system (eV)
  ---------------------------------------------------
  alpha Z        PSCENC =       595.31335311
  Ewald energy   TEWEN  =    -15674.24712867
  -Hartree energ DENC   =    -10702.18236400
  -exchange      EXHF   =         0.00000000
  -V(xc)+E(xc)   XCENC  =       821.97687331
  PAW double counting   =     28177.05973632   -29100.99518289
  entropy T*S    EENTRO =         0.00000000
  eigenvalues    EBANDS =     -2703.95193396
  atomic energy  EATOM  =     28505.01627691
  ---------------------------------------------------
  free energy    TOTEN  =       -82.01036986 eV

  energy without entropy =      -82.01036986  energy(sigma->0) =      -82.01036986


--------------------------------------------------------------------------------------------------------




--------------------------------------- Iteration      1(   5)  ---------------------------------------


    POTLOK:  cpu time    0.1116: real time    0.1116
    SETDIJ:  cpu time    0.6352: real time    0.6352
    TRIAL :  cpu time    2.8562: real time    2.8584
 BZINTS: Fermi energy:  4.964005;172.000000 electrons
         Band energy:***********;  BLOECHL correction:  0.000000
 BZINTS: Fermi energy:  4.964005;172.000000 electrons
         Band energy:***********;  BLOECHL correction:  0.000000
    CORREC:  cpu time    3.3305: real time    3.3326
    CHARGE:  cpu time    1.0891: real time    1.0890
    --------------------------------------------
      LOOP:  cpu time    8.0429: real time    8.0504

 eigenvalue-minimisations  :     0
 total energy-change (2. order) :-0.7916115E-06  (-0.1731015E-06)
 number of electron     171.9999965 magnetization       0.0000000      0.0000000     -0.0000000
 augmentation part       70.5481811 magnetization       0.0000005     -0.0000001     -0.0003563

 Free energy of the ion-electron system (eV)
  ---------------------------------------------------
  alpha Z        PSCENC =       595.31335311
  Ewald energy   TEWEN  =    -15674.24712867
  -Hartree energ DENC   =    -10702.18236536
  -exchange      EXHF   =         0.00000000
  -V(xc)+E(xc)   XCENC  =       821.97687249
  PAW double counting   =     28177.05972912   -29100.99517612
  entropy T*S    EENTRO =         0.00000000
  eigenvalues    EBANDS =     -2703.95193213
  atomic energy  EATOM  =     28505.01627691
  ---------------------------------------------------
  free energy    TOTEN  =       -82.01037065 eV

  energy without entropy =      -82.01037065  energy(sigma->0) =      -82.01037065


--------------------------------------------------------------------------------------------------------




--------------------------------------- Iteration      1(   6)  ---------------------------------------


    POTLOK:  cpu time    0.1129: real time    0.1129
    SETDIJ:  cpu time    0.6354: real time    0.6354
    TRIAL :  cpu time    2.8699: real time    2.8721
 BZINTS: Fermi energy:  4.964005;172.000000 electrons
         Band energy:***********;  BLOECHL correction:  0.000000
 BZINTS: Fermi energy:  4.964005;172.000000 electrons
         Band energy:***********;  BLOECHL correction:  0.000000
    CORREC:  cpu time    3.3424: real time    3.3445
    CHARGE:  cpu time    1.0842: real time    1.0842
    --------------------------------------------
      LOOP:  cpu time    8.0638: real time    8.0709

 eigenvalue-minimisations  :     0
 total energy-change (2. order) :-0.5729071E-06  (-0.6356188E-07)
 number of electron     171.9999965 magnetization      -0.0000000      0.0000000     -0.0000000
 augmentation part       70.5481811 magnetization       0.0000005     -0.0000001     -0.0003563

 Free energy of the ion-electron system (eV)
  ---------------------------------------------------
  alpha Z        PSCENC =       595.31335311
  Ewald energy   TEWEN  =    -15674.24712867
  -Hartree energ DENC   =    -10702.18236563
  -exchange      EXHF   =         0.00000000
  -V(xc)+E(xc)   XCENC  =       821.97687207
  PAW double counting   =     28177.05972955   -29100.99517678
  entropy T*S    EENTRO =         0.00000000
  eigenvalues    EBANDS =     -2703.95193178
  atomic energy  EATOM  =     28505.01627691
  ---------------------------------------------------
  free energy    TOTEN  =       -82.01037122 eV

  energy without entropy =      -82.01037122  energy(sigma->0) =      -82.01037122


--------------------------------------------------------------------------------------------------------




--------------------------------------- Iteration      1(   7)  ---------------------------------------


    POTLOK:  cpu time    0.1137: real time    0.1137
    SETDIJ:  cpu time    0.6352: real time    0.6352
    TRIAL :  cpu time    2.8668: real time    2.8691
 BZINTS: Fermi energy:  4.964005;172.000000 electrons
         Band energy:***********;  BLOECHL correction:  0.000000
 BZINTS: Fermi energy:  4.964005;172.000000 electrons
         Band energy:***********;  BLOECHL correction:  0.000000
    CORREC:  cpu time    3.3390: real time    3.3411
    CHARGE:  cpu time    1.0882: real time    1.0882
    --------------------------------------------
      LOOP:  cpu time    8.0635: real time    8.0716

 eigenvalue-minimisations  :     0
 total energy-change (2. order) :-0.2757479E-06  (-0.7176175E-07)
 number of electron     171.9999965 magnetization      -0.0000000      0.0000000     -0.0000000
 augmentation part       70.5481811 magnetization       0.0000005     -0.0000001     -0.0003563

 Free energy of the ion-electron system (eV)
  ---------------------------------------------------
  alpha Z        PSCENC =       595.31335311
  Ewald energy   TEWEN  =    -15674.24712867
  -Hartree energ DENC   =    -10702.18236539
  -exchange      EXHF   =         0.00000000
  -V(xc)+E(xc)   XCENC  =       821.97687173
  PAW double counting   =     28177.05973235   -29100.99517962
  entropy T*S    EENTRO =         0.00000000
  eigenvalues    EBANDS =     -2703.95193192
  atomic energy  EATOM  =     28505.01627691
  ---------------------------------------------------
  free energy    TOTEN  =       -82.01037150 eV

  energy without entropy =      -82.01037150  energy(sigma->0) =      -82.01037150


--------------------------------------------------------------------------------------------------------




--------------------------------------- Iteration      1(   8)  ---------------------------------------


    POTLOK:  cpu time    0.1136: real time    0.1136
    SETDIJ:  cpu time    0.6354: real time    0.6354
    TRIAL :  cpu time    2.8582: real time    2.8604
 BZINTS: Fermi energy:  4.964005;172.000000 electrons
         Band energy:***********;  BLOECHL correction:  0.000000
 BZINTS: Fermi energy:  4.964005;172.000000 electrons
         Band energy:***********;  BLOECHL correction:  0.000000
    CORREC:  cpu time    3.3321: real time    3.3342
    CHARGE:  cpu time    1.0871: real time    1.0871
    --------------------------------------------
      LOOP:  cpu time    8.0480: real time    8.0560

 eigenvalue-minimisations  :     0
 total energy-change (2. order) :-0.2307461E-06  (-0.3798726E-07)
 number of electron     171.9999965 magnetization      -0.0000000      0.0000000      0.0000000
 augmentation part       70.5481811 magnetization       0.0000005     -0.0000001     -0.0003563

 Free energy of the ion-electron system (eV)
  ---------------------------------------------------
  alpha Z        PSCENC =       595.31335311
  Ewald energy   TEWEN  =    -15674.24712867
  -Hartree energ DENC   =    -10702.18236512
  -exchange      EXHF   =         0.00000000
  -V(xc)+E(xc)   XCENC  =       821.97687158
  PAW double counting   =     28177.05973916   -29100.99518646
  entropy T*S    EENTRO =         0.00000000
  eigenvalues    EBANDS =     -2703.95193224
  atomic energy  EATOM  =     28505.01627691
  ---------------------------------------------------
  free energy    TOTEN  =       -82.01037173 eV

  energy without entropy =      -82.01037173  energy(sigma->0) =      -82.01037173


--------------------------------------------------------------------------------------------------------




--------------------------------------- Iteration      1(   9)  ---------------------------------------


    POTLOK:  cpu time    0.1130: real time    0.1130
    SETDIJ:  cpu time    0.6353: real time    0.6353
    TRIAL :  cpu time    2.8503: real time    2.8525
 BZINTS: Fermi energy:  4.964006;172.000000 electrons
         Band energy:***********;  BLOECHL correction:  0.000000
 BZINTS: Fermi energy:  4.964005;172.000000 electrons
         Band energy:***********;  BLOECHL correction:  0.000000
    CORREC:  cpu time    3.3526: real time    3.3547
    CHARGE:  cpu time    1.0871: real time    1.0870
    --------------------------------------------
      LOOP:  cpu time    8.0576: real time    8.0652

 eigenvalue-minimisations  :     0
 total energy-change (2. order) :-0.8915595E-07  (-0.4991870E-07)
 number of electron     171.9999965 magnetization       0.0000000      0.0000000     -0.0000000
 augmentation part       70.5481811 magnetization       0.0000005     -0.0000001     -0.0003563

 Free energy of the ion-electron system (eV)
  ---------------------------------------------------
  alpha Z        PSCENC =       595.31335311
  Ewald energy   TEWEN  =    -15674.24712867
  -Hartree energ DENC   =    -10702.18236469
  -exchange      EXHF   =         0.00000000
  -V(xc)+E(xc)   XCENC  =       821.97687152
  PAW double counting   =     28177.05974156   -29100.99518886
  entropy T*S    EENTRO =         0.00000000
  eigenvalues    EBANDS =     -2703.95193270
  atomic energy  EATOM  =     28505.01627691
  ---------------------------------------------------
  free energy    TOTEN  =       -82.01037182 eV

  energy without entropy =      -82.01037182  energy(sigma->0) =      -82.01037182


--------------------------------------------------------------------------------------------------------




--------------------------------------- Iteration      1(  10)  ---------------------------------------


    POTLOK:  cpu time    0.1148: real time    0.1148
    SETDIJ:  cpu time    0.6357: real time    0.6357
    TRIAL :  cpu time    2.8533: real time    2.8555
 BZINTS: Fermi energy:  4.964005;172.000000 electrons
         Band energy:***********;  BLOECHL correction:  0.000000
 BZINTS: Fermi energy:  4.964005;172.000000 electrons
         Band energy:***********;  BLOECHL correction:  0.000000
    CORREC:  cpu time    3.3346: real time    3.3367
    CHARGE:  cpu time    1.0928: real time    1.0928
    --------------------------------------------
      LOOP:  cpu time    8.0482: real time    8.0557

 eigenvalue-minimisations  :     0
 total energy-change (2. order) :-0.1150001E-06  (-0.2825425E-07)
 number of electron     171.9999965 magnetization       0.0000000      0.0000000     -0.0000000
 augmentation part       70.5481811 magnetization       0.0000005     -0.0000001     -0.0003563

 Free energy of the ion-electron system (eV)
  ---------------------------------------------------
  alpha Z        PSCENC =       595.31335311
  Ewald energy   TEWEN  =    -15674.24712867
  -Hartree energ DENC   =    -10702.18236449
  -exchange      EXHF   =         0.00000000
  -V(xc)+E(xc)   XCENC  =       821.97687153
  PAW double counting   =     28177.05974906   -29100.99519638
  entropy T*S    EENTRO =         0.00000000
  eigenvalues    EBANDS =     -2703.95193300
  atomic energy  EATOM  =     28505.01627691
  ---------------------------------------------------
  free energy    TOTEN  =       -82.01037193 eV

  energy without entropy =      -82.01037193  energy(sigma->0) =      -82.01037193


--------------------------------------------------------------------------------------------------------




--------------------------------------- Iteration      1(  11)  ---------------------------------------


    POTLOK:  cpu time    0.1137: real time    0.1137
    SETDIJ:  cpu time    0.6384: real time    0.6384
    TRIAL :  cpu time    2.8525: real time    2.8547
 BZINTS: Fermi energy:  4.964005;172.000000 electrons
         Band energy:***********;  BLOECHL correction:  0.000000
 BZINTS: Fermi energy:  4.964005;172.000000 electrons
         Band energy:***********;  BLOECHL correction:  0.000000
    CORREC:  cpu time    3.3264: real time    3.3284
    CHARGE:  cpu time    1.0880: real time    1.0880
    --------------------------------------------
      LOOP:  cpu time    8.0384: real time    8.0463

 eigenvalue-minimisations  :     0
 total energy-change (2. order) :-0.2418710E-06  (-0.4410106E-07)
 number of electron     171.9999965 magnetization       0.0000000      0.0000000     -0.0000000
 augmentation part       70.5481811 magnetization       0.0000005     -0.0000001     -0.0003563

 Free energy of the ion-electron system (eV)
  ---------------------------------------------------
  alpha Z        PSCENC =       595.31335311
  Ewald energy   TEWEN  =    -15674.24712867
  -Hartree energ DENC   =    -10702.18236440
  -exchange      EXHF   =         0.00000000
  -V(xc)+E(xc)   XCENC  =       821.97687116
  PAW double counting   =     28177.05975358   -29100.99520092
  entropy T*S    EENTRO =         0.00000000
  eigenvalues    EBANDS =     -2703.95193295
  atomic energy  EATOM  =     28505.01627691
  ---------------------------------------------------
  free energy    TOTEN  =       -82.01037218 eV

  energy without entropy =      -82.01037218  energy(sigma->0) =      -82.01037218


--------------------------------------------------------------------------------------------------------




--------------------------------------- Iteration      1(  12)  ---------------------------------------


    POTLOK:  cpu time    0.1113: real time    0.1113
    SETDIJ:  cpu time    0.6373: real time    0.6373
    TRIAL :  cpu time    2.8587: real time    2.8609
 BZINTS: Fermi energy:  4.964006;172.000000 electrons
         Band energy:***********;  BLOECHL correction:  0.000000
 BZINTS: Fermi energy:  4.964005;172.000000 electrons
         Band energy:***********;  BLOECHL correction:  0.000000
    CORREC:  cpu time    3.3352: real time    3.3373
    CHARGE:  cpu time    1.0874: real time    1.0874
    --------------------------------------------
      LOOP:  cpu time    8.0486: real time    8.0560

 eigenvalue-minimisations  :     0
 total energy-change (2. order) :-0.6188202E-07  (-0.3451087E-07)
 number of electron     171.9999965 magnetization       0.0000000      0.0000000      0.0000000
 augmentation part       70.5481811 magnetization       0.0000005     -0.0000001     -0.0003563

 Free energy of the ion-electron system (eV)
  ---------------------------------------------------
  alpha Z        PSCENC =       595.31335311
  Ewald energy   TEWEN  =    -15674.24712867
  -Hartree energ DENC   =    -10702.18236383
  -exchange      EXHF   =         0.00000000
  -V(xc)+E(xc)   XCENC  =       821.97687129
  PAW double counting   =     28177.05976198   -29100.99520931
  entropy T*S    EENTRO =         0.00000000
  eigenvalues    EBANDS =     -2703.95193372
  atomic energy  EATOM  =     28505.01627691
  ---------------------------------------------------
  free energy    TOTEN  =       -82.01037224 eV

  energy without entropy =      -82.01037224  energy(sigma->0) =      -82.01037224


--------------------------------------------------------------------------------------------------------




--------------------------------------- Iteration      1(  13)  ---------------------------------------


    POTLOK:  cpu time    0.1107: real time    0.1107
    SETDIJ:  cpu time    0.6361: real time    0.6361
    TRIAL :  cpu time    2.8582: real time    2.8604
 BZINTS: Fermi energy:  4.964005;172.000000 electrons
         Band energy:***********;  BLOECHL correction:  0.000000
 BZINTS: Fermi energy:  4.964005;172.000000 electrons
         Band energy:***********;  BLOECHL correction:  0.000000
    CORREC:  cpu time    3.3451: real time    3.3472
    CHARGE:  cpu time    1.0894: real time    1.0894
    --------------------------------------------
      LOOP:  cpu time    8.0580: real time    8.0657

 eigenvalue-minimisations  :     0
 total energy-change (2. order) :-0.1714961E-06  (-0.3110955E-07)
 number of electron     171.9999965 magnetization       0.0000000      0.0000000     -0.0000000
 augmentation part       70.5481811 magnetization       0.0000005     -0.0000001     -0.0003563

 Free energy of the ion-electron system (eV)
  ---------------------------------------------------
  alpha Z        PSCENC =       595.31335311
  Ewald energy   TEWEN  =    -15674.24712867
  -Hartree energ DENC   =    -10702.18236374
  -exchange      EXHF   =         0.00000000
  -V(xc)+E(xc)   XCENC  =       821.97687098
  PAW double counting   =     28177.05976927   -29100.99521662
  entropy T*S    EENTRO =         0.00000000
  eigenvalues    EBANDS =     -2703.95193366
  atomic energy  EATOM  =     28505.01627691
  ---------------------------------------------------
  free energy    TOTEN  =       -82.01037241 eV

  energy without entropy =      -82.01037241  energy(sigma->0) =      -82.01037241


--------------------------------------------------------------------------------------------------------




--------------------------------------- Iteration      1(  14)  ---------------------------------------


    POTLOK:  cpu time    0.1114: real time    0.1114
    SETDIJ:  cpu time    0.6361: real time    0.6360
    TRIAL :  cpu time    2.8510: real time    2.8532
 BZINTS: Fermi energy:  4.964005;172.000000 electrons
         Band energy:***********;  BLOECHL correction:  0.000000
 BZINTS: Fermi energy:  4.964005;172.000000 electrons
         Band energy:***********;  BLOECHL correction:  0.000000
    CORREC:  cpu time    3.3439: real time    3.3460
    CHARGE:  cpu time    1.0893: real time    1.0892
    --------------------------------------------
      LOOP:  cpu time    8.0477: real time    8.0554

 eigenvalue-minimisations  :     0
 total energy-change (2. order) : 0.3032255E-07  (-0.1392669E-06)
 number of electron     171.9999965 magnetization      -0.0000000      0.0000000      0.0000000
 augmentation part       70.5481812 magnetization       0.0000004     -0.0000001     -0.0003563

 Free energy of the ion-electron system (eV)
  ---------------------------------------------------
  alpha Z        PSCENC =       595.31335311
  Ewald energy   TEWEN  =    -15674.24712867
  -Hartree energ DENC   =    -10702.18236399
  -exchange      EXHF   =         0.00000000
  -V(xc)+E(xc)   XCENC  =       821.97687114
  PAW double counting   =     28177.05977835   -29100.99522575
  entropy T*S    EENTRO =         0.00000000
  eigenvalues    EBANDS =     -2703.95193348
  atomic energy  EATOM  =     28505.01627691
  ---------------------------------------------------
  free energy    TOTEN  =       -82.01037238 eV

  energy without entropy =      -82.01037238  energy(sigma->0) =      -82.01037238


--------------------------------------------------------------------------------------------------------




--------------------------------------- Iteration      1(  15)  ---------------------------------------


    POTLOK:  cpu time    0.1143: real time    0.1143
    SETDIJ:  cpu time    0.6365: real time    0.6364
    TRIAL :  cpu time    2.8593: real time    2.8615
 BZINTS: Fermi energy:  4.964005;172.000000 electrons
         Band energy:***********;  BLOECHL correction:  0.000000
 BZINTS: Fermi energy:  4.964005;172.000000 electrons
         Band energy:***********;  BLOECHL correction:  0.000000
    CORREC:  cpu time    3.3340: real time    3.3361
    CHARGE:  cpu time    1.0888: real time    1.0888
    --------------------------------------------
      LOOP:  cpu time    8.0485: real time    8.0569

 eigenvalue-minimisations  :     0
 total energy-change (2. order) :-0.1632834E-06  (-0.1277568E-07)
 number of electron     171.9999965 magnetization       0.0000000      0.0000000      0.0000000
 augmentation part       70.5481812 magnetization       0.0000004     -0.0000001     -0.0003563

 Free energy of the ion-electron system (eV)
  ---------------------------------------------------
  alpha Z        PSCENC =       595.31335311
  Ewald energy   TEWEN  =    -15674.24712867
  -Hartree energ DENC   =    -10702.18236382
  -exchange      EXHF   =         0.00000000
  -V(xc)+E(xc)   XCENC  =       821.97687120
  PAW double counting   =     28177.05981829   -29100.99526582
  entropy T*S    EENTRO =         0.00000000
  eigenvalues    EBANDS =     -2703.95193374
  atomic energy  EATOM  =     28505.01627691
  ---------------------------------------------------
  free energy    TOTEN  =       -82.01037254 eV

  energy without entropy =      -82.01037254  energy(sigma->0) =      -82.01037254


--------------------------------------------------------------------------------------------------------




--------------------------------------- Iteration      1(  16)  ---------------------------------------


    POTLOK:  cpu time    0.1133: real time    0.1133
    SETDIJ:  cpu time    0.6347: real time    0.6347
    TRIAL :  cpu time    2.8575: real time    2.8597
 BZINTS: Fermi energy:  4.964004;172.000000 electrons
         Band energy:***********;  BLOECHL correction:  0.000000
 BZINTS: Fermi energy:  4.964005;172.000000 electrons
         Band energy:***********;  BLOECHL correction:  0.000000
    CORREC:  cpu time    3.3376: real time    3.3397
    CHARGE:  cpu time    1.0871: real time    1.0870
    --------------------------------------------
      LOOP:  cpu time    8.0479: real time    8.0555

 eigenvalue-minimisations  :     0
 total energy-change (2. order) :-0.4251524E-07  (-0.5100796E-07)
 number of electron     171.9999965 magnetization      -0.0000000      0.0000000      0.0000000
 augmentation part       70.5481812 magnetization       0.0000004     -0.0000001     -0.0003563

 Free energy of the ion-electron system (eV)
  ---------------------------------------------------
  alpha Z        PSCENC =       595.31335311
  Ewald energy   TEWEN  =    -15674.24712867
  -Hartree energ DENC   =    -10702.18236370
  -exchange      EXHF   =         0.00000000
  -V(xc)+E(xc)   XCENC  =       821.97687117
  PAW double counting   =     28177.05981799   -29100.99526551
  entropy T*S    EENTRO =         0.00000000
  eigenvalues    EBANDS =     -2703.95193388
  atomic energy  EATOM  =     28505.01627691
  ---------------------------------------------------
  free energy    TOTEN  =       -82.01037258 eV

  energy without entropy =      -82.01037258  energy(sigma->0) =      -82.01037258


--------------------------------------------------------------------------------------------------------




--------------------------------------- Iteration      1(  17)  ---------------------------------------


    POTLOK:  cpu time    0.1124: real time    0.1124
    SETDIJ:  cpu time    0.6359: real time    0.6359
    TRIAL :  cpu time    2.8682: real time    2.8704
 BZINTS: Fermi energy:  4.964005;172.000000 electrons
         Band energy:***********;  BLOECHL correction:  0.000000
 BZINTS: Fermi energy:  4.964005;172.000000 electrons
         Band energy:***********;  BLOECHL correction:  0.000000
    CORREC:  cpu time    3.3324: real time    3.3345
    CHARGE:  cpu time    1.0890: real time    1.0890
    --------------------------------------------
      LOOP:  cpu time    8.0547: real time    8.0623

 eigenvalue-minimisations  :     0
 total energy-change (2. order) :-0.8459392E-07  (-0.8412537E-08)
 number of electron     171.9999965 magnetization      -0.0000000      0.0000000      0.0000000
 augmentation part       70.5481812 magnetization       0.0000004     -0.0000001     -0.0003563

 Free energy of the ion-electron system (eV)
  ---------------------------------------------------
  alpha Z        PSCENC =       595.31335311
  Ewald energy   TEWEN  =    -15674.24712867
  -Hartree energ DENC   =    -10702.18236270
  -exchange      EXHF   =         0.00000000
  -V(xc)+E(xc)   XCENC  =       821.97687121
  PAW double counting   =     28177.05981543   -29100.99526291
  entropy T*S    EENTRO =         0.00000000
  eigenvalues    EBANDS =     -2703.95193506
  atomic energy  EATOM  =     28505.01627691
  ---------------------------------------------------
  free energy    TOTEN  =       -82.01037267 eV

  energy without entropy =      -82.01037267  energy(sigma->0) =      -82.01037267


--------------------------------------------------------------------------------------------------------




--------------------------------------- Iteration      1(  18)  ---------------------------------------


    POTLOK:  cpu time    0.1129: real time    0.1129
    SETDIJ:  cpu time    0.6364: real time    0.6363
    TRIAL :  cpu time    2.8606: real time    2.8628
 BZINTS: Fermi energy:  4.964006;172.000000 electrons
         Band energy:***********;  BLOECHL correction:  0.000000
 BZINTS: Fermi energy:  4.964005;172.000000 electrons
         Band energy:***********;  BLOECHL correction:  0.000000
    CORREC:  cpu time    3.3442: real time    3.3463
    CHARGE:  cpu time    1.0855: real time    1.0854
    --------------------------------------------
      LOOP:  cpu time    8.0599: real time    8.0675

 eigenvalue-minimisations  :     0
 total energy-change (2. order) :-0.4116737E-07  (-0.8575426E-08)
 number of electron     171.9999965 magnetization       0.0000000      0.0000000     -0.0000000
 augmentation part       70.5481812 magnetization       0.0000004     -0.0000001     -0.0003563

 Free energy of the ion-electron system (eV)
  ---------------------------------------------------
  alpha Z        PSCENC =       595.31335311
  Ewald energy   TEWEN  =    -15674.24712867
  -Hartree energ DENC   =    -10702.18236267
  -exchange      EXHF   =         0.00000000
  -V(xc)+E(xc)   XCENC  =       821.97687114
  PAW double counting   =     28177.05981669   -29100.99526417
  entropy T*S    EENTRO =         0.00000000
  eigenvalues    EBANDS =     -2703.95193505
  atomic energy  EATOM  =     28505.01627691
  ---------------------------------------------------
  free energy    TOTEN  =       -82.01037271 eV

  energy without entropy =      -82.01037271  energy(sigma->0) =      -82.01037271


--------------------------------------------------------------------------------------------------------




--------------------------------------- Iteration      1(  19)  ---------------------------------------


    POTLOK:  cpu time    0.1117: real time    0.1117
    SETDIJ:  cpu time    0.6356: real time    0.6356
    TRIAL :  cpu time    2.8569: real time    2.8591
 BZINTS: Fermi energy:  4.964005;172.000000 electrons
         Band energy:***********;  BLOECHL correction:  0.000000
 BZINTS: Fermi energy:  4.964005;172.000000 electrons
         Band energy:***********;  BLOECHL correction:  0.000000
    CORREC:  cpu time    3.3370: real time    3.3391
    CHARGE:  cpu time    1.0893: real time    1.0892
    --------------------------------------------
      LOOP:  cpu time    8.0496: real time    8.0569

 eigenvalue-minimisations  :     0
 total energy-change (2. order) :-0.3672176E-07  (-0.1676903E-07)
 number of electron     171.9999965 magnetization      -0.0000000      0.0000000      0.0000000
 augmentation part       70.5481812 magnetization       0.0000004     -0.0000001     -0.0003563

 Free energy of the ion-electron system (eV)
  ---------------------------------------------------
  alpha Z        PSCENC =       595.31335311
  Ewald energy   TEWEN  =    -15674.24712867
  -Hartree energ DENC   =    -10702.18236263
  -exchange      EXHF   =         0.00000000
  -V(xc)+E(xc)   XCENC  =       821.97687107
  PAW double counting   =     28177.05981795   -29100.99526543
  entropy T*S    EENTRO =         0.00000000
  eigenvalues    EBANDS =     -2703.95193505
  atomic energy  EATOM  =     28505.01627691
  ---------------------------------------------------
  free energy    TOTEN  =       -82.01037275 eV

  energy without entropy =      -82.01037275  energy(sigma->0) =      -82.01037275


--------------------------------------------------------------------------------------------------------




--------------------------------------- Iteration      1(  20)  ---------------------------------------


    POTLOK:  cpu time    0.1141: real time    0.1141
    SETDIJ:  cpu time    0.6364: real time    0.6364
    TRIAL :  cpu time    2.8384: real time    2.8406
 BZINTS: Fermi energy:  4.964004;172.000000 electrons
         Band energy:***********;  BLOECHL correction:  0.000000
 BZINTS: Fermi energy:  4.964005;172.000000 electrons
         Band energy:***********;  BLOECHL correction:  0.000000
    CORREC:  cpu time    3.3385: real time    3.3406
    CHARGE:  cpu time    1.0912: real time    1.0912
    --------------------------------------------
      LOOP:  cpu time    8.0378: real time    8.0452

 eigenvalue-minimisations  :     0
 total energy-change (2. order) :-0.2543129E-07  (-0.5224553E-08)
 number of electron     171.9999965 magnetization       0.0000000      0.0000000      0.0000000
 augmentation part       70.5481812 magnetization       0.0000004     -0.0000001     -0.0003563

 Free energy of the ion-electron system (eV)
  ---------------------------------------------------
  alpha Z        PSCENC =       595.31335311
  Ewald energy   TEWEN  =    -15674.24712867
  -Hartree energ DENC   =    -10702.18236245
  -exchange      EXHF   =         0.00000000
  -V(xc)+E(xc)   XCENC  =       821.97687106
  PAW double counting   =     28177.05982174   -29100.99526923
  entropy T*S    EENTRO =         0.00000000
  eigenvalues    EBANDS =     -2703.95193524
  atomic energy  EATOM  =     28505.01627691
  ---------------------------------------------------
  free energy    TOTEN  =       -82.01037277 eV

  energy without entropy =      -82.01037277  energy(sigma->0) =      -82.01037277


--------------------------------------------------------------------------------------------------------




--------------------------------------- Iteration      1(  21)  ---------------------------------------


    POTLOK:  cpu time    0.1173: real time    0.1172
    SETDIJ:  cpu time    0.6364: real time    0.6364
    TRIAL :  cpu time    2.8515: real time    2.8537
 BZINTS: Fermi energy:  4.964005;172.000000 electrons
         Band energy:***********;  BLOECHL correction:  0.000000
 BZINTS: Fermi energy:  4.964005;172.000000 electrons
         Band energy:***********;  BLOECHL correction:  0.000000
    CORREC:  cpu time    3.3378: real time    3.3399
    CHARGE:  cpu time    1.0862: real time    1.0862
    --------------------------------------------
      LOOP:  cpu time    8.0501: real time    8.0575

 eigenvalue-minimisations  :     0
 total energy-change (2. order) :-0.3520290E-07  (-0.4493900E-08)
 number of electron     171.9999965 magnetization      -0.0000000      0.0000000      0.0000000
 augmentation part       70.5481812 magnetization       0.0000004     -0.0000001     -0.0003563

 Free energy of the ion-electron system (eV)
  ---------------------------------------------------
  alpha Z        PSCENC =       595.31335311
  Ewald energy   TEWEN  =    -15674.24712867
  -Hartree energ DENC   =    -10702.18236238
  -exchange      EXHF   =         0.00000000
  -V(xc)+E(xc)   XCENC  =       821.97687100
  PAW double counting   =     28177.05982237   -29100.99526986
  entropy T*S    EENTRO =         0.00000000
  eigenvalues    EBANDS =     -2703.95193529
  atomic energy  EATOM  =     28505.01627691
  ---------------------------------------------------
  free energy    TOTEN  =       -82.01037281 eV

  energy without entropy =      -82.01037281  energy(sigma->0) =      -82.01037281


--------------------------------------------------------------------------------------------------------




--------------------------------------- Iteration      1(  22)  ---------------------------------------


    POTLOK:  cpu time    0.1141: real time    0.1141
    SETDIJ:  cpu time    0.6358: real time    0.6358
    TRIAL :  cpu time    2.8498: real time    2.8520
 BZINTS: Fermi energy:  4.964005;172.000000 electrons
         Band energy:***********;  BLOECHL correction:  0.000000
[...]
 -0.000   0.000  -0.000   0.000   0.000   0.000   0.000   0.000  -0.000  -0.000   0.000   0.000   0.000   0.000  -0.000  -0.000
 pseudopotential strength for first ion, spin component:           3
 -0.000   0.000  -0.000   0.000  -0.000   0.000   0.000  -0.000  -0.000  -0.000  -0.000   0.000   0.000  -0.000  -0.000  -0.000
 -0.000   0.000  -0.000   0.000  -0.000   0.000   0.000  -0.000  -0.000  -0.000  -0.000   0.000   0.000  -0.000  -0.000  -0.000
 -0.000   0.000  -0.000   0.000  -0.000  -0.000   0.000  -0.000   0.000  -0.000  -0.000  -0.000   0.000  -0.000   0.000  -0.000
  0.000  -0.000   0.000  -0.000   0.000  -0.000  -0.000  -0.000   0.000  -0.000   0.000  -0.000  -0.000  -0.000   0.000  -0.000
 -0.000  -0.000  -0.000  -0.000   0.000  -0.000   0.000  -0.000  -0.000   0.000   0.000  -0.000   0.000  -0.000  -0.000   0.000
 -0.000   0.000  -0.000   0.000  -0.000  -0.000   0.000  -0.000   0.000  -0.000  -0.000  -0.000   0.000  -0.000   0.000  -0.000
  0.000  -0.000   0.000  -0.000   0.000  -0.000  -0.000  -0.000   0.000  -0.000   0.000  -0.000  -0.000  -0.000   0.000  -0.000
 -0.000  -0.000  -0.000  -0.000   0.000  -0.000   0.000  -0.000  -0.000   0.000   0.000  -0.000   0.000  -0.000  -0.000   0.000
 pseudopotential strength for first ion, spin component:           4
 39.485   0.000  45.347   0.000  -0.001   0.000  -0.001   0.000  -0.003   0.000  -0.001   0.000  -0.002   0.000  -0.004   0.000
 45.347   0.000  52.081   0.000  -0.001   0.000  -0.001   0.000  -0.003   0.000  -0.001   0.000  -0.002   0.000  -0.004   0.000
 -0.001   0.000  -0.001   0.000   8.200   0.000   0.002   0.000  -0.001   0.000  11.115   0.000   0.002   0.000  -0.001   0.000
 -0.001   0.000  -0.001   0.000   0.002   0.000   8.201   0.000  -0.000   0.000   0.002   0.000  11.116   0.000  -0.001   0.000
 -0.003   0.000  -0.003   0.000  -0.001   0.000  -0.000   0.000   8.200   0.000  -0.001   0.000  -0.001   0.000  11.115   0.000
 -0.001   0.000  -0.001   0.000  11.115   0.000   0.002   0.000  -0.001   0.000  15.085   0.000   0.003   0.000  -0.001   0.000
 -0.002   0.000  -0.002   0.000   0.002   0.000  11.116   0.000  -0.001   0.000   0.003   0.000  15.087   0.000  -0.001   0.000
 -0.004   0.000  -0.004   0.000  -0.001   0.000  -0.001   0.000  11.115   0.000  -0.001   0.000  -0.001   0.000  15.086   0.000
 total augmentation occupancy for first ion, spin component:           1
 11.034  -6.859   0.000   0.000  -0.532   0.000   0.000   0.140
 -6.859   4.963   0.000   0.000   0.436   0.000   0.000  -0.085
  0.000   0.000   3.631   0.080   0.000  -1.024  -0.041   0.000
  0.000   0.000   0.080   3.715   0.000  -0.041  -1.071   0.000
 -0.532   0.436   0.000   0.000   3.630   0.000   0.000  -1.026
  0.000   0.000  -1.024  -0.041   0.000   0.345   0.015   0.000
  0.000   0.000  -0.041  -1.071   0.000   0.015   0.362   0.000
  0.140  -0.085   0.000   0.000  -1.026   0.000   0.000   0.346
 total augmentation occupancy for first ion, spin component:           2
 -0.000   0.000   0.000   0.000  -0.000  -0.000   0.000  -0.000
  0.000  -0.000  -0.000   0.000   0.000   0.000   0.000   0.000
  0.000  -0.000  -0.000   0.000   0.000   0.000  -0.000  -0.000
  0.000   0.000   0.000  -0.000  -0.000  -0.000   0.000   0.000
 -0.000   0.000   0.000  -0.000   0.000   0.000   0.000  -0.000
  0.000   0.000   0.000  -0.000  -0.000  -0.000   0.000   0.000
  0.000   0.000  -0.000   0.000  -0.000   0.000  -0.000  -0.000
 -0.000   0.000   0.000   0.000  -0.000   0.000  -0.000   0.000
 total augmentation occupancy for first ion, spin component:           3
 -0.000  -0.000   0.000   0.000   0.000  -0.000  -0.000   0.000
 -0.000   0.000  -0.000  -0.000   0.000   0.000   0.000   0.000
  0.000  -0.000  -0.000   0.000   0.000   0.000   0.000  -0.000
  0.000  -0.000   0.000   0.000   0.000   0.000   0.000  -0.000
 -0.000   0.000   0.000   0.000   0.000  -0.000  -0.000  -0.000
 -0.000   0.000   0.000   0.000  -0.000  -0.000   0.000   0.000
 -0.000   0.000   0.000   0.000  -0.000   0.000   0.000   0.000
  0.000   0.000  -0.000  -0.000   0.000   0.000   0.000   0.000
 total augmentation occupancy for first ion, spin component:           4
  0.000  -0.000   0.107   0.094   0.000   0.081   0.083  -0.000
 -0.000   0.000  -0.085  -0.073   0.000  -0.089  -0.090   0.000
  0.107  -0.085  -0.000   0.000   0.006   0.000   0.000  -0.003
  0.094  -0.073   0.000  -0.000   0.008   0.000   0.000  -0.006
 -0.000   0.000   0.006   0.008   0.000  -0.003  -0.006   0.000
  0.081  -0.089   0.000  -0.000  -0.003  -0.000   0.000   0.015
  0.083  -0.090   0.000   0.000  -0.006   0.000   0.000   0.015
 -0.000   0.000  -0.003  -0.006   0.000   0.015   0.015   0.000


------------------------ aborting loop because EDIFF is reached ----------------------------------------


 


 total charge     
 
# of ion       s       p       d       tot
------------------------------------------
    1        1.313   2.416   0.000   3.729
    2        1.313   2.416   0.000   3.729
    3        1.313   2.415   0.000   3.728
    4        1.313   2.414   0.000   3.728
    5        1.313   2.416   0.000   3.729
    6        1.313   2.416   0.000   3.729
    7        1.313   2.415   0.000   3.728
    8        1.313   2.414   0.000   3.728
    9        0.263   6.208   8.914  15.385
   10        0.263   6.208   8.914  15.385
   11        0.263   6.208   8.914  15.385
   12        0.263   6.208   8.914  15.385
   13        0.352   6.355   5.827  12.534
   14        0.352   6.355   5.826  12.533
   15        0.352   6.355   5.827  12.534
   16        0.352   6.355   5.826  12.533
--------------------------------------------------
tot         12.967  69.574  58.963 141.504
 


 magnetization (x)
 
# of ion       s       p       d       tot
------------------------------------------
    1        0.000   0.000   0.000   0.000
    2       -0.000  -0.000   0.000  -0.000
    3       -0.000   0.000   0.000   0.000
    4       -0.000   0.000   0.000   0.000
    5       -0.000  -0.000   0.000  -0.000
    6        0.000   0.000   0.000   0.000
    7       -0.000   0.000   0.000   0.000
    8       -0.000   0.000   0.000   0.000
    9       -0.000   0.000  -0.000  -0.000
   10       -0.000   0.000  -0.000  -0.000
   11       -0.000   0.000  -0.000  -0.000
   12       -0.000   0.000  -0.000  -0.000
   13       -0.000  -0.000   0.000   0.000
   14        0.000  -0.000   0.000   0.000
   15       -0.000  -0.000   0.000   0.000
   16        0.000  -0.000   0.000   0.000
--------------------------------------------------
tot         -0.000  -0.000  -0.000  -0.000
 


 magnetization (y)
 
# of ion       s       p       d       tot
------------------------------------------
    1       -0.000  -0.000   0.000  -0.000
    2       -0.000  -0.000   0.000  -0.000
    3        0.000   0.000   0.000   0.000
    4       -0.000  -0.000   0.000  -0.000
    5       -0.000  -0.000   0.000  -0.000
    6       -0.000  -0.000   0.000  -0.000
    7        0.000   0.000   0.000   0.000
    8       -0.000  -0.000   0.000  -0.000
    9        0.000  -0.000  -0.000  -0.000
   10        0.000  -0.000   0.000   0.000
   11        0.000  -0.000  -0.000  -0.000
   12        0.000  -0.000   0.000   0.000
   13        0.000   0.000  -0.000  -0.000
   14       -0.000  -0.000  -0.000  -0.000
   15        0.000   0.000  -0.000  -0.000
   16       -0.000  -0.000  -0.000  -0.000
--------------------------------------------------
tot          0.000   0.000  -0.000   0.000
 


 magnetization (z)
 
# of ion       s       p       d       tot
------------------------------------------
    1        0.000  -0.003   0.000  -0.002
    2        0.000  -0.004   0.000  -0.003
    3       -0.000   0.003   0.000   0.003
    4       -0.000   0.003   0.000   0.003
    5        0.000  -0.004   0.000  -0.003
    6        0.000  -0.003   0.000  -0.002
    7       -0.000   0.003   0.000   0.003
    8       -0.000   0.003   0.000   0.003
    9        0.001  -0.001   0.006   0.006
   10       -0.001   0.001  -0.006  -0.006
   11        0.001  -0.001   0.006   0.006
   12       -0.001   0.001  -0.006  -0.006
   13        0.020   0.054   3.662   3.736
   14       -0.020  -0.054  -3.662  -3.736
   15        0.020   0.054   3.662   3.736
   16       -0.020  -0.054  -3.662  -3.736
--------------------------------------------------
tot         -0.000   0.000  -0.001  -0.000
 
    FORLOC:  cpu time    0.0036: real time    0.0036
    FORNL :  cpu time    0.7448: real time    0.7448
    STRESS:  cpu time    0.6572: real time    0.6572
    FORCOR:  cpu time    0.0989: real time    0.0989
    OFIELD:  cpu time    0.0008: real time    0.0008

  FORCE on cell =-STRESS in cart. coord.  units (eV):
  Direction    XX          YY          ZZ          XY          YZ          ZX
  --------------------------------------------------------------------------------------
  Alpha Z   595.31335   595.31335   595.31335
  Ewald   -5296.44463 -5296.44463 -5081.39638     0.00000    -0.00000     0.00000
  Hartree  3527.14567  3527.14567  3647.89103    -0.00000    -0.00000    -0.00000
  E(xc)   -1051.04543 -1051.04543 -1050.91584    -0.00000     0.00000    -0.00000
  Local   -1120.69333 -1120.69333 -1453.32398    -0.00000    -0.00000    -0.00000
  n-local   121.37281   123.04591   125.14971    -0.27404     0.00221    -0.01905
  augment  1180.91967  1180.91967  1180.87996    -0.00000     0.00000     0.00000
  Kinetic  2038.63622  2051.74439  2036.40217    -0.89475     0.11428    -0.01183
  Fock        0.00000     0.00000     0.00000     0.00000     0.00000     0.00000
  -------------------------------------------------------------------------------------
  Total       2.59497     2.59497     0.00002     0.00000     0.00000     0.00000
  in kB      14.60681    14.60681     0.00012     0.00000     0.00000     0.00000
  external pressure =        9.74 kB  Pullay stress =        0.00 kB


 VOLUME and BASIS-vectors are now :
 -----------------------------------------------------------------------------
  energy-cutoff  :      700.00
  volume of cell :      284.63
      direct lattice vectors                 reciprocal lattice vectors
     5.153609942  0.000000000  0.000000000     0.194038744  0.000000000  0.000000000
     0.000000000  5.153609942  0.000000000     0.000000000  0.194038744  0.000000000
     0.000000000  0.000000000 10.716795325     0.000000000  0.000000000  0.093311477

  length of vectors
     5.153609942  5.153609942 10.716795325     0.194038744  0.194038744  0.093311477


 FORCES acting on ions:
    Electron-Ion                     Ewald-Force                    Non-Local-Force
 -----------------------------------------------------------------------------------------------
   0.421E+02 -.410E-12 -.225E-12   -.430E+02 -.142E-13 -.853E-13   0.845E+00 -.369E-18 -.769E-21
   -.421E+02 -.120E-11 -.405E-13   0.430E+02 0.000E+00 -.284E-13   -.845E+00 0.361E-18 0.343E-18
   0.618E-12 -.421E+02 0.231E-12   -.888E-15 0.430E+02 -.426E-13   0.199E-18 -.845E+00 -.298E-18
   0.706E-12 0.421E+02 -.318E-12   -.444E-13 -.430E+02 -.568E-13   -.230E-18 0.845E+00 -.108E-17
   -.421E+02 -.489E-12 -.121E-12   0.430E+02 -.382E-13 0.568E-13   -.845E+00 0.309E-18 0.784E-18
   0.421E+02 -.162E-12 0.242E-12   -.430E+02 0.133E-13 0.142E-12   0.845E+00 -.364E-18 0.407E-19
   0.265E-12 -.421E+02 0.952E-12   0.284E-13 0.430E+02 -.284E-13   0.208E-18 -.845E+00 0.129E-18
   0.397E-12 0.421E+02 0.434E-12   0.568E-13 -.430E+02 0.284E-13   -.174E-18 0.845E+00 -.653E-19
   -.221E-12 0.662E-13 0.362E-11   0.102E-04 -.220E-04 0.000E+00   0.574E-19 -.197E-18 0.785E-18
   0.132E-11 -.110E-12 -.708E-11   -.102E-04 -.220E-04 0.114E-12   -.773E-19 -.200E-18 -.308E-17
   0.132E-11 -.534E-11 0.361E-12   -.102E-04 0.220E-04 0.000E+00   0.963E-19 0.220E-18 0.595E-18
   -.221E-12 0.147E-11 0.440E-11   0.102E-04 0.220E-04 0.198E-13   -.859E-19 -.409E-18 -.300E-17
   0.265E-12 -.772E-13 0.408E-12   -.753E-05 0.185E-04 -.568E-13   -.385E-19 -.661E-19 -.163E-17
   0.904E-12 0.938E-13 -.311E-10   0.753E-05 0.185E-04 0.186E-12   0.199E-19 0.479E-19 -.143E-17
   0.927E-12 -.451E-11 -.941E-11   0.753E-05 -.185E-04 -.171E-12   -.210E-18 -.751E-19 0.126E-17
   0.265E-12 0.717E-12 0.212E-12   -.753E-05 -.185E-04 0.114E-12   0.183E-19 -.218E-19 0.202E-17
 -----------------------------------------------------------------------------------------------
   0.718E-11 -.905E-11 -.376E-10   -.443E-13 0.168E-13 0.192E-12   -.111E-15 -.223E-15 -.462E-17
 
 
 POSITION                                       TOTAL-FORCE (eV/Angst)
 -----------------------------------------------------------------------------------
      1.30311      1.28840      1.33960         0.000008     -0.000000      0.000000
      3.85050      3.86521      1.33960        -0.000008     -0.000000     -0.000000
      1.28840      3.85050      9.37720        -0.000000     -0.000008      0.000000
      3.86521      1.30311      9.37720        -0.000000      0.000008      0.000000
      1.27370      1.28840      6.69800        -0.000008      0.000000      0.000000
      3.87991      3.86521      6.69800         0.000008     -0.000000      0.000000
      3.86521      1.27370      4.01880        -0.000000     -0.000008      0.000000
      1.28840      3.87991      4.01880        -0.000000      0.000008      0.000000
      0.00000      0.00000      5.35840        -0.000000     -0.000000      0.000000
      2.57680      0.00000      2.67920         0.000000     -0.000000     -0.000000
      2.57680      2.57680      0.00000         0.000000     -0.000000     -0.000000
      0.00000      2.57680      8.03760         0.000000     -0.000000     -0.000000
      0.00000      0.00000      0.00000        -0.000000      0.000000      0.000000
      2.57680      0.00000      8.03760        -0.000000      0.000000     -0.000000
      2.57680      2.57680      5.35840        -0.000000      0.000000     -0.000000
      0.00000      2.57680      2.67920        -0.000000      0.000000     -0.000000
 -----------------------------------------------------------------------------------
    total drift:                                0.000000     -0.000000     -0.000000


--------------------------------------------------------------------------------------------------------



  FREE ENERGIE OF THE ION-ELECTRON SYSTEM (eV)
  ---------------------------------------------------
  free  energy   TOTEN  =       -82.01037288 eV

  energy  without entropy=      -82.01037288  energy(sigma->0) =      -82.01037288
 


--------------------------------------------------------------------------------------------------------


    POTLOK:  cpu time    0.7565: real time    0.7565


--------------------------------------------------------------------------------------------------------


 writing wavefunctions
     LOOP+:  cpu time  258.6192: real time  264.3691
    4ORBIT:  cpu time    0.0000: real time    0.0000
 


 total charge     
 
# of ion       s       p       d       tot
------------------------------------------
    1        1.313   2.416   0.000   3.729
    2        1.313   2.416   0.000   3.729
    3        1.313   2.415   0.000   3.728
    4        1.313   2.414   0.000   3.728
    5        1.313   2.416   0.000   3.729
    6        1.313   2.416   0.000   3.729
    7        1.313   2.415   0.000   3.728
    8        1.313   2.414   0.000   3.728
    9        0.263   6.208   8.914  15.385
   10        0.263   6.208   8.914  15.385
   11        0.263   6.208   8.914  15.385
   12        0.263   6.208   8.914  15.385
   13        0.352   6.355   5.827  12.534
   14        0.352   6.355   5.826  12.533
   15        0.352   6.355   5.827  12.534
   16        0.352   6.355   5.826  12.533
--------------------------------------------------
tot         12.967  69.574  58.963 141.504
 


 magnetization (x)
 
# of ion       s       p       d       tot
------------------------------------------
    1        0.000   0.000   0.000   0.000
    2       -0.000  -0.000   0.000  -0.000
    3       -0.000   0.000   0.000   0.000
    4       -0.000   0.000   0.000   0.000
    5       -0.000  -0.000   0.000  -0.000
    6        0.000   0.000   0.000   0.000
    7       -0.000   0.000   0.000   0.000
    8       -0.000   0.000   0.000   0.000
    9       -0.000   0.000  -0.000  -0.000
   10       -0.000   0.000  -0.000  -0.000
   11       -0.000   0.000  -0.000  -0.000
   12       -0.000   0.000  -0.000  -0.000
   13       -0.000  -0.000   0.000   0.000
   14        0.000  -0.000   0.000   0.000
   15       -0.000  -0.000   0.000   0.000
   16        0.000  -0.000   0.000   0.000
--------------------------------------------------
tot         -0.000  -0.000  -0.000  -0.000
 


 magnetization (y)
 
# of ion       s       p       d       tot
------------------------------------------
    1       -0.000  -0.000   0.000  -0.000
    2       -0.000  -0.000   0.000  -0.000
    3        0.000   0.000   0.000   0.000
    4       -0.000  -0.000   0.000  -0.000
    5       -0.000  -0.000   0.000  -0.000
    6       -0.000  -0.000   0.000  -0.000
    7        0.000   0.000   0.000   0.000
    8       -0.000  -0.000   0.000  -0.000
    9        0.000  -0.000  -0.000  -0.000
   10        0.000  -0.000   0.000   0.000
   11        0.000  -0.000  -0.000  -0.000
   12        0.000  -0.000   0.000   0.000
   13        0.000   0.000  -0.000  -0.000
   14       -0.000  -0.000  -0.000  -0.000
   15        0.000   0.000  -0.000  -0.000
   16       -0.000  -0.000  -0.000  -0.000
--------------------------------------------------
tot          0.000   0.000  -0.000   0.000
 


 magnetization (z)
 
# of ion       s       p       d       tot
------------------------------------------
    1        0.000  -0.003   0.000  -0.002
    2        0.000  -0.004   0.000  -0.003
    3       -0.000   0.003   0.000   0.003
    4       -0.000   0.003   0.000   0.003
    5        0.000  -0.004   0.000  -0.003
    6        0.000  -0.003   0.000  -0.002
    7       -0.000   0.003   0.000   0.003
    8       -0.000   0.003   0.000   0.003
    9        0.001  -0.001   0.006   0.006
   10       -0.001   0.001  -0.006  -0.006
   11        0.001  -0.001   0.006   0.006
   12       -0.001   0.001  -0.006  -0.006
   13        0.020   0.054   3.662   3.736
   14       -0.020  -0.054  -3.662  -3.736
   15        0.020   0.054   3.662   3.736
   16       -0.020  -0.054  -3.662  -3.736
--------------------------------------------------
tot         -0.000   0.000  -0.001  -0.000
 
 BZINTS: Fermi energy:  4.964012;172.000000 electrons
         Band energy:***********;  BLOECHL correction:  0.000000
 BZINTS: Fermi energy:  4.964012;172.000000 electrons
         Band energy:***********;  BLOECHL correction:  0.000000
 BZINTS: Fermi energy:  4.964012;172.000000 electrons
         Band energy:***********;  BLOECHL correction:  0.000000
 BZINTS: Fermi energy:  4.964012;172.000000 electrons
         Band energy:***********;  BLOECHL correction:  0.000000

 total amount of memory used by VASP MPI-rank0    64742. kBytes
=======================================================================

   base      :      30000. kBytes
   nonl-proj :       3913. kBytes
   fftplans  :       1448. kBytes
   grid      :       5898. kBytes
   one-center:         62. kBytes
   wavefun   :      23421. kBytes
 
  
  
 General timing and accounting informations for this job:
 ========================================================
  
                  Total CPU time used (sec):      285.905
                            User time (sec):      268.905
                          System time (sec):       17.000
                         Elapsed time (sec):      294.062
  
                   Maximum memory used (kb):      354440.
                   Average memory used (kb):           0.
  
                          Minor page faults:       191470
                          Major page faults:           93
                 Voluntary context switches:        51932
