 vasp.5.4.4.18Apr17-6-g9f103f2a35 (build Oct 30 2023 17:49:44) complex          
  
 executed on             LinuxIFC date 2024.12.05  21:02:20
 running on  256 total cores
 distrk:  each k-point on  256 cores,    1 groups
 distr:  one band on NCORES_PER_BAND=   1 cores,  256 groups


--------------------------------------------------------------------------------------------------------


 INCAR:
 POTCAR:    PAW_PBE S 06Sep2000                   
 POTCAR:     PAW_PBE Cu_pv 06Sep2000              
 POTCAR:     PAW_PBE Fe_pv 02Aug2007              

 ----------------------------------------------------------------------------- 
|                                                                             |
|           W    W    AA    RRRRR   N    N  II  N    N   GGGG   !!!           |
|           W    W   A  A   R    R  NN   N  II  NN   N  G    G  !!!           |
|           W    W  A    A  R    R  N N  N  II  N N  N  G       !!!           |
|           W WW W  AAAAAA  RRRRR   N  N N  II  N  N N  G  GGG   !            |
|           WW  WW  A    A  R   R   N   NN  II  N   NN  G    G                |
|           W    W  A    A  R    R  N    N  II  N    N   GGGG   !!!           |
|                                                                             |
|      For optimal performance we recommend to set                            |
|        NCORE= 4 - approx SQRT( number of cores)                             |
|      NCORE specifies how many cores store one orbital (NPAR=cpu/NCORE).     |
|      This setting can  greatly improve the performance of VASP for DFT.     |
|      The default,   NCORE=1            might be grossly inefficient         |
|      on modern multi-core architectures or massively parallel machines.     |
|      Do your own testing !!!!                                               |
|      Unfortunately you need to use the default for GW and RPA calculations. |
|      (for HF NCORE is supported but not extensively tested yet)             |
|                                                                             |
 ----------------------------------------------------------------------------- 

 POTCAR:    PAW_PBE S 06Sep2000                   
   SHA256 =  0fc7481fb0695f01bdc6462160264c5c84044ae9ec85a907d398b887a2bc3132 S/
   COPYR  = (c) Copyright 06Sep2000 Georg Kresse                                
   COPYR  = This file is part of the software VASP. Any use, copying, and all ot
   COPYR  = If you do not have a valid VASP license, you may not use, copy or di
   VRHFIN =S : s2p4                                                             
   LEXCH  = PE                                                                  
   EATOM  =   276.8230 eV,   20.3459 Ry                                         
                                                                                
   TITEL  = PAW_PBE S 06Sep2000                                                 
   LULTRA =        F    use ultrasoft PP ?                                      
   IUNSCR =        1    unscreen: 0-lin 1-nonlin 2-no                           
   RPACOR =    1.500    partial core radius                                     
   POMASS =   32.066; ZVAL   =    6.000    mass and valenz                      
   RCORE  =    1.900    outmost cutoff radius                                   
   RWIGS  =    2.200; RWIGS  =    1.164    wigner-seitz radius (au A)           
   ENMAX  =  258.689; ENMIN  =  194.016 eV                                      
   ICORE  =        2    local potential                                         
   LCOR   =        T    correct aug charges                                     
   LPAW   =        T    paw PP                                                  
   EAUG   =  335.092                                                            
   DEXC   =    0.000                                                            
   RMAX   =    1.942    core radius for proj-oper                               
   RAUG   =    1.300    factor for augmentation sphere                          
   RDEP   =    1.954    radius for radial grids                                 
   RDEPT  =    1.744    core radius for aug-charge                              
                                                                                
   Atomic configuration                                                         
    6 entries                                                                   
     n  l   j            E        occ.                                          
     1  0  0.50     -2405.8406   2.0000                                         
     2  0  0.50      -211.7007   2.0000                                         
     2  1  1.50      -156.4958   6.0000                                         
     3  0  0.50       -17.2562   2.0000                                         
     3  1  0.50        -7.0085   4.0000                                         
     3  2  1.50        -6.8029   0.0000                                         
   Description                                                                  
     l       E           TYP  RCUT    TYP  RCUT                                 
     0    -17.2561641     23  1.900                                             
     0    -15.8743224     23  1.900                                             
     1     -7.0085400     23  1.900                                             
     1     -2.7779785     23  1.900                                             
     2     -6.8029130     23  1.900                                             
  local pseudopotential read in
  partial core-charges read in
  partial kinetic energy density read in
  atomic valenz-charges read in
  non local Contribution for L=           0  read in
    real space projection operators read in
  non local Contribution for L=           0  read in
    real space projection operators read in
  non local Contribution for L=           1  read in
    real space projection operators read in
  non local Contribution for L=           1  read in
    real space projection operators read in
    PAW grid and wavefunctions read in
 
   number of l-projection  operators is LMAX  =           4
   number of lm-projection operators is LMMAX =           8
 
 POTCAR:     PAW_PBE Cu_pv 06Sep2000              
   SHA256 =  cb7b504e2ea725fe1f25c85a9ac77d4012ce94cd394135b722c4e25ec297f1cb Cu
   COPYR  = (c) Copyright 06Sep2000 Georg Kresse                                
   COPYR  = This file is part of the software VASP. Any use, copying, and all ot
   COPYR  = If you do not have a valid VASP license, you may not use, copy or di
   VRHFIN =Cu: d10 p1                                                           
   LEXCH  = PE                                                                  
   EATOM  =  4120.1201 eV,  302.8203 Ry                                         
                                                                                
   TITEL  = PAW_PBE Cu_pv 06Sep2000                                             
   LULTRA =        F    use ultrasoft PP ?                                      
   IUNSCR =        1    unscreen: 0-lin 1-nonlin 2-no                           
   RPACOR =    1.500    partial core radius                                     
   POMASS =   63.546; ZVAL   =   17.000    mass and valenz                      
   RCORE  =    2.000    outmost cutoff radius                                   
   RWIGS  =    2.000; RWIGS  =    1.058    wigner-seitz radius (au A)           
   ENMAX  =  368.648; ENMIN  =  276.486 eV                                      
   RCLOC  =    1.304    cutoff for local pot                                    
   LCOR   =        T    correct aug charges                                     
   LPAW   =        T    paw PP                                                  
   EAUG   =  758.233                                                            
   DEXC   =    0.000                                                            
   RMAX   =    2.046    core radius for proj-oper                               
   RAUG   =    1.300    factor for augmentation sphere                          
   RDEP   =    2.025    radius for radial grids                                 
   RDEPT  =    1.558    core radius for aug-charge                              
                                                                                
   Atomic configuration                                                         
    8 entries                                                                   
     n  l   j            E        occ.                                          
     1  0  0.50     -8850.2467   2.0000                                         
     2  0  0.50     -1062.3498   2.0000                                         
     2  1  1.50      -916.8226   6.0000                                         
     3  0  0.50      -114.6929   2.0000                                         
     3  1  1.50       -72.1325   6.0000                                         
     3  2  2.50        -5.0394  10.0000                                         
     4  0  0.50        -4.6097   1.0000                                         
     4  3  2.50        -1.3606   0.0000                                         
   Description                                                                  
     l       E           TYP  RCUT    TYP  RCUT                                 
     1    -72.1324777     23  1.700                                             
     1     -1.3605826     23  1.700                                             
     2     -5.0393776     23  2.000                                             
     2     -6.3999602     23  2.000                                             
     0     -4.6097062     23  1.800                                             
     0     14.1620818     23  1.800                                             
  local pseudopotential read in
  partial core-charges read in
  partial kinetic energy density read in
  atomic valenz-charges read in
  non local Contribution for L=           1  read in
    real space projection operators read in
  non local Contribution for L=           1  read in
    real space projection operators read in
  non local Contribution for L=           2  read in
    real space projection operators read in
  non local Contribution for L=           2  read in
    real space projection operators read in
  non local Contribution for L=           0  read in
    real space projection operators read in
  non local Contribution for L=           0  read in
    real space projection operators read in
    PAW grid and wavefunctions read in
 
   number of l-projection  operators is LMAX  =           6
   number of lm-projection operators is LMMAX =          18
 
 POTCAR:     PAW_PBE Fe_pv 02Aug2007              
   SHA256 =  5d22e414b1f82158bf2c7ecb8b97b28fd0923e48cadc1c3bf74d524558f5dd32 Fe
   COPYR  = (c) Copyright 02Aug2007 Georg Kresse                                
   COPYR  = This file is part of the software VASP. Any use, copying, and all ot
   COPYR  = If you do not have a valid VASP license, you may not use, copy or di
   VRHFIN =Fe:  3pd7s1                                                          
   LEXCH  = PE                                                                  
   EATOM  =  2457.4239 eV,  180.6156 Ry                                         
                                                                                
   TITEL  = PAW_PBE Fe_pv 02Aug2007                                             
   LULTRA =        F    use ultrasoft PP ?                                      
   IUNSCR =        1    unscreen: 0-lin 1-nonlin 2-no                           
   RPACOR =    1.750    partial core radius                                     
   POMASS =   55.847; ZVAL   =   14.000    mass and valenz                      
   RCORE  =    2.200    outmost cutoff radius                                   
   RWIGS  =    2.200; RWIGS  =    1.164    wigner-seitz radius (au A)           
   ENMAX  =  293.238; ENMIN  =  219.928 eV                                      
   ICORE  =        3    local potential                                         
   LCOR   =        T    correct aug charges                                     
   LPAW   =        T    paw PP                                                  
   EAUG   =  578.342                                                            
   DEXC   =    0.000                                                            
   RMAX   =    2.249    core radius for proj-oper                               
   RAUG   =    1.300    factor for augmentation sphere                          
   RDEP   =    2.296    radius for radial grids                                 
   RDEPT  =    1.766    core radius for aug-charge                              
                                                                                
   Atomic configuration                                                         
    8 entries                                                                   
     n  l   j            E        occ.                                          
     1  0  0.50     -6993.8440   2.0000                                         
     2  0  0.50      -814.6047   2.0000                                         
     2  1  1.50      -693.3689   6.0000                                         
     3  0  0.50       -89.4732   2.0000                                         
     3  1  1.50       -55.6373   6.0000                                         
     3  2  2.50        -3.8151   7.0000                                         
     4  0  0.50        -4.2551   1.0000                                         
     4  3  2.50        -1.3606   0.0000                                         
   Description                                                                  
     l       E           TYP  RCUT    TYP  RCUT                                 
     1    -55.6372668     23  2.000                                             
     1     -5.4423304     23  2.000                                             
     2     -3.8151096     23  2.200                                             
     2     -5.1756922     23  2.200                                             
     0     -4.2550951     23  2.200                                             
     0     27.2116520     23  2.200                                             
     3     -1.3605826     23  2.200                                             
  local pseudopotential read in
  partial core-charges read in
  partial kinetic energy density read in
  atomic valenz-charges read in
  non local Contribution for L=           1  read in
    real space projection operators read in
  non local Contribution for L=           1  read in
    real space projection operators read in
  non local Contribution for L=           2  read in
    real space projection operators read in
  non local Contribution for L=           2  read in
    real space projection operators read in
  non local Contribution for L=           0  read in
    real space projection operators read in
  non local Contribution for L=           0  read in
    real space projection operators read in
    PAW grid and wavefunctions read in
 
   number of l-projection  operators is LMAX  =           6
   number of lm-projection operators is LMMAX =          18
 

 ----------------------------------------------------------------------------- 
|                                                                             |
|  ADVICE TO THIS USER RUNNING 'VASP/VAMP'   (HEAR YOUR MASTER'S VOICE ...):  |
|                                                                             |
|      You enforced a specific xc-type in the INCAR file,                     |
|      a different type was found on the POTCAR file                          |
|          I HOPE YOU KNOW, WHAT YOU ARE  DOING                               |
|                                                                             |
 ----------------------------------------------------------------------------- 

  PAW_PBE S 06Sep2000                   :
 energy of atom  1       EATOM= -276.8230
 kinetic energy error for atom=    0.0007 (will be added to EATOM!!)
   PAW_PBE Cu_pv 06Sep2000              :
 energy of atom  2       EATOM=-4120.1201
 kinetic energy error for atom=    0.0094 (will be added to EATOM!!)
   PAW_PBE Fe_pv 02Aug2007              :
 energy of atom  3       EATOM=-2457.4239
 kinetic energy error for atom=    0.0025 (will be added to EATOM!!)
 
 
 POSCAR: Fe4 Cu4 S8                              
  positions in direct lattice
  velocities in cartesian coordinates
 exchange correlation table for  LEXCH =       14
   RHO(1)=    0.500       N(1)  =     2000
   RHO(2)=  100.500       N(2)  =     4000
 


--------------------------------------------------------------------------------------------------------


 ion  position               nearest neighbor table
   1  0.253  0.237  0.126-  11 2.25  16 2.26  10 2.28  13 2.30
   2  0.747  0.737  0.124-  10 2.25  13 2.26  11 2.28  16 2.30
   3  0.250  0.740  0.875-  11 2.27  12 2.27  13 2.27  14 2.27
   4  0.750  0.243  0.875-  11 2.26  12 2.26  13 2.29  14 2.29
   5  0.247  0.237  0.624-  12 2.25  15 2.26   9 2.28  14 2.30
   6  0.753  0.737  0.626-   9 2.25  14 2.26  12 2.28  15 2.30
   7  0.750  0.240  0.375-   9 2.27  10 2.27  16 2.27  15 2.27
   8  0.250  0.743  0.375-   9 2.26  10 2.26  16 2.29  15 2.29
   9  0.995  0.011  0.500-   6 2.25   8 2.26   7 2.27   5 2.28
  10  0.505  0.011  0.250-   2 2.25   8 2.26   7 2.27   1 2.28
  11  0.495  0.511  0.000-   1 2.25   4 2.26   3 2.27   2 2.28
  12  0.005  0.511  0.750-   5 2.25   4 2.26   3 2.27   6 2.28
  13  0.997  0.011  0.001-   2 2.26   3 2.27   4 2.29   1 2.30
  14  0.503  0.011  0.749-   6 2.26   3 2.27   4 2.29   5 2.30
  15  0.497  0.511  0.501-   5 2.26   7 2.27   8 2.29   6 2.30
  16  0.003  0.511  0.249-   1 2.26   7 2.27   8 2.29   2 2.30
 
  LATTYP: Found a simple monoclinic cell.
 ALAT       =    12.1310721250
 B/A-ratio  =     0.4345332082
 C/A-ratio  =     1.8116365314
 COS(beta)  =    -0.9790112729
  
  Lattice vectors:
  
 A1 = (  -5.7910670000,   0.0000000000, -10.6595710000)
 A2 = (   0.0000000000,  -5.2713536895,   0.0000000000)
 A3 = (   6.3353550000,   0.0000000000,  21.0441420000)


Analysis of symmetry for initial positions (statically):
=====================================================================
 Subroutine PRICEL returns following result:
 
  LATTYP: Found a base centered monoclinic cell.
 ALAT       =    11.1497465177
 B/A-ratio  =     0.4727778951
 C/A-ratio  =     0.9326512601
 COS(beta)  =    -0.7986331264
  
  Lattice vectors:
  
 A1 = (  -2.3512455000,  -2.6356768448,   5.0547855000)
 A2 = (  -2.3512455000,   2.6356768448,   5.0547855000)
 A3 = (  -0.5442880000,   0.0000000000, -10.3845710000)
 
   2 primitive cells build up your supercell.
 

 Routine SETGRP: Setting up the symmetry group for a 
 simple monoclinic supercell.


 Subroutine GETGRP returns: Found  2 space group operations
 (whereof  1 operations were pure point group operations)
 out of a pool of  4 trial point group operations.


The static configuration has the point symmetry C_1 .
 The point group associated with its full space group is C_2 .


Analysis of symmetry for dynamics (positions and initial velocities):
=====================================================================
 Subroutine PRICEL returns following result:
 
  LATTYP: Found a base centered monoclinic cell.
 ALAT       =    11.1497465177
 B/A-ratio  =     0.4727778951
 C/A-ratio  =     0.9326512601
 COS(beta)  =    -0.7986331264
  
  Lattice vectors:
  
 A1 = (  -2.3512455000,  -2.6356768448,   5.0547855000)
 A2 = (  -2.3512455000,   2.6356768448,   5.0547855000)
 A3 = (  -0.5442880000,   0.0000000000, -10.3845710000)
 
   2 primitive cells build up your supercell.
 

 Routine SETGRP: Setting up the symmetry group for a 
 simple monoclinic supercell.


 Subroutine GETGRP returns: Found  2 space group operations
 (whereof  1 operations were pure point group operations)
 out of a pool of  4 trial point group operations.


The dynamic configuration has the point symmetry C_1 .
 The point group associated with its full space group is C_2 .


Analysis of structural, dynamic, and magnetic symmetry:
=====================================================================
 Subroutine PRICEL returns following result:
 
  LATTYP: Found a base centered monoclinic cell.
 ALAT       =    11.1497465177
 B/A-ratio  =     0.4727778951
 C/A-ratio  =     0.9326512601
 COS(beta)  =    -0.7986331264
  
  Lattice vectors:
  
 A1 = (  -2.3512455000,  -2.6356768448,   5.0547855000)
 A2 = (  -2.3512455000,   2.6356768448,   5.0547855000)
 A3 = (  -0.5442880000,   0.0000000000, -10.3845710000)
 
   2 primitive cells build up your supercell.
 

 Routine SETGRP: Setting up the symmetry group for a 
 simple monoclinic supercell.


 Subroutine GETGRP returns: Found  2 space group operations
 (whereof  1 operations were pure point group operations)
 out of a pool of  4 trial point group operations.


The (compounded) configuration has the point symmetry C_1 .
 The point group associated with its full space group is C_2 .


 Subroutine INISYM returns: Found  2 space group operations
 (whereof  1 operations are pure point group operations),
 and found     2 'primitive' translations

 
 
 KPOINTS: Automatic mesh                          

Automatic generation of k-mesh.
Space group operators:
 irot       det(A)        alpha          n_x          n_y          n_z        tau_x        tau_y        tau_z
    1     1.000000     0.000001     1.000000     0.000000     0.000000     0.000000     0.000000     0.000000
    2     1.000000   180.000000     0.000000     1.000000     0.000000    -0.500000    -0.000000    -0.250000
 
 Subroutine IBZKPT returns following result:
 ===========================================
 
 Found     60 irreducible k-points:
 
 Following reciprocal coordinates:
            Coordinates               Weight
  0.000000  0.000000  0.000000      1.000000
  0.166667  0.000000 -0.000000      2.000000
  0.333333  0.000000 -0.000000      2.000000
  0.500000  0.000000  0.000000      1.000000
  0.000000  0.166667  0.000000      1.000000
  0.166667  0.166667 -0.000000      2.000000
  0.333333  0.166667 -0.000000      2.000000
  0.500000  0.166667  0.000000      1.000000
  0.000000  0.333333  0.000000      1.000000
  0.166667  0.333333 -0.000000      2.000000
  0.333333  0.333333 -0.000000      2.000000
  0.500000  0.333333  0.000000      1.000000
  0.000000  0.500000  0.000000      1.000000
  0.166667  0.500000 -0.000000      2.000000
  0.333333  0.500000 -0.000000      2.000000
  0.500000  0.500000  0.000000      1.000000
  0.000000 -0.333333  0.000000      1.000000
  0.166667 -0.333333 -0.000000      2.000000
  0.333333 -0.333333 -0.000000      2.000000
  0.500000 -0.333333  0.000000      1.000000
  0.000000 -0.166667  0.000000      1.000000
  0.166667 -0.166667 -0.000000      2.000000
  0.333333 -0.166667 -0.000000      2.000000
  0.500000 -0.166667  0.000000      1.000000
  0.000000  0.000000  0.333333      2.000000
  0.166667  0.000000  0.333333      2.000000
  0.333333  0.000000  0.333333      2.000000
  0.500000  0.000000  0.333333      2.000000
 -0.333333  0.000000  0.333333      2.000000
 -0.166667  0.000000  0.333333      2.000000
  0.000000  0.166667  0.333333      2.000000
  0.166667  0.166667  0.333333      2.000000
  0.333333  0.166667  0.333333      2.000000
  0.500000  0.166667  0.333333      2.000000
 -0.333333  0.166667  0.333333      2.000000
 -0.166667  0.166667  0.333333      2.000000
  0.000000  0.333333  0.333333      2.000000
  0.166667  0.333333  0.333333      2.000000
  0.333333  0.333333  0.333333      2.000000
  0.500000  0.333333  0.333333      2.000000
 -0.333333  0.333333  0.333333      2.000000
 -0.166667  0.333333  0.333333      2.000000
  0.000000  0.500000  0.333333      2.000000
  0.166667  0.500000  0.333333      2.000000
  0.333333  0.500000  0.333333      2.000000
  0.500000  0.500000  0.333333      2.000000
 -0.333333  0.500000  0.333333      2.000000
 -0.166667  0.500000  0.333333      2.000000
  0.000000 -0.333333  0.333333      2.000000
  0.166667 -0.333333  0.333333      2.000000
  0.333333 -0.333333  0.333333      2.000000
  0.500000 -0.333333  0.333333      2.000000
 -0.333333 -0.333333  0.333333      2.000000
 -0.166667 -0.333333  0.333333      2.000000
  0.000000 -0.166667  0.333333      2.000000
  0.166667 -0.166667  0.333333      2.000000
  0.333333 -0.166667  0.333333      2.000000
  0.500000 -0.166667  0.333333      2.000000
 -0.333333 -0.166667  0.333333      2.000000
 -0.166667 -0.166667  0.333333      2.000000
 
 Following cartesian coordinates:
            Coordinates               Weight
  0.000000  0.000000  0.000000      1.000000
  0.031853  0.000000 -0.001670      2.000000
  0.063706  0.000000 -0.003339      2.000000
  0.095559  0.000000 -0.005009      1.000000
  0.000000  0.031617  0.000000      1.000000
  0.031853  0.031617 -0.001670      2.000000
  0.063706  0.031617 -0.003339      2.000000
  0.095559  0.031617 -0.005009      1.000000
  0.000000  0.063235  0.000000      1.000000
  0.031853  0.063235 -0.001670      2.000000
  0.063706  0.063235 -0.003339      2.000000
  0.095559  0.063235 -0.005009      1.000000
  0.000000  0.094852  0.000000      1.000000
  0.031853  0.094852 -0.001670      2.000000
  0.063706  0.094852 -0.003339      2.000000
  0.095559  0.094852 -0.005009      1.000000
  0.000000 -0.063235  0.000000      1.000000
  0.031853 -0.063235 -0.001670      2.000000
  0.063706 -0.063235 -0.003339      2.000000
  0.095559 -0.063235 -0.005009      1.000000
  0.000000 -0.031617  0.000000      1.000000
  0.031853 -0.031617 -0.001670      2.000000
  0.063706 -0.031617 -0.003339      2.000000
  0.095559 -0.031617 -0.005009      1.000000
 -0.001687  0.000000  0.032187      2.000000
  0.030166  0.000000  0.030518      2.000000
  0.062019  0.000000  0.028848      2.000000
  0.093872  0.000000  0.027179      2.000000
 -0.065393  0.000000  0.035526      2.000000
 -0.033540  0.000000  0.033857      2.000000
 -0.001687  0.031617  0.032187      2.000000
  0.030166  0.031617  0.030518      2.000000
  0.062019  0.031617  0.028848      2.000000
  0.093872  0.031617  0.027179      2.000000
 -0.065393  0.031617  0.035526      2.000000
 -0.033540  0.031617  0.033857      2.000000
 -0.001687  0.063235  0.032187      2.000000
  0.030166  0.063235  0.030518      2.000000
  0.062019  0.063235  0.028848      2.000000
  0.093872  0.063235  0.027179      2.000000
 -0.065393  0.063235  0.035526      2.000000
 -0.033540  0.063235  0.033857      2.000000
 -0.001687  0.094852  0.032187      2.000000
  0.030166  0.094852  0.030518      2.000000
  0.062019  0.094852  0.028848      2.000000
  0.093872  0.094852  0.027179      2.000000
 -0.065393  0.094852  0.035526      2.000000
 -0.033540  0.094852  0.033857      2.000000
 -0.001687 -0.063235  0.032187      2.000000
  0.030166 -0.063235  0.030518      2.000000
  0.062019 -0.063235  0.028848      2.000000
  0.093872 -0.063235  0.027179      2.000000
 -0.065393 -0.063235  0.035526      2.000000
 -0.033540 -0.063235  0.033857      2.000000
 -0.001687 -0.031617  0.032187      2.000000
  0.030166 -0.031617  0.030518      2.000000
  0.062019 -0.031617  0.028848      2.000000
  0.093872 -0.031617  0.027179      2.000000
 -0.065393 -0.031617  0.035526      2.000000
 -0.033540 -0.031617  0.033857      2.000000
 
 TETIRR: Found    648 inequivalent tetrahedra from      648
 
 Subroutine IBZKPT_HF returns following result:
 ==============================================
 
 Found    108 k-points in 1st BZ
 the following    108 k-points will be used (e.g. in the exchange kernel)
 Following reciprocal coordinates:   # in IRBZ
  0.000000  0.000000  0.000000    0.00925926   1 t-inv F
  0.166667  0.000000 -0.000000    0.00925926   2 t-inv F
  0.333333  0.000000 -0.000000    0.00925926   3 t-inv F
  0.500000  0.000000  0.000000    0.00925926   4 t-inv F
  0.000000  0.166667  0.000000    0.00925926   5 t-inv F
  0.166667  0.166667 -0.000000    0.00925926   6 t-inv F
  0.333333  0.166667 -0.000000    0.00925926   7 t-inv F
  0.500000  0.166667  0.000000    0.00925926   8 t-inv F
  0.000000  0.333333  0.000000    0.00925926   9 t-inv F
  0.166667  0.333333 -0.000000    0.00925926  10 t-inv F
  0.333333  0.333333 -0.000000    0.00925926  11 t-inv F
  0.500000  0.333333  0.000000    0.00925926  12 t-inv F
  0.000000  0.500000  0.000000    0.00925926  13 t-inv F
  0.166667  0.500000 -0.000000    0.00925926  14 t-inv F
  0.333333  0.500000 -0.000000    0.00925926  15 t-inv F
  0.500000  0.500000  0.000000    0.00925926  16 t-inv F
  0.000000 -0.333333  0.000000    0.00925926  17 t-inv F
  0.166667 -0.333333 -0.000000    0.00925926  18 t-inv F
  0.333333 -0.333333 -0.000000    0.00925926  19 t-inv F
  0.500000 -0.333333  0.000000    0.00925926  20 t-inv F
  0.000000 -0.166667  0.000000    0.00925926  21 t-inv F
  0.166667 -0.166667 -0.000000    0.00925926  22 t-inv F
  0.333333 -0.166667 -0.000000    0.00925926  23 t-inv F
  0.500000 -0.166667  0.000000    0.00925926  24 t-inv F
  0.000000  0.000000  0.333333    0.00925926  25 t-inv F
  0.166667  0.000000  0.333333    0.00925926  26 t-inv F
  0.333333  0.000000  0.333333    0.00925926  27 t-inv F
  0.500000  0.000000  0.333333    0.00925926  28 t-inv F
 -0.333333  0.000000  0.333333    0.00925926  29 t-inv F
 -0.166667  0.000000  0.333333    0.00925926  30 t-inv F
  0.000000  0.166667  0.333333    0.00925926  31 t-inv F
  0.166667  0.166667  0.333333    0.00925926  32 t-inv F
  0.333333  0.166667  0.333333    0.00925926  33 t-inv F
  0.500000  0.166667  0.333333    0.00925926  34 t-inv F
 -0.333333  0.166667  0.333333    0.00925926  35 t-inv F
 -0.166667  0.166667  0.333333    0.00925926  36 t-inv F
  0.000000  0.333333  0.333333    0.00925926  37 t-inv F
  0.166667  0.333333  0.333333    0.00925926  38 t-inv F
  0.333333  0.333333  0.333333    0.00925926  39 t-inv F
  0.500000  0.333333  0.333333    0.00925926  40 t-inv F
 -0.333333  0.333333  0.333333    0.00925926  41 t-inv F
 -0.166667  0.333333  0.333333    0.00925926  42 t-inv F
  0.000000  0.500000  0.333333    0.00925926  43 t-inv F
  0.166667  0.500000  0.333333    0.00925926  44 t-inv F
  0.333333  0.500000  0.333333    0.00925926  45 t-inv F
  0.500000  0.500000  0.333333    0.00925926  46 t-inv F
 -0.333333  0.500000  0.333333    0.00925926  47 t-inv F
 -0.166667  0.500000  0.333333    0.00925926  48 t-inv F
  0.000000 -0.333333  0.333333    0.00925926  49 t-inv F
  0.166667 -0.333333  0.333333    0.00925926  50 t-inv F
  0.333333 -0.333333  0.333333    0.00925926  51 t-inv F
  0.500000 -0.333333  0.333333    0.00925926  52 t-inv F
 -0.333333 -0.333333  0.333333    0.00925926  53 t-inv F
 -0.166667 -0.333333  0.333333    0.00925926  54 t-inv F
  0.000000 -0.166667  0.333333    0.00925926  55 t-inv F
  0.166667 -0.166667  0.333333    0.00925926  56 t-inv F
  0.333333 -0.166667  0.333333    0.00925926  57 t-inv F
  0.500000 -0.166667  0.333333    0.00925926  58 t-inv F
 -0.333333 -0.166667  0.333333    0.00925926  59 t-inv F
 -0.166667 -0.166667  0.333333    0.00925926  60 t-inv F
 -0.166667  0.000000  0.000000    0.00925926   2 t-inv F
 -0.333333  0.000000  0.000000    0.00925926   3 t-inv F
 -0.166667  0.166667  0.000000    0.00925926   6 t-inv F
 -0.333333  0.166667  0.000000    0.00925926   7 t-inv F
 -0.166667  0.333333  0.000000    0.00925926  10 t-inv F
 -0.333333  0.333333  0.000000    0.00925926  11 t-inv F
 -0.166667  0.500000  0.000000    0.00925926  14 t-inv F
 -0.333333  0.500000  0.000000    0.00925926  15 t-inv F
 -0.166667 -0.333333  0.000000    0.00925926  18 t-inv F
 -0.333333 -0.333333  0.000000    0.00925926  19 t-inv F
 -0.166667 -0.166667  0.000000    0.00925926  22 t-inv F
 -0.333333 -0.166667  0.000000    0.00925926  23 t-inv F
  0.000000  0.000000 -0.333333    0.00925926  25 t-inv F
 -0.166667  0.000000 -0.333333    0.00925926  26 t-inv F
 -0.333333  0.000000 -0.333333    0.00925926  27 t-inv F
 -0.500000  0.000000 -0.333333    0.00925926  28 t-inv F
  0.333333  0.000000 -0.333333    0.00925926  29 t-inv F
  0.166667  0.000000 -0.333333    0.00925926  30 t-inv F
  0.000000  0.166667 -0.333333    0.00925926  31 t-inv F
 -0.166667  0.166667 -0.333333    0.00925926  32 t-inv F
 -0.333333  0.166667 -0.333333    0.00925926  33 t-inv F
 -0.500000  0.166667 -0.333333    0.00925926  34 t-inv F
  0.333333  0.166667 -0.333333    0.00925926  35 t-inv F
  0.166667  0.166667 -0.333333    0.00925926  36 t-inv F
  0.000000  0.333333 -0.333333    0.00925926  37 t-inv F
 -0.166667  0.333333 -0.333333    0.00925926  38 t-inv F
 -0.333333  0.333333 -0.333333    0.00925926  39 t-inv F
 -0.500000  0.333333 -0.333333    0.00925926  40 t-inv F
  0.333333  0.333333 -0.333333    0.00925926  41 t-inv F
  0.166667  0.333333 -0.333333    0.00925926  42 t-inv F
  0.000000  0.500000 -0.333333    0.00925926  43 t-inv F
 -0.166667  0.500000 -0.333333    0.00925926  44 t-inv F
 -0.333333  0.500000 -0.333333    0.00925926  45 t-inv F
 -0.500000  0.500000 -0.333333    0.00925926  46 t-inv F
  0.333333  0.500000 -0.333333    0.00925926  47 t-inv F
  0.166667  0.500000 -0.333333    0.00925926  48 t-inv F
  0.000000 -0.333333 -0.333333    0.00925926  49 t-inv F
 -0.166667 -0.333333 -0.333333    0.00925926  50 t-inv F
 -0.333333 -0.333333 -0.333333    0.00925926  51 t-inv F
 -0.500000 -0.333333 -0.333333    0.00925926  52 t-inv F
  0.333333 -0.333333 -0.333333    0.00925926  53 t-inv F
  0.166667 -0.333333 -0.333333    0.00925926  54 t-inv F
  0.000000 -0.166667 -0.333333    0.00925926  55 t-inv F
 -0.166667 -0.166667 -0.333333    0.00925926  56 t-inv F
 -0.333333 -0.166667 -0.333333    0.00925926  57 t-inv F
 -0.500000 -0.166667 -0.333333    0.00925926  58 t-inv F
  0.333333 -0.166667 -0.333333    0.00925926  59 t-inv F
  0.166667 -0.166667 -0.333333    0.00925926  60 t-inv F


--------------------------------------------------------------------------------------------------------




 Dimension of arrays:
   k-points           NKPTS =     60   k-points in BZ     NKDIM =     60   number of bands    NBANDS=    256
   number of dos      NEDOS =    301   number of ions     NIONS =     16
   non local maximal  LDIM  =      6   non local SUM 2l+1 LMDIM =     18
   total plane-waves  NPLWV = 207360
   max r-space proj   IRMAX =      1   max aug-charges    IRDMAX=  23005
   dimension x,y,z NGX =    48 NGY =   48 NGZ =   90
   dimension x,y,z NGXF=    96 NGYF=   96 NGZF=  180
   support grid    NGXF=    96 NGYF=   96 NGZF=  180
   ions per type =               8   4   4
   NGX,Y,Z   is equivalent  to a cutoff of  15.19, 15.14, 14.39 a.u.
   NGXF,Y,Z  is equivalent  to a cutoff of  30.38, 30.28, 28.78 a.u.

 SYSTEM =  CuFeS2                                  
 POSCAR =  Fe4 Cu4 S8                              

 Startparameter for this run:
   NWRITE =      2    write-flag & timer
   PREC   = accura    normal or accurate (medium, high low for compatibility)
   ISTART =      1    job   : 0-new  1-cont  2-samecut
   ICHARG =      1    charge: 1-file 2-atom 10-const
   ISPIN  =      1    spin polarized calculation?
   LNONCOLLINEAR =      T non collinear calculations
   LSORBIT =      T    spin-orbit coupling
   INIWAV =      1    electr: 0-lowe 1-rand  2-diag
   LASPH  =      T    aspherical Exc in radial PAW
   METAGGA=      F    non-selfconsistent MetaGGA calc.

 Electronic Relaxation 1
   ENCUT  =  700.0 eV  51.45 Ry    7.17 a.u.  11.33 11.37 22.43*2*pi/ulx,y,z
   ENINI  =  700.0     initial cutoff
   ENAUG  =  758.2 eV  augmentation charge cutoff
   NELM   =    200;   NELMIN=  2; NELMDL=  0     # of ELM steps 
   EDIFF  = 0.1E-07   stopping-criterion for ELM
   LREAL  =      F    real-space projection
   NLSPLINE    = F    spline interpolate recip. space projectors
   LCOMPAT=      F    compatible to vasp.4.4
   GGA_COMPAT  = T    GGA compatible to vasp.4.4-vasp.4.6
   LMAXPAW     = -100 max onsite density
   LMAXMIX     =    4 max onsite mixed and CHGCAR
   VOSKOWN=      0    Vosko Wilk Nusair interpolation
   ROPT   =    0.00000   0.00000   0.00000
 Ionic relaxation
   EDIFFG = -.1E-04   stopping-criterion for IOM
   NSW    =      0    number of steps for IOM
   NBLOCK =      1;   KBLOCK =      1    inner block; outer block 
   IBRION =     -1    ionic relax: 0-MD 1-quasi-New 2-CG
   NFREE  =      0    steps in history (QN), initial steepest desc. (CG)
   ISIF   =      2    stress and relaxation
   IWAVPR =     10    prediction:  0-non 1-charg 2-wave 3-comb
   ISYM   =      2    0-nonsym 1-usesym 2-fastsym
   LCORR  =      T    Harris-Foulkes like correction to forces

   POTIM  = 0.5000    time-step for ionic-motion
   TEIN   =    0.0    initial temperature
   TEBEG  =    0.0;   TEEND  =   0.0 temperature during run
   SMASS  =  -3.00    Nose mass-parameter (am)
   estimated Nose-frequenzy (Omega)   =  0.10E-29 period in steps =****** mass=  -0.631E-27a.u.
   SCALEE = 1.0000    scale energy and forces
   NPACO  =    256;   APACO  = 16.0  distance and # of slots for P.C.
   PSTRESS=    0.0 pullay stress

  Mass of Ions in am
   POMASS =  32.07 63.55 55.85
  Ionic Valenz
   ZVAL   =   6.00 17.00 14.00
  Atomic Wigner-Seitz radii
   RWIGS  =  -1.00 -1.00 -1.00
  virtual crystal weights 
   VCA    =   1.00  1.00  1.00
   NELECT =     172.0000    total number of electrons
   NUPDOWN=      -1.0000    fix difference up-down

 DOS related values:
   EMIN   =  10.00;   EMAX   =-10.00  energy-range for DOS
   EFERMI =   0.00
   ISMEAR =    -5;   SIGMA  =   0.03  broadening in eV -4-tet -1-fermi 0-gaus

 Electronic relaxation 2 (details)
   IALGO  =     38    algorithm
   LDIAG  =      T    sub-space diagonalisation (order eigenvalues)
   LSUBROT=      F    optimize rotation matrix (better conditioning)
   TURBO    =      0    0=normal 1=particle mesh
   IRESTART =      0    0=no restart 2=restart with 2 vectors
   NREBOOT  =      0    no. of reboots
   NMIN     =      0    reboot dimension
   EREF     =   0.00    reference energy to select bands
   IMIX   =      4    mixing-type and parameters
     AMIX     =   0.40;   BMIX     =  1.00
     AMIX_MAG =   1.60;   BMIX_MAG =  1.00
     AMIN     =   0.10
     WC   =   100.;   INIMIX=   1;  MIXPRE=   1;  MAXMIX= -45

 Intra band minimization:
   WEIMIN = 0.0000     energy-eigenvalue tresh-hold
   EBREAK =  0.98E-11  absolut break condition
   DEPER  =   0.30     relativ break condition  

   TIME   =   0.40     timestep for ELM

  volume/ion in A,a.u.               =      17.90       120.81
  Fermi-wavevector in a.u.,A,eV,Ry     =   1.381173  2.610038 25.954999  1.907639
  Thomas-Fermi vector in A             =   2.505982
 
 Write flags
   LWAVE        =      T    write WAVECAR
   LDOWNSAMPLE  =      F    k-point downsampling of WAVECAR
   LCHARG       =      T    write CHGCAR
   LVTOT        =      F    write LOCPOT, total local potential
   LVHAR        =      F    write LOCPOT, Hartree potential only
   LELF         =      F    write electronic localiz. function (ELF)
   LORBIT       =     11    0 simple, 1 ext, 2 COOP (PROOUT), +10 PAW based schemes


 Dipole corrections
   LMONO  =      F    monopole corrections only (constant potential shift)
   LDIPOL =      F    correct potential (dipole corrections)
   IDIPOL =      0    1-x, 2-y, 3-z, 4-all directions 
   EPSILON=  1.0000000 bulk dielectric constant

 LDA+U is selected, type is set to LDAUTYPE =  2
   angular momentum for each species LDAUL =     2    2    2
   U (eV)           for each species LDAUU =   0.0  0.1  4.7
   J (eV)           for each species LDAUJ =   0.0  0.0  0.0
 Exchange correlation treatment:
   GGA     =    PS    GGA type
   LEXCH   =    14    internal setting for exchange type
   VOSKOWN=      0    Vosko Wilk Nusair interpolation
   LHFCALC =     F    Hartree Fock is set to
   LHFONE  =     F    Hartree Fock one center treatment
   AEXX    =    0.0000 exact exchange contribution

 Linear response parameters
   LEPSILON=     F    determine dielectric tensor
   LRPA    =     F    only Hartree local field effects (RPA)
   LNABLA  =     F    use nabla operator in PAW spheres
   LVEL    =     F    velocity operator in full k-point grid
   LINTERFAST=   F  fast interpolation
   KINTER  =     0    interpolate to denser k-point grid
   CSHIFT  =0.1000    complex shift for real part using Kramers Kronig
   OMEGAMAX=  -1.0    maximum frequency
   DEG_THRESHOLD= 0.2000000E-02 threshold for treating states as degnerate
   RTIME   =   -0.100 relaxation time in fs
  (WPLASMAI=    0.000 imaginary part of plasma frequency in eV, 0.658/RTIME)
   DFIELD  = 0.0000000 0.0000000 0.0000000 field for delta impulse in time
 
 Orbital magnetization related:
   ORBITALMAG=     F  switch on orbital magnetization
   LCHIMAG   =     F  perturbation theory with respect to B field
   DQ        =  0.001000  dq finite difference perturbation B field
   LLRAUG    =     F  two centre corrections for induced B field

 PEAD related settings:
   LPEAD      =     T    switch on PEAD
   IPEAD      =     4    finite difference order for dpsi/dk
   LCALCPOL   =     T    calculate macroscopic polarization
   LCALCEPS   =     F    calculate dielectric tensor
   EFIELD_PEAD=    0.0000    0.0000    0.0000
   SKIP_EDOTP =     F
   LRPA       =     F
   SKIP_SCF   =     F


--------------------------------------------------------------------------------------------------------


 Static calculation
 charge density and potential will be updated during run
 non collinear spin polarized calculation
 Variant of blocked Davidson
 Davidson routine will perform the subspace rotation
 perform sub-space diagonalisation
    after iterative eigenvector-optimisation
 modified Broyden-mixing scheme, WC =      100.0
 initial mixing is a Kerker type mixing with AMIX =  0.4000 and BMIX =      1.0000
 Hartree-type preconditioning will be used
 using additional bands          170
 reciprocal scheme for non local part
 use partial core corrections
 calculate Harris-corrections to forces 
   (improved forces if not selfconsistent)
 use gradient corrections 
 use of overlap-Matrix (Vanderbilt PP)
 Fermi weights with tetrahedron method with Bloechl corrections


--------------------------------------------------------------------------------------------------------


  energy-cutoff  :      700.00
  volume of cell :      286.42
      direct lattice vectors                 reciprocal lattice vectors
     5.246779000  0.000000000  0.275000000     0.191118151  0.000000000 -0.010017103
     0.000000000  5.271353690  0.000000000     0.000000000  0.189704592  0.000000000
     0.544288000  0.000000000 10.384571000    -0.005061113  0.000000000  0.096561977

  length of vectors
     5.253980860  5.271353690 10.398825139     0.191380485  0.189704592  0.096694520


 
 old parameters found on file WAVECAR:
  energy-cutoff  :      700.00
  volume of cell :      286.42
      direct lattice vectors                 reciprocal lattice vectors
     5.246779000  0.000000000  0.275000000     0.191118151  0.000000000 -0.010017103
     0.000000000  5.271264440  0.000000000     0.000000000  0.189707804  0.000000000
     0.544288000  0.000000000 10.384571000    -0.005061113  0.000000000  0.096561977

  length of vectors

 
 k-points in units of 2pi/SCALE and weight: Automatic mesh                          
   0.00000000  0.00000000  0.00000000       0.009
   0.03185303  0.00000000 -0.00166952       0.019
   0.06370605  0.00000000 -0.00333903       0.019
   0.09555908  0.00000000 -0.00500855       0.009
   0.00000000  0.03161743  0.00000000       0.009
   0.03185303  0.03161743 -0.00166952       0.019
   0.06370605  0.03161743 -0.00333903       0.019
   0.09555908  0.03161743 -0.00500855       0.009
   0.00000000  0.06323486  0.00000000       0.009
   0.03185303  0.06323486 -0.00166952       0.019
   0.06370605  0.06323486 -0.00333903       0.019
   0.09555908  0.06323486 -0.00500855       0.009
   0.00000000  0.09485230  0.00000000       0.009
   0.03185303  0.09485230 -0.00166952       0.019
   0.06370605  0.09485230 -0.00333903       0.019
   0.09555908  0.09485230 -0.00500855       0.009
   0.00000000 -0.06323486  0.00000000       0.009
   0.03185303 -0.06323486 -0.00166952       0.019
   0.06370605 -0.06323486 -0.00333903       0.019
   0.09555908 -0.06323486 -0.00500855       0.009
   0.00000000 -0.03161743  0.00000000       0.009
   0.03185303 -0.03161743 -0.00166952       0.019
   0.06370605 -0.03161743 -0.00333903       0.019
   0.09555908 -0.03161743 -0.00500855       0.009
  -0.00168704  0.00000000  0.03218733       0.019
   0.03016599  0.00000000  0.03051781       0.019
   0.06201901  0.00000000  0.02884829       0.019
   0.09387204  0.00000000  0.02717877       0.019
  -0.06539309  0.00000000  0.03552636       0.019
  -0.03354006  0.00000000  0.03385684       0.019
  -0.00168704  0.03161743  0.03218733       0.019
   0.03016599  0.03161743  0.03051781       0.019
   0.06201901  0.03161743  0.02884829       0.019
   0.09387204  0.03161743  0.02717877       0.019
  -0.06539309  0.03161743  0.03552636       0.019
  -0.03354006  0.03161743  0.03385684       0.019
  -0.00168704  0.06323486  0.03218733       0.019
   0.03016599  0.06323486  0.03051781       0.019
   0.06201901  0.06323486  0.02884829       0.019
   0.09387204  0.06323486  0.02717877       0.019
  -0.06539309  0.06323486  0.03552636       0.019
  -0.03354006  0.06323486  0.03385684       0.019
  -0.00168704  0.09485230  0.03218733       0.019
   0.03016599  0.09485230  0.03051781       0.019
   0.06201901  0.09485230  0.02884829       0.019
   0.09387204  0.09485230  0.02717877       0.019
  -0.06539309  0.09485230  0.03552636       0.019
  -0.03354006  0.09485230  0.03385684       0.019
  -0.00168704 -0.06323486  0.03218733       0.019
   0.03016599 -0.06323486  0.03051781       0.019
   0.06201901 -0.06323486  0.02884829       0.019
   0.09387204 -0.06323486  0.02717877       0.019
  -0.06539309 -0.06323486  0.03552636       0.019
  -0.03354006 -0.06323486  0.03385684       0.019
  -0.00168704 -0.03161743  0.03218733       0.019
   0.03016599 -0.03161743  0.03051781       0.019
   0.06201901 -0.03161743  0.02884829       0.019
   0.09387204 -0.03161743  0.02717877       0.019
  -0.06539309 -0.03161743  0.03552636       0.019
  -0.03354006 -0.03161743  0.03385684       0.019
 
 k-points in reciprocal lattice and weights: Automatic mesh                          
   0.00000000  0.00000000  0.00000000       0.009
   0.16666667  0.00000000 -0.00000000       0.019
   0.33333333  0.00000000 -0.00000000       0.019
   0.50000000  0.00000000  0.00000000       0.009
   0.00000000  0.16666667  0.00000000       0.009
   0.16666667  0.16666667 -0.00000000       0.019
   0.33333333  0.16666667 -0.00000000       0.019
   0.50000000  0.16666667  0.00000000       0.009
   0.00000000  0.33333333  0.00000000       0.009
   0.16666667  0.33333333 -0.00000000       0.019
   0.33333333  0.33333333 -0.00000000       0.019
   0.50000000  0.33333333  0.00000000       0.009
   0.00000000  0.50000000  0.00000000       0.009
   0.16666667  0.50000000 -0.00000000       0.019
   0.33333333  0.50000000 -0.00000000       0.019
   0.50000000  0.50000000  0.00000000       0.009
   0.00000000 -0.33333333  0.00000000       0.009
   0.16666667 -0.33333333 -0.00000000       0.019
   0.33333333 -0.33333333 -0.00000000       0.019
   0.50000000 -0.33333333  0.00000000       0.009
   0.00000000 -0.16666667  0.00000000       0.009
   0.16666667 -0.16666667 -0.00000000       0.019
   0.33333333 -0.16666667 -0.00000000       0.019
   0.50000000 -0.16666667  0.00000000       0.009
   0.00000000  0.00000000  0.33333333       0.019
   0.16666667  0.00000000  0.33333333       0.019
   0.33333333  0.00000000  0.33333333       0.019
   0.50000000  0.00000000  0.33333333       0.019
  -0.33333333  0.00000000  0.33333333       0.019
  -0.16666667  0.00000000  0.33333333       0.019
   0.00000000  0.16666667  0.33333333       0.019
   0.16666667  0.16666667  0.33333333       0.019
   0.33333333  0.16666667  0.33333333       0.019
   0.50000000  0.16666667  0.33333333       0.019
  -0.33333333  0.16666667  0.33333333       0.019
  -0.16666667  0.16666667  0.33333333       0.019
   0.00000000  0.33333333  0.33333333       0.019
   0.16666667  0.33333333  0.33333333       0.019
   0.33333333  0.33333333  0.33333333       0.019
   0.50000000  0.33333333  0.33333333       0.019
  -0.33333333  0.33333333  0.33333333       0.019
  -0.16666667  0.33333333  0.33333333       0.019
   0.00000000  0.50000000  0.33333333       0.019
   0.16666667  0.50000000  0.33333333       0.019
   0.33333333  0.50000000  0.33333333       0.019
   0.50000000  0.50000000  0.33333333       0.019
  -0.33333333  0.50000000  0.33333333       0.019
  -0.16666667  0.50000000  0.33333333       0.019
   0.00000000 -0.33333333  0.33333333       0.019
   0.16666667 -0.33333333  0.33333333       0.019
   0.33333333 -0.33333333  0.33333333       0.019
   0.50000000 -0.33333333  0.33333333       0.019
  -0.33333333 -0.33333333  0.33333333       0.019
  -0.16666667 -0.33333333  0.33333333       0.019
   0.00000000 -0.16666667  0.33333333       0.019
   0.16666667 -0.16666667  0.33333333       0.019
   0.33333333 -0.16666667  0.33333333       0.019
   0.50000000 -0.16666667  0.33333333       0.019
  -0.33333333 -0.16666667  0.33333333       0.019
  -0.16666667 -0.16666667  0.33333333       0.019
 
 position of ions in fractional coordinates (direct lattice) 
   0.25296314  0.23656361  0.12610809
   0.74703686  0.73656361  0.12389191
   0.25000000  0.73966765  0.87500000
   0.75000000  0.24320870  0.87500000
   0.24703686  0.23656361  0.62389191
   0.75296314  0.73656361  0.62610809
   0.75000000  0.23966765  0.37500000
   0.25000000  0.74320870  0.37500000
   0.99500642  0.01108488  0.50002630
   0.50499358  0.01108488  0.24997370
   0.49500642  0.51108488  0.00002630
   0.00499358  0.51108488  0.74997370
   0.99733476  0.01091333  0.00069035
   0.50266524  0.01091333  0.74930965
   0.49733476  0.51091333  0.50069035
   0.00266524  0.51091333  0.24930965
 
 position of ions in cartesian coordinates  (Angst):
   1.39588082  1.24701046  1.37914332
   3.98697018  3.88268730  1.49199943
   1.78794675  3.89904980  9.15524962
   4.41133625  1.28203905  9.29274963
   1.63572468  1.24701046  6.54678493
   4.29141432  3.88268730  6.70892882
   4.13919225  1.26337296  4.10046412
   1.51580275  3.91771590  3.96296412
   5.49273712  0.05843235  5.46618541
   2.78564738  0.05843235  2.73474284
   2.59720362  2.69410919  0.13639991
   0.43440188  2.69410919  7.78952834
   5.23317084  0.05752804  0.28143608
   3.04521366  0.05752804  7.91949217
   2.88192534  2.69320488  5.33622158
   0.14968016  2.69320488  2.58970667
 
 Euler angles ALPHA=     0.0000000  BETA=     0.0000000

 transformation matrix from SAXIS to cartesian coordinates
 ---------------------------------------------------------
     1.0000000 m_x     0.0000000 m_y     0.0000000 m_z
     0.0000000 m_x     1.0000000 m_y     0.0000000 m_z
     0.0000000 m_x     0.0000000 m_y     1.0000000 m_z

 transformation matrix from cartesian coordinates to SAXIS
 ---------------------------------------------------------
     1.0000000 m_x     0.0000000 m_y     0.0000000 m_z
     0.0000000 m_x     1.0000000 m_y     0.0000000 m_z
     0.0000000 m_x     0.0000000 m_y     1.0000000 m_z




--------------------------------------------------------------------------------------------------------


 k-point  1 :   0.0000 0.0000 0.0000  plane waves:   24094
 k-point  2 :   0.1667 0.0000-0.0000  plane waves:   24084
 k-point  3 :   0.3333 0.0000-0.0000  plane waves:   24108
 k-point  4 :   0.5000 0.0000 0.0000  plane waves:   24136
 k-point  5 :   0.0000 0.1667 0.0000  plane waves:   24102
 k-point  6 :   0.1667 0.1667-0.0000  plane waves:   24108
 k-point  7 :   0.3333 0.1667-0.0000  plane waves:   24104
 k-point  8 :   0.5000 0.1667 0.0000  plane waves:   24124
 k-point  9 :   0.0000 0.3333 0.0000  plane waves:   24098
 k-point 10 :   0.1667 0.3333-0.0000  plane waves:   24088
 k-point 11 :   0.3333 0.3333-0.0000  plane waves:   24098
 k-point 12 :   0.5000 0.3333 0.0000  plane waves:   24052
 k-point 13 :   0.0000 0.5000 0.0000  plane waves:   24116
 k-point 14 :   0.1667 0.5000-0.0000  plane waves:   24104
 k-point 15 :   0.3333 0.5000-0.0000  plane waves:   24056
 k-point 16 :   0.5000 0.5000 0.0000  plane waves:   24040
 k-point 17 :   0.0000-0.3333 0.0000  plane waves:   24098
 k-point 18 :   0.1667-0.3333-0.0000  plane waves:   24088
 k-point 19 :   0.3333-0.3333-0.0000  plane waves:   24098
 k-point 20 :   0.5000-0.3333 0.0000  plane waves:   24052
 k-point 21 :   0.0000-0.1667 0.0000  plane waves:   24102
 k-point 22 :   0.1667-0.1667-0.0000  plane waves:   24108
 k-point 23 :   0.3333-0.1667-0.0000  plane waves:   24104
 k-point 24 :   0.5000-0.1667 0.0000  plane waves:   24124
 k-point 25 :   0.0000 0.0000 0.3333  plane waves:   24068
 k-point 26 :   0.1667 0.0000 0.3333  plane waves:   24116
 k-point 27 :   0.3333 0.0000 0.3333  plane waves:   24096
 k-point 28 :   0.5000 0.0000 0.3333  plane waves:   24132
 k-point 29 :  -0.3333 0.0000 0.3333  plane waves:   24100
 k-point 30 :  -0.1667 0.0000 0.3333  plane waves:   24146
 k-point 31 :   0.0000 0.1667 0.3333  plane waves:   24100
 k-point 32 :   0.1667 0.1667 0.3333  plane waves:   24076
 k-point 33 :   0.3333 0.1667 0.3333  plane waves:   24100
 k-point 34 :   0.5000 0.1667 0.3333  plane waves:   24100
 k-point 35 :  -0.3333 0.1667 0.3333  plane waves:   24070
 k-point 36 :  -0.1667 0.1667 0.3333  plane waves:   24112
 k-point 37 :   0.0000 0.3333 0.3333  plane waves:   24096
 k-point 38 :   0.1667 0.3333 0.3333  plane waves:   24124
 k-point 39 :   0.3333 0.3333 0.3333  plane waves:   24038
 k-point 40 :   0.5000 0.3333 0.3333  plane waves:   24046
 k-point 41 :  -0.3333 0.3333 0.3333  plane waves:   24048
 k-point 42 :  -0.1667 0.3333 0.3333  plane waves:   24066
 k-point 43 :   0.0000 0.5000 0.3333  plane waves:   24148
 k-point 44 :   0.1667 0.5000 0.3333  plane waves:   24104
 k-point 45 :   0.3333 0.5000 0.3333  plane waves:   24072
 k-point 46 :   0.5000 0.5000 0.3333  plane waves:   24036
 k-point 47 :  -0.3333 0.5000 0.3333  plane waves:   24016
 k-point 48 :  -0.1667 0.5000 0.3333  plane waves:   24120
 k-point 49 :   0.0000-0.3333 0.3333  plane waves:   24096
 k-point 50 :   0.1667-0.3333 0.3333  plane waves:   24124
 k-point 51 :   0.3333-0.3333 0.3333  plane waves:   24038
 k-point 52 :   0.5000-0.3333 0.3333  plane waves:   24046
 k-point 53 :  -0.3333-0.3333 0.3333  plane waves:   24048
 k-point 54 :  -0.1667-0.3333 0.3333  plane waves:   24066
 k-point 55 :   0.0000-0.1667 0.3333  plane waves:   24100
 k-point 56 :   0.1667-0.1667 0.3333  plane waves:   24076
 k-point 57 :   0.3333-0.1667 0.3333  plane waves:   24100
 k-point 58 :   0.5000-0.1667 0.3333  plane waves:   24100
 k-point 59 :  -0.3333-0.1667 0.3333  plane waves:   24070
 k-point 60 :  -0.1667-0.1667 0.3333  plane waves:   24112

 maximum and minimum number of plane-waves per node :     24148    24016

 maximum number of plane-waves:     24148
 maximum index in each direction: 
   IXMAX=   11   IYMAX=   11   IZMAX=   22
   IXMIN=  -11   IYMIN=  -11   IZMIN=  -22


 serial   3D FFT for wavefunctions
 parallel 3D FFT for charge:
    minimum data exchange during FFTs selected (reduces bandwidth)


 total amount of memory used by VASP MPI-rank0   410429. kBytes
=======================================================================

   base      :      30000. kBytes
   nonl-proj :     321650. kBytes
   fftplans  :       2735. kBytes
   grid      :      30965. kBytes
   one-center:        995. kBytes
   wavefun   :      24084. kBytes
 
     INWAV:  cpu time   15.6399: real time   15.7670
 Broyden mixing: mesh for mixing (old mesh)
   NGX = 23   NGY = 23   NGZ = 45
  (NGX  = 96   NGY  = 96   NGZ  =180)
  gives a total of  23805 points

 initial charge density was supplied:
 number of electron     172.0000009 magnetization      -0.0000000     -0.0000013     -0.0000000
 keeping initial charge density in first step


--------------------------------------------------------------------------------------------------------


 Maximum index for augmentation-charges          895 (set IRDMAX)


--------------------------------------------------------------------------------------------------------


 First call to EWALD:  gamma=   0.269
 Maximum number of real-space cells 3x 3x 2
 Maximum number of reciprocal cells 2x 2x 4

    FEWALD:  cpu time    0.0015: real time    0.0015


--------------------------------------- Iteration      1(   1)  ---------------------------------------


    POTLOK:  cpu time    0.2421: real time    0.2819
    SETDIJ:  cpu time    0.5887: real time    0.5906
     EDDAV:  cpu time   77.9404: real time   78.4636
 BZINTS: Fermi energy:  5.117978;172.000000 electrons
         Band energy:***********;  BLOECHL correction:  0.000000
       DOS:  cpu time    0.0397: real time    0.0398
    CHARGE:  cpu time    1.4803: real time    1.4929
    MIXING:  cpu time    0.0027: real time    0.0027
    --------------------------------------------
      LOOP:  cpu time   80.2939: real time   80.8715

 eigenvalue-minimisations  : 30720
 total energy-change (2. order) :-0.8196873E+02  (-0.1935473E+00)
 number of electron     172.0000009 magnetization      -0.0000000      0.0004957     -0.0000000
 augmentation part       70.5626629 magnetization      -0.0000000     -0.0005651     -0.0000000

 Broyden mixing:
  rms(total) = 0.78997E-01    rms(broyden)= 0.78996E-01
  rms(prec ) = 0.79061E-01
  weight for this iteration     100.00

 Free energy of the ion-electron system (eV)
  ---------------------------------------------------
  alpha Z        PSCENC =       591.59551155
  Ewald energy   TEWEN  =    -15650.44426492
  -Hartree energ DENC   =    -10718.47377317
  -exchange      EXHF   =         0.00000000
  -V(xc)+E(xc)   XCENC  =       821.62924338
  PAW double counting   =     28045.62542165   -28968.63277467
  entropy T*S    EENTRO =         0.00000000
  eigenvalues    EBANDS =     -2708.28437307
  atomic energy  EATOM  =     28505.01627691
  Solvation  Ediel_sol  =         0.00000000
  ---------------------------------------------------
  free energy    TOTEN  =       -81.96873234 eV

  energy without entropy =      -81.96873234  energy(sigma->0) =      -81.96873234


--------------------------------------------------------------------------------------------------------




--------------------------------------- Iteration      1(   2)  ---------------------------------------


    POTLOK:  cpu time    0.1207: real time    0.1250
    SETDIJ:  cpu time    0.5868: real time    0.5886
     EDDAV:  cpu time   80.9683: real time   81.3955
 BZINTS: Fermi energy:  5.090366;172.000000 electrons
         Band energy:***********;  BLOECHL correction:  0.000000
       DOS:  cpu time    0.0400: real time    0.0401
    CHARGE:  cpu time    1.4721: real time    1.4849
    MIXING:  cpu time    0.0020: real time    0.0132
    --------------------------------------------
      LOOP:  cpu time   83.1897: real time   83.6472

 eigenvalue-minimisations  : 30720
 total energy-change (2. order) :-0.8890264E-02  (-0.6475015E-02)
 number of electron     172.0000009 magnetization      -0.0000000      0.0006049     -0.0000000
 augmentation part       70.5636544 magnetization      -0.0000000     -0.0006803     -0.0000000

 Broyden mixing:
  rms(total) = 0.47315E-01    rms(broyden)= 0.47315E-01
  rms(prec ) = 0.47634E-01
  weight for this iteration     100.00

 eigenvalues of (default mixing * dielectric matrix)
  average eigenvalue GAMMA=   0.6354
  0.6354

 Free energy of the ion-electron system (eV)
  ---------------------------------------------------
  alpha Z        PSCENC =       591.59551155
  Ewald energy   TEWEN  =    -15650.44426492
  -Hartree energ DENC   =    -10718.18311839
  -exchange      EXHF   =         0.00000000
  -V(xc)+E(xc)   XCENC  =       821.61513664
  PAW double counting   =     28046.52958556   -28969.51164285
  entropy T*S    EENTRO =         0.00000000
  eigenvalues    EBANDS =     -2708.59510709
  atomic energy  EATOM  =     28505.01627691
  Solvation  Ediel_sol  =         0.00000000
  ---------------------------------------------------
  free energy    TOTEN  =       -81.97762260 eV

  energy without entropy =      -81.97762260  energy(sigma->0) =      -81.97762260


--------------------------------------------------------------------------------------------------------




--------------------------------------- Iteration      1(   3)  ---------------------------------------


    POTLOK:  cpu time    0.1252: real time    0.1263
    SETDIJ:  cpu time    0.5864: real time    0.5884
     EDDAV:  cpu time  330.3653: real time  331.9513
 BZINTS: Fermi energy:  5.111587;172.000000 electrons
         Band energy:***********;  BLOECHL correction:  0.000000
       DOS:  cpu time    0.0409: real time    0.0411
    CHARGE:  cpu time    1.4744: real time    1.4857
    MIXING:  cpu time    0.0016: real time    0.0016
    --------------------------------------------
      LOOP:  cpu time  332.5939: real time  334.1946

 eigenvalue-minimisations  : 57344
 total energy-change (2. order) :-0.1173635E-02  (-0.1725827E-02)
 number of electron     172.0000009 magnetization      -0.0000000      0.0005763     -0.0000000
 augmentation part       70.5645540 magnetization      -0.0000000     -0.0003736     -0.0000000

 Broyden mixing:
  rms(total) = 0.14367E-01    rms(broyden)= 0.14366E-01
  rms(prec ) = 0.15457E-01
  weight for this iteration     100.00

 eigenvalues of (default mixing * dielectric matrix)
  average eigenvalue GAMMA=   0.5876
  0.6658  0.5094

 Free energy of the ion-electron system (eV)
  ---------------------------------------------------
  alpha Z        PSCENC =       591.59551155
  Ewald energy   TEWEN  =    -15650.44426492
  -Hartree energ DENC   =    -10718.37147475
  -exchange      EXHF   =         0.00000000
  -V(xc)+E(xc)   XCENC  =       821.62431308
  PAW double counting   =     28047.29669564   -28970.29979553
  entropy T*S    EENTRO =         0.00000000
  eigenvalues    EBANDS =     -2708.39605821
  atomic energy  EATOM  =     28505.01627691
  Solvation  Ediel_sol  =         0.00000000
  ---------------------------------------------------
  free energy    TOTEN  =       -81.97879624 eV

  energy without entropy =      -81.97879624  energy(sigma->0) =      -81.97879624


--------------------------------------------------------------------------------------------------------




--------------------------------------- Iteration      1(   4)  ---------------------------------------


    POTLOK:  cpu time    0.1231: real time    0.1271
    SETDIJ:  cpu time    0.5874: real time    0.5892
     EDDAV:  cpu time   89.8313: real time   90.2991
 BZINTS: Fermi energy:  5.085823;172.000000 electrons
         Band energy:***********;  BLOECHL correction:  0.000000
       DOS:  cpu time    0.0410: real time    0.0412
    CHARGE:  cpu time    1.4712: real time    1.4831
    MIXING:  cpu time    0.0017: real time    0.0018
    --------------------------------------------
      LOOP:  cpu time   92.0556: real time   92.5413

 eigenvalue-minimisations  : 31744
 total energy-change (2. order) :-0.3952477E-04  (-0.2852415E-02)
 number of electron     172.0000009 magnetization       0.0000000      0.0001479     -0.0000000
 augmentation part       70.5635349 magnetization       0.0000000     -0.0003099     -0.0000000

 Broyden mixing:
  rms(total) = 0.14092E-01    rms(broyden)= 0.14092E-01
  rms(prec ) = 0.14665E-01
  weight for this iteration     100.00

 eigenvalues of (default mixing * dielectric matrix)
  average eigenvalue GAMMA=   0.7531
  1.3512  0.6264  0.2818

 Free energy of the ion-electron system (eV)
  ---------------------------------------------------
  alpha Z        PSCENC =       591.59551155
  Ewald energy   TEWEN  =    -15650.44426492
  -Hartree energ DENC   =    -10718.20777178
  -exchange      EXHF   =         0.00000000
  -V(xc)+E(xc)   XCENC  =       821.61359527
  PAW double counting   =     28047.75880269   -28970.76703430
  entropy T*S    EENTRO =         0.00000000
  eigenvalues    EBANDS =     -2708.54395117
  atomic energy  EATOM  =     28505.01627691
  Solvation  Ediel_sol  =         0.00000000
  ---------------------------------------------------
  free energy    TOTEN  =       -81.97883576 eV

  energy without entropy =      -81.97883576  energy(sigma->0) =      -81.97883576


--------------------------------------------------------------------------------------------------------




--------------------------------------- Iteration      1(   5)  ---------------------------------------


    POTLOK:  cpu time    0.1253: real time    0.1266
    SETDIJ:  cpu time    0.5876: real time    0.5894
     EDDAV:  cpu time  349.0298: real time  350.6797
 BZINTS: Fermi energy:  5.077204;172.000000 electrons
         Band energy:***********;  BLOECHL correction:  0.000000
       DOS:  cpu time    0.0411: real time    0.0412
 


 total charge     
 
# of ion       s       p       d       tot
------------------------------------------
    1        1.315   2.406   0.000   3.721
    2        1.315   2.406   0.000   3.721
    3        1.317   2.400   0.000   3.717
    4        1.313   2.412   0.000   3.724
    5        1.315   2.406   0.000   3.721
    6        1.315   2.406   0.000   3.721
    7        1.317   2.400   0.000   3.717
    8        1.313   2.412   0.000   3.724
    9        0.259   6.201   8.917  15.377
   10        0.259   6.201   8.917  15.377
   11        0.259   6.201   8.917  15.377
   12        0.259   6.201   8.917  15.377
   13        0.347   6.348   5.825  12.520
   14        0.347   6.348   5.825  12.520
   15        0.347   6.348   5.825  12.520
   16        0.347   6.348   5.825  12.520
--------------------------------------------------
tot         12.941  69.444  58.968 141.353
 


 magnetization (x)
 
# of ion       s       p       d       tot
------------------------------------------
    1       -0.000  -0.000   0.000  -0.000
    2        0.000   0.000   0.000   0.000
    3       -0.000  -0.000   0.000  -0.000
    4       -0.000  -0.000   0.000  -0.000
    5        0.000   0.000   0.000   0.000
    6       -0.000  -0.000   0.000  -0.000
    7       -0.000  -0.000   0.000  -0.000
    8       -0.000  -0.000   0.000  -0.000
    9        0.000  -0.000   0.000   0.000
   10        0.000   0.000  -0.000  -0.000
   11        0.000  -0.000   0.000   0.000
   12        0.000   0.000  -0.000  -0.000
   13        0.000  -0.000   0.000   0.000
   14       -0.000  -0.000  -0.000  -0.001
   15        0.000  -0.000   0.000   0.000
   16       -0.000  -0.000  -0.000  -0.001
--------------------------------------------------
tot         -0.000  -0.000  -0.000  -0.001
 


 magnetization (y)
 
# of ion       s       p       d       tot
------------------------------------------
    1       -0.000  -0.000   0.000  -0.000
    2       -0.000  -0.000   0.000  -0.000
    3       -0.000   0.000   0.000  -0.000
    4        0.000   0.000   0.000   0.000
    5       -0.000  -0.000   0.000  -0.000
    6       -0.000  -0.000   0.000  -0.000
    7       -0.000   0.000   0.000  -0.000
    8        0.000   0.000   0.000   0.000
    9       -0.000   0.000  -0.000  -0.000
   10       -0.000   0.000   0.000   0.000
   11       -0.000   0.000  -0.000  -0.000
   12       -0.000   0.000   0.000   0.000
   13        0.000   0.000  -0.000  -0.000
   14        0.000   0.000  -0.000  -0.000
   15        0.000   0.000  -0.000  -0.000
   16        0.000   0.000  -0.000  -0.000
--------------------------------------------------
tot          0.000   0.000  -0.002  -0.001
 


 magnetization (z)
 
# of ion       s       p       d       tot
------------------------------------------
    1       -0.000  -0.027   0.000  -0.027
    2        0.000   0.027   0.000   0.027
    3        0.000   0.000   0.000   0.000
    4       -0.000  -0.000   0.000  -0.000
    5        0.000   0.027   0.000   0.027
    6       -0.000  -0.027   0.000  -0.027
    7        0.000   0.000   0.000   0.000
    8       -0.000  -0.000   0.000  -0.000
    9        0.000   0.001  -0.004  -0.002
   10       -0.000  -0.001   0.004   0.003
   11        0.000   0.001  -0.004  -0.002
   12       -0.000  -0.001   0.004   0.003
   13        0.020   0.054   3.659   3.734
   14       -0.020  -0.054  -3.659  -3.734
   15        0.020   0.054   3.659   3.734
   16       -0.020  -0.054  -3.659  -3.734
--------------------------------------------------
tot         -0.000  -0.000   0.000   0.000
 
    CHARGE:  cpu time    1.6619: real time    1.6747
    MIXING:  cpu time    0.0018: real time    0.0018
    --------------------------------------------
      LOOP:  cpu time  351.4474: real time  353.1136

 eigenvalue-minimisations  : 58112
 total energy-change (2. order) :-0.3777068E-03  (-0.2611273E-02)
 number of electron     172.0000009 magnetization       0.0000000     -0.0000472     -0.0000000
 augmentation part       70.5643061 magnetization       0.0000000     -0.0008878     -0.0000000

 Broyden mixing:
  rms(total) = 0.82295E-02    rms(broyden)= 0.82293E-02
  rms(prec ) = 0.85386E-02
  weight for this iteration     100.00

 eigenvalues of (default mixing * dielectric matrix)
  average eigenvalue GAMMA=   0.7136
  1.5743  0.6305  0.3679  0.2818

 Free energy of the ion-electron system (eV)
  ---------------------------------------------------
  alpha Z        PSCENC =       591.59551155
  Ewald energy   TEWEN  =    -15650.44426492
  -Hartree energ DENC   =    -10718.23006508
  -exchange      EXHF   =         0.00000000
  -V(xc)+E(xc)   XCENC  =       821.61156687
  PAW double counting   =     28048.93158734   -28971.94880918
  entropy T*S    EENTRO =         0.00000000
  eigenvalues    EBANDS =     -2708.51101694
  atomic energy  EATOM  =     28505.01627691
  Solvation  Ediel_sol  =         0.00000000
  ---------------------------------------------------
  free energy    TOTEN  =       -81.97921347 eV

  energy without entropy =      -81.97921347  energy(sigma->0) =      -81.97921347


--------------------------------------------------------------------------------------------------------




--------------------------------------- Iteration      1(   6)  ---------------------------------------


    POTLOK:  cpu time    0.1248: real time    0.1256
    SETDIJ:  cpu time    0.5876: real time    0.5893
     EDDAV:  cpu time   93.1211: real time   93.6069
 BZINTS: Fermi energy:  5.077716;172.000000 electrons
         Band energy:***********;  BLOECHL correction:  0.000000
       DOS:  cpu time    0.0412: real time    0.0413
    CHARGE:  cpu time    1.4872: real time    1.5004
    MIXING:  cpu time    0.0019: real time    0.0019
    --------------------------------------------
      LOOP:  cpu time   95.3637: real time   95.8654

 eigenvalue-minimisations  : 32000
 total energy-change (2. order) : 0.1954509E-03  (-0.1900124E-02)
 number of electron     172.0000009 magnetization       0.0000000     -0.0005843     -0.0000000
 augmentation part       70.5641718 magnetization       0.0000000     -0.0005323     -0.0000000

 Broyden mixing:
  rms(total) = 0.55231E-02    rms(broyden)= 0.55230E-02
  rms(prec ) = 0.55277E-02
  weight for this iteration     100.00

 eigenvalues of (default mixing * dielectric matrix)
  average eigenvalue GAMMA=   0.7632
  1.8613  0.8071  0.6205  0.3081  0.2191

 Free energy of the ion-electron system (eV)
  ---------------------------------------------------
  alpha Z        PSCENC =       591.59551155
  Ewald energy   TEWEN  =    -15650.44426492
  -Hartree energ DENC   =    -10718.28842323
  -exchange      EXHF   =         0.00000000
  -V(xc)+E(xc)   XCENC  =       821.61441300
  PAW double counting   =     28049.30290947   -28972.32407762
  entropy T*S    EENTRO =         0.00000000
  eigenvalues    EBANDS =     -2708.45136317
  atomic energy  EATOM  =     28505.01627691
  Solvation  Ediel_sol  =         0.00000000
  ---------------------------------------------------
  free energy    TOTEN  =       -81.97901802 eV

  energy without entropy =      -81.97901802  energy(sigma->0) =      -81.97901802


--------------------------------------------------------------------------------------------------------




--------------------------------------- Iteration      1(   7)  ---------------------------------------


    POTLOK:  cpu time    0.1258: real time    0.1268
    SETDIJ:  cpu time    0.5878: real time    0.5896
     EDDAV:  cpu time  199.1829: real time  200.1468
 BZINTS: Fermi energy:  5.077589;172.000000 electrons
         Band energy:***********;  BLOECHL correction:  0.000000
       DOS:  cpu time    0.0410: real time    0.0412
    CHARGE:  cpu time    1.4743: real time    1.4873
    MIXING:  cpu time    0.0020: real time    0.0020
    --------------------------------------------
      LOOP:  cpu time  201.4138: real time  202.3937

 eigenvalue-minimisations  : 42752
 total energy-change (2. order) :-0.6040182E-04  (-0.8930232E-03)
 number of electron     172.0000009 magnetization       0.0000000     -0.0010684     -0.0000000
 augmentation part       70.5637195 magnetization       0.0000000      0.0000603     -0.0000000

 Broyden mixing:
  rms(total) = 0.31894E-02    rms(broyden)= 0.31893E-02
  rms(prec ) = 0.32152E-02
  weight for this iteration     100.00

 eigenvalues of (default mixing * dielectric matrix)
  average eigenvalue GAMMA=   0.7149
  1.9379  0.9173  0.6222  0.2991  0.2991  0.2139

 Free energy of the ion-electron system (eV)
  ---------------------------------------------------
  alpha Z        PSCENC =       591.59551155
  Ewald energy   TEWEN  =    -15650.44426492
  -Hartree energ DENC   =    -10718.31003174
  -exchange      EXHF   =         0.00000000
  -V(xc)+E(xc)   XCENC  =       821.61496947
  PAW double counting   =     28049.56974846   -28972.59259353
  entropy T*S    EENTRO =         0.00000000
  eigenvalues    EBANDS =     -2708.42869461
  atomic energy  EATOM  =     28505.01627691
  Solvation  Ediel_sol  =         0.00000000
  ---------------------------------------------------
  free energy    TOTEN  =       -81.97907842 eV

  energy without entropy =      -81.97907842  energy(sigma->0) =      -81.97907842


--------------------------------------------------------------------------------------------------------




--------------------------------------- Iteration      1(   8)  ---------------------------------------


    POTLOK:  cpu time    0.1224: real time    0.1267
    SETDIJ:  cpu time    0.5870: real time    0.5888
     EDDAV:  cpu time  105.0473: real time  105.5811
 BZINTS: Fermi energy:  5.076637;172.000000 electrons
         Band energy:***********;  BLOECHL correction:  0.000000
       DOS:  cpu time    0.0410: real time    0.0412
    CHARGE:  cpu time    1.4751: real time    1.4875
    MIXING:  cpu time    0.0020: real time    0.0020
    --------------------------------------------
      LOOP:  cpu time  107.2748: real time  107.8273

 eigenvalue-minimisations  : 33280
 total energy-change (2. order) :-0.7956650E-04  (-0.6433135E-03)
 number of electron     172.0000009 magnetization       0.0000000     -0.0013379      0.0000000
 augmentation part       70.5638494 magnetization       0.0000000     -0.0020954      0.0000000

 Broyden mixing:
  rms(total) = 0.29747E-02    rms(broyden)= 0.29746E-02
  rms(prec ) = 0.29771E-02
  weight for this iteration     100.00

 eigenvalues of (default mixing * dielectric matrix)
  average eigenvalue GAMMA=   0.7025
  2.0424  1.0696  0.6215  0.4963  0.3088  0.2213  0.1576

 Free energy of the ion-electron system (eV)
  ---------------------------------------------------
  alpha Z        PSCENC =       591.59551155
  Ewald energy   TEWEN  =    -15650.44426492
  -Hartree energ DENC   =    -10718.29758303
  -exchange      EXHF   =         0.00000000
  -V(xc)+E(xc)   XCENC  =       821.61433310
  PAW double counting   =     28049.57168097   -28972.59289763
  entropy T*S    EENTRO =         0.00000000
  eigenvalues    EBANDS =     -2708.44221493
  atomic energy  EATOM  =     28505.01627691
  Solvation  Ediel_sol  =         0.00000000
  ---------------------------------------------------
  free energy    TOTEN  =       -81.97915798 eV

  energy without entropy =      -81.97915798  energy(sigma->0) =      -81.97915798


--------------------------------------------------------------------------------------------------------




--------------------------------------- Iteration      1(   9)  ---------------------------------------


    POTLOK:  cpu time    0.1269: real time    0.1280
    SETDIJ:  cpu time    0.5880: real time    0.5900
     EDDAV:  cpu time  206.0137: real time  207.0065
 BZINTS: Fermi energy:  5.076982;172.000000 electrons
         Band energy:***********;  BLOECHL correction:  0.000000
       DOS:  cpu time    0.0409: real time    0.0411
    CHARGE:  cpu time    1.4724: real time    1.4834
    MIXING:  cpu time    0.0021: real time    0.0021
    --------------------------------------------
      LOOP:  cpu time  208.2440: real time  209.2511

 eigenvalue-minimisations  : 43520
 total energy-change (2. order) : 0.5226337E-04  (-0.2146930E-03)
 number of electron     172.0000009 magnetization       0.0000000     -0.0017579      0.0000000
 augmentation part       70.5640046 magnetization       0.0000000     -0.0009244      0.0000000

 Broyden mixing:
  rms(total) = 0.13761E-02    rms(broyden)= 0.13760E-02
  rms(prec ) = 0.13911E-02
  weight for this iteration     100.00

 eigenvalues of (default mixing * dielectric matrix)
  average eigenvalue GAMMA=   0.6896
  2.1541  1.1887  0.6120  0.6120  0.2839  0.2839  0.2322  0.1498

 Free energy of the ion-electron system (eV)
  ---------------------------------------------------
  alpha Z        PSCENC =       591.59551155
  Ewald energy   TEWEN  =    -15650.44426492
  -Hartree energ DENC   =    -10718.28779565
  -exchange      EXHF   =         0.00000000
  -V(xc)+E(xc)   XCENC  =       821.61385597
  PAW double counting   =     28049.54991266   -28972.56977207
  entropy T*S    EENTRO =         0.00000000
  eigenvalues    EBANDS =     -2708.45283016
  atomic energy  EATOM  =     28505.01627691
  Solvation  Ediel_sol  =         0.00000000
  ---------------------------------------------------
  free energy    TOTEN  =       -81.97910572 eV

  energy without entropy =      -81.97910572  energy(sigma->0) =      -81.97910572


--------------------------------------------------------------------------------------------------------




--------------------------------------- Iteration      1(  10)  ---------------------------------------


    POTLOK:  cpu time    0.1254: real time    0.1267
    SETDIJ:  cpu time    0.5874: real time    0.5890
     EDDAV:  cpu time  100.2243: real time  100.7406
 BZINTS: Fermi energy:  5.077136;172.000000 electrons
         Band energy:***********;  BLOECHL correction:  0.000000
       DOS:  cpu time    0.0410: real time    0.0411
 


 total charge     
 
# of ion       s       p       d       tot
------------------------------------------
    1        1.315   2.406   0.000   3.721
    2        1.315   2.406   0.000   3.721
    3        1.317   2.400   0.000   3.717
    4        1.313   2.412   0.000   3.724
    5        1.315   2.406   0.000   3.721
    6        1.315   2.406   0.000   3.721
    7        1.317   2.400   0.000   3.717
    8        1.313   2.412   0.000   3.724
    9        0.259   6.201   8.916  15.376
   10        0.259   6.201   8.916  15.376
[...]
     0.0000000     0.0000000     0.0000000     0.0000000     0.0000000     0.0000000     0.0000000

 Ion:    5  E_soc:     -0.0017435
 l=   1
     0.0000000    -0.0002496    -0.0003664
    -0.0002496     0.0000000    -0.0002558
    -0.0003664    -0.0002558     0.0000000
 l=   2
     0.0000000     0.0000000     0.0000000     0.0000000     0.0000000
     0.0000000     0.0000000     0.0000000     0.0000000     0.0000000
     0.0000000     0.0000000     0.0000000     0.0000000     0.0000000
     0.0000000     0.0000000     0.0000000     0.0000000     0.0000000
     0.0000000     0.0000000     0.0000000     0.0000000     0.0000000
 l=   3
     0.0000000     0.0000000     0.0000000     0.0000000     0.0000000     0.0000000     0.0000000
     0.0000000     0.0000000     0.0000000     0.0000000     0.0000000     0.0000000     0.0000000
     0.0000000     0.0000000     0.0000000     0.0000000     0.0000000     0.0000000     0.0000000
     0.0000000     0.0000000     0.0000000     0.0000000     0.0000000     0.0000000     0.0000000
     0.0000000     0.0000000     0.0000000     0.0000000     0.0000000     0.0000000     0.0000000
     0.0000000     0.0000000     0.0000000     0.0000000     0.0000000     0.0000000     0.0000000
     0.0000000     0.0000000     0.0000000     0.0000000     0.0000000     0.0000000     0.0000000

 Ion:    6  E_soc:     -0.0017435
 l=   1
     0.0000000    -0.0002496    -0.0003664
    -0.0002496     0.0000000    -0.0002558
    -0.0003664    -0.0002558     0.0000000
 l=   2
     0.0000000     0.0000000     0.0000000     0.0000000     0.0000000
     0.0000000     0.0000000     0.0000000     0.0000000     0.0000000
     0.0000000     0.0000000     0.0000000     0.0000000     0.0000000
     0.0000000     0.0000000     0.0000000     0.0000000     0.0000000
     0.0000000     0.0000000     0.0000000     0.0000000     0.0000000
 l=   3
     0.0000000     0.0000000     0.0000000     0.0000000     0.0000000     0.0000000     0.0000000
     0.0000000     0.0000000     0.0000000     0.0000000     0.0000000     0.0000000     0.0000000
     0.0000000     0.0000000     0.0000000     0.0000000     0.0000000     0.0000000     0.0000000
     0.0000000     0.0000000     0.0000000     0.0000000     0.0000000     0.0000000     0.0000000
     0.0000000     0.0000000     0.0000000     0.0000000     0.0000000     0.0000000     0.0000000
     0.0000000     0.0000000     0.0000000     0.0000000     0.0000000     0.0000000     0.0000000
     0.0000000     0.0000000     0.0000000     0.0000000     0.0000000     0.0000000     0.0000000

 Ion:    7  E_soc:     -0.0017863
 l=   1
     0.0000000    -0.0002534    -0.0003910
    -0.0002534     0.0000000    -0.0002487
    -0.0003910    -0.0002487     0.0000000
 l=   2
     0.0000000     0.0000000     0.0000000     0.0000000     0.0000000
     0.0000000     0.0000000     0.0000000     0.0000000     0.0000000
     0.0000000     0.0000000     0.0000000     0.0000000     0.0000000
     0.0000000     0.0000000     0.0000000     0.0000000     0.0000000
     0.0000000     0.0000000     0.0000000     0.0000000     0.0000000
 l=   3
     0.0000000     0.0000000     0.0000000     0.0000000     0.0000000     0.0000000     0.0000000
     0.0000000     0.0000000     0.0000000     0.0000000     0.0000000     0.0000000     0.0000000
     0.0000000     0.0000000     0.0000000     0.0000000     0.0000000     0.0000000     0.0000000
     0.0000000     0.0000000     0.0000000     0.0000000     0.0000000     0.0000000     0.0000000
     0.0000000     0.0000000     0.0000000     0.0000000     0.0000000     0.0000000     0.0000000
     0.0000000     0.0000000     0.0000000     0.0000000     0.0000000     0.0000000     0.0000000
     0.0000000     0.0000000     0.0000000     0.0000000     0.0000000     0.0000000     0.0000000

 Ion:    8  E_soc:     -0.0016855
 l=   1
     0.0000000    -0.0002551    -0.0003383
    -0.0002551     0.0000000    -0.0002494
    -0.0003383    -0.0002494     0.0000000
 l=   2
     0.0000000     0.0000000     0.0000000     0.0000000     0.0000000
     0.0000000     0.0000000     0.0000000     0.0000000     0.0000000
     0.0000000     0.0000000     0.0000000     0.0000000     0.0000000
     0.0000000     0.0000000     0.0000000     0.0000000     0.0000000
     0.0000000     0.0000000     0.0000000     0.0000000     0.0000000
 l=   3
     0.0000000     0.0000000     0.0000000     0.0000000     0.0000000     0.0000000     0.0000000
     0.0000000     0.0000000     0.0000000     0.0000000     0.0000000     0.0000000     0.0000000
     0.0000000     0.0000000     0.0000000     0.0000000     0.0000000     0.0000000     0.0000000
     0.0000000     0.0000000     0.0000000     0.0000000     0.0000000     0.0000000     0.0000000
     0.0000000     0.0000000     0.0000000     0.0000000     0.0000000     0.0000000     0.0000000
     0.0000000     0.0000000     0.0000000     0.0000000     0.0000000     0.0000000     0.0000000
     0.0000000     0.0000000     0.0000000     0.0000000     0.0000000     0.0000000     0.0000000

 Ion:    9  E_soc:     -0.0618660
 l=   1
     0.0000000    -0.0085634    -0.0085540
    -0.0085634     0.0000000    -0.0085635
    -0.0085540    -0.0085635     0.0000000
 l=   2
     0.0000000    -0.0004016     0.0000000    -0.0003974    -0.0013585
    -0.0004016     0.0000000    -0.0010692    -0.0002974    -0.0003405
     0.0000000    -0.0010692     0.0000000    -0.0010525     0.0000000
    -0.0003974    -0.0002974    -0.0010525     0.0000000    -0.0003351
    -0.0013585    -0.0003405     0.0000000    -0.0003351     0.0000000
 l=   3
     0.0000000     0.0000000     0.0000000     0.0000000     0.0000000     0.0000000     0.0000000
     0.0000000     0.0000000     0.0000000     0.0000000     0.0000000     0.0000000     0.0000000
     0.0000000     0.0000000     0.0000000     0.0000000     0.0000000     0.0000000     0.0000000
     0.0000000     0.0000000     0.0000000     0.0000000     0.0000000     0.0000000     0.0000000
     0.0000000     0.0000000     0.0000000     0.0000000     0.0000000     0.0000000     0.0000000
     0.0000000     0.0000000     0.0000000     0.0000000     0.0000000     0.0000000     0.0000000
     0.0000000     0.0000000     0.0000000     0.0000000     0.0000000     0.0000000     0.0000000

 Ion:   10  E_soc:     -0.0618660
 l=   1
     0.0000000    -0.0085634    -0.0085540
    -0.0085634     0.0000000    -0.0085635
    -0.0085540    -0.0085635     0.0000000
 l=   2
     0.0000000    -0.0004016     0.0000000    -0.0003974    -0.0013585
    -0.0004016     0.0000000    -0.0010692    -0.0002974    -0.0003405
     0.0000000    -0.0010692     0.0000000    -0.0010525     0.0000000
    -0.0003974    -0.0002974    -0.0010525     0.0000000    -0.0003351
    -0.0013585    -0.0003405     0.0000000    -0.0003351     0.0000000
 l=   3
     0.0000000     0.0000000     0.0000000     0.0000000     0.0000000     0.0000000     0.0000000
     0.0000000     0.0000000     0.0000000     0.0000000     0.0000000     0.0000000     0.0000000
     0.0000000     0.0000000     0.0000000     0.0000000     0.0000000     0.0000000     0.0000000
     0.0000000     0.0000000     0.0000000     0.0000000     0.0000000     0.0000000     0.0000000
     0.0000000     0.0000000     0.0000000     0.0000000     0.0000000     0.0000000     0.0000000
     0.0000000     0.0000000     0.0000000     0.0000000     0.0000000     0.0000000     0.0000000
     0.0000000     0.0000000     0.0000000     0.0000000     0.0000000     0.0000000     0.0000000

 Ion:   11  E_soc:     -0.0618660
 l=   1
     0.0000000    -0.0085634    -0.0085540
    -0.0085634     0.0000000    -0.0085635
    -0.0085540    -0.0085635     0.0000000
 l=   2
     0.0000000    -0.0004016     0.0000000    -0.0003974    -0.0013585
    -0.0004016     0.0000000    -0.0010692    -0.0002974    -0.0003405
     0.0000000    -0.0010692     0.0000000    -0.0010525     0.0000000
    -0.0003974    -0.0002974    -0.0010525     0.0000000    -0.0003351
    -0.0013585    -0.0003405     0.0000000    -0.0003351     0.0000000
 l=   3
     0.0000000     0.0000000     0.0000000     0.0000000     0.0000000     0.0000000     0.0000000
     0.0000000     0.0000000     0.0000000     0.0000000     0.0000000     0.0000000     0.0000000
     0.0000000     0.0000000     0.0000000     0.0000000     0.0000000     0.0000000     0.0000000
     0.0000000     0.0000000     0.0000000     0.0000000     0.0000000     0.0000000     0.0000000
     0.0000000     0.0000000     0.0000000     0.0000000     0.0000000     0.0000000     0.0000000
     0.0000000     0.0000000     0.0000000     0.0000000     0.0000000     0.0000000     0.0000000
     0.0000000     0.0000000     0.0000000     0.0000000     0.0000000     0.0000000     0.0000000

 Ion:   12  E_soc:     -0.0618660
 l=   1
     0.0000000    -0.0085634    -0.0085540
    -0.0085634     0.0000000    -0.0085635
    -0.0085540    -0.0085635     0.0000000
 l=   2
     0.0000000    -0.0004016     0.0000000    -0.0003974    -0.0013585
    -0.0004016     0.0000000    -0.0010692    -0.0002974    -0.0003405
     0.0000000    -0.0010692     0.0000000    -0.0010525     0.0000000
    -0.0003974    -0.0002974    -0.0010525     0.0000000    -0.0003351
    -0.0013585    -0.0003405     0.0000000    -0.0003351     0.0000000
 l=   3
     0.0000000     0.0000000     0.0000000     0.0000000     0.0000000     0.0000000     0.0000000
     0.0000000     0.0000000     0.0000000     0.0000000     0.0000000     0.0000000     0.0000000
     0.0000000     0.0000000     0.0000000     0.0000000     0.0000000     0.0000000     0.0000000
     0.0000000     0.0000000     0.0000000     0.0000000     0.0000000     0.0000000     0.0000000
     0.0000000     0.0000000     0.0000000     0.0000000     0.0000000     0.0000000     0.0000000
     0.0000000     0.0000000     0.0000000     0.0000000     0.0000000     0.0000000     0.0000000
     0.0000000     0.0000000     0.0000000     0.0000000     0.0000000     0.0000000     0.0000000

 Ion:   13  E_soc:     -0.0364957
 l=   1
     0.0000000    -0.0042820    -0.0043111
    -0.0042820     0.0000000    -0.0042801
    -0.0043111    -0.0042801     0.0000000
 l=   2
     0.0000000    -0.0003508     0.0000000    -0.0003526    -0.0009076
    -0.0003508     0.0000000    -0.0013037    -0.0002903    -0.0004246
     0.0000000    -0.0013037     0.0000000    -0.0013140     0.0000000
    -0.0003526    -0.0002903    -0.0013140     0.0000000    -0.0004312
    -0.0009076    -0.0004246     0.0000000    -0.0004312     0.0000000
 l=   3
     0.0000000     0.0000000     0.0000000     0.0000000     0.0000000     0.0000000     0.0000000
     0.0000000     0.0000000     0.0000000     0.0000000     0.0000000     0.0000000     0.0000000
     0.0000000     0.0000000     0.0000000     0.0000000     0.0000000     0.0000000     0.0000000
     0.0000000     0.0000000     0.0000000     0.0000000     0.0000000     0.0000000     0.0000000
     0.0000000     0.0000000     0.0000000     0.0000000     0.0000000     0.0000000     0.0000000
     0.0000000     0.0000000     0.0000000     0.0000000     0.0000000     0.0000000     0.0000000
     0.0000000     0.0000000     0.0000000     0.0000000     0.0000000     0.0000000     0.0000000

 Ion:   14  E_soc:     -0.0364957
 l=   1
     0.0000000    -0.0042820    -0.0043111
    -0.0042820     0.0000000    -0.0042801
    -0.0043111    -0.0042801     0.0000000
 l=   2
     0.0000000    -0.0003508     0.0000000    -0.0003526    -0.0009076
    -0.0003508     0.0000000    -0.0013037    -0.0002903    -0.0004246
     0.0000000    -0.0013037     0.0000000    -0.0013140     0.0000000
    -0.0003526    -0.0002903    -0.0013140     0.0000000    -0.0004312
    -0.0009076    -0.0004246     0.0000000    -0.0004312     0.0000000
 l=   3
     0.0000000     0.0000000     0.0000000     0.0000000     0.0000000     0.0000000     0.0000000
     0.0000000     0.0000000     0.0000000     0.0000000     0.0000000     0.0000000     0.0000000
     0.0000000     0.0000000     0.0000000     0.0000000     0.0000000     0.0000000     0.0000000
     0.0000000     0.0000000     0.0000000     0.0000000     0.0000000     0.0000000     0.0000000
     0.0000000     0.0000000     0.0000000     0.0000000     0.0000000     0.0000000     0.0000000
     0.0000000     0.0000000     0.0000000     0.0000000     0.0000000     0.0000000     0.0000000
     0.0000000     0.0000000     0.0000000     0.0000000     0.0000000     0.0000000     0.0000000

 Ion:   15  E_soc:     -0.0364957
 l=   1
     0.0000000    -0.0042820    -0.0043111
    -0.0042820     0.0000000    -0.0042801
    -0.0043111    -0.0042801     0.0000000
 l=   2
     0.0000000    -0.0003508     0.0000000    -0.0003526    -0.0009076
    -0.0003508     0.0000000    -0.0013037    -0.0002903    -0.0004246
     0.0000000    -0.0013037     0.0000000    -0.0013140     0.0000000
    -0.0003526    -0.0002903    -0.0013140     0.0000000    -0.0004312
    -0.0009076    -0.0004246     0.0000000    -0.0004312     0.0000000
 l=   3
     0.0000000     0.0000000     0.0000000     0.0000000     0.0000000     0.0000000     0.0000000
     0.0000000     0.0000000     0.0000000     0.0000000     0.0000000     0.0000000     0.0000000
     0.0000000     0.0000000     0.0000000     0.0000000     0.0000000     0.0000000     0.0000000
     0.0000000     0.0000000     0.0000000     0.0000000     0.0000000     0.0000000     0.0000000
     0.0000000     0.0000000     0.0000000     0.0000000     0.0000000     0.0000000     0.0000000
     0.0000000     0.0000000     0.0000000     0.0000000     0.0000000     0.0000000     0.0000000
     0.0000000     0.0000000     0.0000000     0.0000000     0.0000000     0.0000000     0.0000000

 Ion:   16  E_soc:     -0.0364957
 l=   1
     0.0000000    -0.0042820    -0.0043111
    -0.0042820     0.0000000    -0.0042801
    -0.0043111    -0.0042801     0.0000000
 l=   2
     0.0000000    -0.0003508     0.0000000    -0.0003526    -0.0009076
    -0.0003508     0.0000000    -0.0013037    -0.0002903    -0.0004246
     0.0000000    -0.0013037     0.0000000    -0.0013140     0.0000000
    -0.0003526    -0.0002903    -0.0013140     0.0000000    -0.0004312
    -0.0009076    -0.0004246     0.0000000    -0.0004312     0.0000000
 l=   3
     0.0000000     0.0000000     0.0000000     0.0000000     0.0000000     0.0000000     0.0000000
     0.0000000     0.0000000     0.0000000     0.0000000     0.0000000     0.0000000     0.0000000
     0.0000000     0.0000000     0.0000000     0.0000000     0.0000000     0.0000000     0.0000000
     0.0000000     0.0000000     0.0000000     0.0000000     0.0000000     0.0000000     0.0000000
     0.0000000     0.0000000     0.0000000     0.0000000     0.0000000     0.0000000     0.0000000
     0.0000000     0.0000000     0.0000000     0.0000000     0.0000000     0.0000000     0.0000000
     0.0000000     0.0000000     0.0000000     0.0000000     0.0000000     0.0000000     0.0000000
 


 total charge     
 
# of ion       s       p       d       tot
------------------------------------------
    1        1.315   2.406   0.000   3.721
    2        1.315   2.406   0.000   3.721
    3        1.317   2.400   0.000   3.717
    4        1.313   2.411   0.000   3.724
    5        1.315   2.406   0.000   3.721
    6        1.315   2.406   0.000   3.721
    7        1.317   2.400   0.000   3.717
    8        1.313   2.411   0.000   3.724
    9        0.259   6.201   8.916  15.376
   10        0.259   6.201   8.916  15.376
   11        0.259   6.201   8.916  15.376
   12        0.259   6.201   8.916  15.376
   13        0.347   6.348   5.826  12.521
   14        0.347   6.348   5.826  12.521
   15        0.347   6.348   5.826  12.521
   16        0.347   6.348   5.826  12.521
--------------------------------------------------
tot         12.941  69.443  58.969 141.353
 


 magnetization (x)
 
# of ion       s       p       d       tot
------------------------------------------
    1       -0.000   0.000   0.000   0.000
    2        0.000  -0.000   0.000  -0.000
    3       -0.000  -0.000   0.000  -0.000
    4       -0.000  -0.000   0.000  -0.000
    5        0.000  -0.000   0.000  -0.000
    6       -0.000   0.000   0.000   0.000
    7       -0.000  -0.000   0.000  -0.000
    8       -0.000  -0.000   0.000  -0.000
    9       -0.000  -0.000   0.000  -0.000
   10        0.000   0.000  -0.000  -0.000
   11       -0.000  -0.000   0.000  -0.000
   12        0.000   0.000  -0.000  -0.000
   13       -0.000  -0.000  -0.020  -0.021
   14        0.000   0.000   0.020   0.021
   15       -0.000  -0.000  -0.020  -0.021
   16        0.000   0.000   0.020   0.021
--------------------------------------------------
tot         -0.000  -0.000  -0.001  -0.001
 


 magnetization (y)
 
# of ion       s       p       d       tot
------------------------------------------
    1       -0.000  -0.000   0.000  -0.000
    2       -0.000  -0.000   0.000  -0.000
    3       -0.000   0.000   0.000   0.000
    4        0.000   0.000   0.000   0.000
    5       -0.000  -0.000   0.000  -0.000
    6       -0.000  -0.000   0.000  -0.000
    7       -0.000   0.000   0.000   0.000
    8        0.000   0.000   0.000   0.000
    9       -0.000   0.000  -0.000  -0.000
   10       -0.000   0.000   0.000   0.000
   11       -0.000   0.000  -0.000  -0.000
   12       -0.000   0.000   0.000   0.000
   13       -0.000  -0.000  -0.003  -0.003
   14       -0.000  -0.000  -0.003  -0.003
   15       -0.000  -0.000  -0.003  -0.003
   16       -0.000  -0.000  -0.003  -0.003
--------------------------------------------------
tot         -0.000  -0.000  -0.013  -0.013
 


 magnetization (z)
 
# of ion       s       p       d       tot
------------------------------------------
    1       -0.000  -0.027   0.000  -0.027
    2        0.000   0.027   0.000   0.027
    3        0.000   0.000   0.000   0.000
    4       -0.000  -0.000   0.000  -0.000
    5        0.000   0.027   0.000   0.027
    6       -0.000  -0.027   0.000  -0.027
    7        0.000   0.000   0.000   0.000
    8       -0.000  -0.000   0.000  -0.000
    9        0.000   0.001  -0.004  -0.002
   10       -0.000  -0.001   0.004   0.003
   11        0.000   0.001  -0.004  -0.002
   12       -0.000  -0.001   0.004   0.003
   13        0.020   0.054   3.659   3.733
   14       -0.020  -0.054  -3.659  -3.733
   15        0.020   0.054   3.659   3.733
   16       -0.020  -0.054  -3.659  -3.733
--------------------------------------------------
tot         -0.000  -0.000   0.000   0.000
 
 BZINTS: Fermi energy:  5.077030;172.000000 electrons
         Band energy:***********;  BLOECHL correction:  0.000000
 BZINTS: Fermi energy:  5.077030;172.000000 electrons
         Band energy:***********;  BLOECHL correction:  0.000000
 BZINTS: Fermi energy:  5.077030;172.000000 electrons
         Band energy:***********;  BLOECHL correction:  0.000000
 BZINTS: Fermi energy:  5.077030;172.000000 electrons
         Band energy:***********;  BLOECHL correction:  0.000000

 total amount of memory used by VASP MPI-rank0   410429. kBytes
=======================================================================

   base      :      30000. kBytes
   nonl-proj :     321650. kBytes
   fftplans  :       2735. kBytes
   grid      :      30965. kBytes
   one-center:        995. kBytes
   wavefun   :      24084. kBytes
 
  
  
 General timing and accounting informations for this job:
 ========================================================
  
                  Total CPU time used (sec):    27279.879
                            User time (sec):    27265.726
                          System time (sec):       14.153
                         Elapsed time (sec):    27566.331
  
                   Maximum memory used (kb):      861760.
                   Average memory used (kb):           0.
  
                          Minor page faults:      2658678
                          Major page faults:         5822
                 Voluntary context switches:         7419
