       N       E                     dE             d eps       ncg     rms          rms(c)
DAV:   1     0.605074552735E+04    0.60507E+04   -0.51616E+05 16384   0.196E+03
DAV:   2    -0.850497697602E+02   -0.61358E+04   -0.60258E+04 18688   0.445E+02
DAV:   3    -0.325891337313E+03   -0.24084E+03   -0.24009E+03 22272   0.962E+01
DAV:   4    -0.329263904324E+03   -0.33726E+01   -0.33724E+01 19968   0.115E+01
DAV:   5    -0.329367362822E+03   -0.10346E+00   -0.10346E+00 21760   0.196E+00    0.109E+01
DAV:   6    -0.327868280390E+03    0.14991E+01   -0.16034E+00 26880   0.436E+00    0.593E+00
DAV:   7    -0.327478715711E+03    0.38956E+00   -0.15757E+00 23552   0.370E+00    0.405E+00
DAV:   8    -0.327421078805E+03    0.57637E-01   -0.17944E+00 23296   0.374E+00    0.376E+00
DAV:   9    -0.327366495274E+03    0.54584E-01   -0.52526E-01 19200   0.198E+00    0.113E+00
DAV:  10    -0.327368400513E+03   -0.19052E-02   -0.21779E-02 22016   0.256E-01    0.665E-01
DAV:  11    -0.327369926595E+03   -0.15261E-02   -0.80148E-03 19200   0.192E-01    0.311E-01
DAV:  12    -0.327371092165E+03   -0.11656E-02   -0.37980E-03 22784   0.100E-01    0.122E-01
DAV:  13    -0.327371257234E+03   -0.16507E-03   -0.42352E-04 18688   0.484E-02    0.746E-02
DAV:  14    -0.327371367030E+03   -0.10980E-03   -0.30307E-04 23040   0.237E-02    0.411E-02
DAV:  15    -0.327371424152E+03   -0.57121E-04   -0.16958E-04 19456   0.143E-02    0.215E-02
DAV:  16    -0.327371438386E+03   -0.14234E-04   -0.37051E-05 22016   0.109E-02    0.160E-02
DAV:  17    -0.327371445196E+03   -0.68097E-05   -0.15943E-05 19456   0.878E-03    0.124E-02
DAV:  18    -0.327371452105E+03   -0.69091E-05   -0.41625E-05 23296   0.906E-03    0.531E-03
DAV:  19    -0.327371453026E+03   -0.92117E-06   -0.71381E-06 19968   0.532E-03    0.376E-03
DAV:  20    -0.327371453152E+03   -0.12603E-06   -0.93466E-07 23040   0.285E-03    0.248E-03
DAV:  21    -0.327371453220E+03   -0.68001E-07   -0.38620E-07 23296   0.173E-03    0.120E-03
DAV:  22    -0.327371453259E+03   -0.39290E-07   -0.15576E-07 23040   0.970E-04    0.625E-04
DAV:  23    -0.327371453271E+03   -0.12253E-07   -0.29272E-08 15616   0.357E-04    0.394E-04
DAV:  24    -0.327371453281E+03   -0.96770E-08   -0.10967E-08 15872   0.208E-04
   1 F= -.32737145E+03 E0= -.32737145E+03  d E =0.000000E+00  mag=     0.0000
