 vasp.5.4.4.18Apr17-6-g9f103f2a35 (build Oct 30 2023 17:30:16) complex          
  
 executed on             LinuxIFC date 2024.06.30  18:50:52
 running on  256 total cores
 distrk:  each k-point on  256 cores,    1 groups
 distr:  one band on NCORES_PER_BAND=   1 cores,  256 groups


--------------------------------------------------------------------------------------------------------


 INCAR:
 POTCAR:    PAW_PBE S 06Sep2000                   
 POTCAR:     PAW_PBE Cu_pv 06Sep2000              
 POTCAR:     PAW_PBE Fe_pv 02Aug2007              

 ----------------------------------------------------------------------------- 
|                                                                             |
|           W    W    AA    RRRRR   N    N  II  N    N   GGGG   !!!           |
|           W    W   A  A   R    R  NN   N  II  NN   N  G    G  !!!           |
|           W    W  A    A  R    R  N N  N  II  N N  N  G       !!!           |
|           W WW W  AAAAAA  RRRRR   N  N N  II  N  N N  G  GGG   !            |
|           WW  WW  A    A  R   R   N   NN  II  N   NN  G    G                |
|           W    W  A    A  R    R  N    N  II  N    N   GGGG   !!!           |
|                                                                             |
|      For optimal performance we recommend to set                            |
|        NCORE= 4 - approx SQRT( number of cores)                             |
|      NCORE specifies how many cores store one orbital (NPAR=cpu/NCORE).     |
|      This setting can  greatly improve the performance of VASP for DFT.     |
|      The default,   NCORE=1            might be grossly inefficient         |
|      on modern multi-core architectures or massively parallel machines.     |
|      Do your own testing !!!!                                               |
|      Unfortunately you need to use the default for GW and RPA calculations. |
|      (for HF NCORE is supported but not extensively tested yet)             |
|                                                                             |
 ----------------------------------------------------------------------------- 

 POTCAR:    PAW_PBE S 06Sep2000                   
   SHA256 =  0fc7481fb0695f01bdc6462160264c5c84044ae9ec85a907d398b887a2bc3132 S/
   COPYR  = (c) Copyright 06Sep2000 Georg Kresse                                
   COPYR  = This file is part of the software VASP. Any use, copying, and all ot
   COPYR  = If you do not have a valid VASP license, you may not use, copy or di
   VRHFIN =S : s2p4                                                             
   LEXCH  = PE                                                                  
   EATOM  =   276.8230 eV,   20.3459 Ry                                         
                                                                                
   TITEL  = PAW_PBE S 06Sep2000                                                 
   LULTRA =        F    use ultrasoft PP ?                                      
   IUNSCR =        1    unscreen: 0-lin 1-nonlin 2-no                           
   RPACOR =    1.500    partial core radius                                     
   POMASS =   32.066; ZVAL   =    6.000    mass and valenz                      
   RCORE  =    1.900    outmost cutoff radius                                   
   RWIGS  =    2.200; RWIGS  =    1.164    wigner-seitz radius (au A)           
   ENMAX  =  258.689; ENMIN  =  194.016 eV                                      
   ICORE  =        2    local potential                                         
   LCOR   =        T    correct aug charges                                     
   LPAW   =        T    paw PP                                                  
   EAUG   =  335.092                                                            
   DEXC   =    0.000                                                            
   RMAX   =    1.942    core radius for proj-oper                               
   RAUG   =    1.300    factor for augmentation sphere                          
   RDEP   =    1.954    radius for radial grids                                 
   RDEPT  =    1.744    core radius for aug-charge                              
                                                                                
   Atomic configuration                                                         
    6 entries                                                                   
     n  l   j            E        occ.                                          
     1  0  0.50     -2405.8406   2.0000                                         
     2  0  0.50      -211.7007   2.0000                                         
     2  1  1.50      -156.4958   6.0000                                         
     3  0  0.50       -17.2562   2.0000                                         
     3  1  0.50        -7.0085   4.0000                                         
     3  2  1.50        -6.8029   0.0000                                         
   Description                                                                  
     l       E           TYP  RCUT    TYP  RCUT                                 
     0    -17.2561641     23  1.900                                             
     0    -15.8743224     23  1.900                                             
     1     -7.0085400     23  1.900                                             
     1     -2.7779785     23  1.900                                             
     2     -6.8029130     23  1.900                                             
  local pseudopotential read in
  partial core-charges read in
  partial kinetic energy density read in
  atomic valenz-charges read in
  non local Contribution for L=           0  read in
    real space projection operators read in
  non local Contribution for L=           0  read in
    real space projection operators read in
  non local Contribution for L=           1  read in
    real space projection operators read in
  non local Contribution for L=           1  read in
    real space projection operators read in
    PAW grid and wavefunctions read in
 
   number of l-projection  operators is LMAX  =           4
   number of lm-projection operators is LMMAX =           8
 
 POTCAR:     PAW_PBE Cu_pv 06Sep2000              
   SHA256 =  cb7b504e2ea725fe1f25c85a9ac77d4012ce94cd394135b722c4e25ec297f1cb Cu
   COPYR  = (c) Copyright 06Sep2000 Georg Kresse                                
   COPYR  = This file is part of the software VASP. Any use, copying, and all ot
   COPYR  = If you do not have a valid VASP license, you may not use, copy or di
   VRHFIN =Cu: d10 p1                                                           
   LEXCH  = PE                                                                  
   EATOM  =  4120.1201 eV,  302.8203 Ry                                         
                                                                                
   TITEL  = PAW_PBE Cu_pv 06Sep2000                                             
   LULTRA =        F    use ultrasoft PP ?                                      
   IUNSCR =        1    unscreen: 0-lin 1-nonlin 2-no                           
   RPACOR =    1.500    partial core radius                                     
   POMASS =   63.546; ZVAL   =   17.000    mass and valenz                      
   RCORE  =    2.000    outmost cutoff radius                                   
   RWIGS  =    2.000; RWIGS  =    1.058    wigner-seitz radius (au A)           
   ENMAX  =  368.648; ENMIN  =  276.486 eV                                      
   RCLOC  =    1.304    cutoff for local pot                                    
   LCOR   =        T    correct aug charges                                     
   LPAW   =        T    paw PP                                                  
   EAUG   =  758.233                                                            
   DEXC   =    0.000                                                            
   RMAX   =    2.046    core radius for proj-oper                               
   RAUG   =    1.300    factor for augmentation sphere                          
   RDEP   =    2.025    radius for radial grids                                 
   RDEPT  =    1.558    core radius for aug-charge                              
                                                                                
   Atomic configuration                                                         
    8 entries                                                                   
     n  l   j            E        occ.                                          
     1  0  0.50     -8850.2467   2.0000                                         
     2  0  0.50     -1062.3498   2.0000                                         
     2  1  1.50      -916.8226   6.0000                                         
     3  0  0.50      -114.6929   2.0000                                         
     3  1  1.50       -72.1325   6.0000                                         
     3  2  2.50        -5.0394  10.0000                                         
     4  0  0.50        -4.6097   1.0000                                         
     4  3  2.50        -1.3606   0.0000                                         
   Description                                                                  
     l       E           TYP  RCUT    TYP  RCUT                                 
     1    -72.1324777     23  1.700                                             
     1     -1.3605826     23  1.700                                             
     2     -5.0393776     23  2.000                                             
     2     -6.3999602     23  2.000                                             
     0     -4.6097062     23  1.800                                             
     0     14.1620818     23  1.800                                             
  local pseudopotential read in
  partial core-charges read in
  partial kinetic energy density read in
  atomic valenz-charges read in
  non local Contribution for L=           1  read in
    real space projection operators read in
  non local Contribution for L=           1  read in
    real space projection operators read in
  non local Contribution for L=           2  read in
    real space projection operators read in
  non local Contribution for L=           2  read in
    real space projection operators read in
  non local Contribution for L=           0  read in
    real space projection operators read in
  non local Contribution for L=           0  read in
    real space projection operators read in
    PAW grid and wavefunctions read in
 
   number of l-projection  operators is LMAX  =           6
   number of lm-projection operators is LMMAX =          18
 
 POTCAR:     PAW_PBE Fe_pv 02Aug2007              
   SHA256 =  5d22e414b1f82158bf2c7ecb8b97b28fd0923e48cadc1c3bf74d524558f5dd32 Fe
   COPYR  = (c) Copyright 02Aug2007 Georg Kresse                                
   COPYR  = This file is part of the software VASP. Any use, copying, and all ot
   COPYR  = If you do not have a valid VASP license, you may not use, copy or di
   VRHFIN =Fe:  3pd7s1                                                          
   LEXCH  = PE                                                                  
   EATOM  =  2457.4239 eV,  180.6156 Ry                                         
                                                                                
   TITEL  = PAW_PBE Fe_pv 02Aug2007                                             
   LULTRA =        F    use ultrasoft PP ?                                      
   IUNSCR =        1    unscreen: 0-lin 1-nonlin 2-no                           
   RPACOR =    1.750    partial core radius                                     
   POMASS =   55.847; ZVAL   =   14.000    mass and valenz                      
   RCORE  =    2.200    outmost cutoff radius                                   
   RWIGS  =    2.200; RWIGS  =    1.164    wigner-seitz radius (au A)           
   ENMAX  =  293.238; ENMIN  =  219.928 eV                                      
   ICORE  =        3    local potential                                         
   LCOR   =        T    correct aug charges                                     
   LPAW   =        T    paw PP                                                  
   EAUG   =  578.342                                                            
   DEXC   =    0.000                                                            
   RMAX   =    2.249    core radius for proj-oper                               
   RAUG   =    1.300    factor for augmentation sphere                          
   RDEP   =    2.296    radius for radial grids                                 
   RDEPT  =    1.766    core radius for aug-charge                              
                                                                                
   Atomic configuration                                                         
    8 entries                                                                   
     n  l   j            E        occ.                                          
     1  0  0.50     -6993.8440   2.0000                                         
     2  0  0.50      -814.6047   2.0000                                         
     2  1  1.50      -693.3689   6.0000                                         
     3  0  0.50       -89.4732   2.0000                                         
     3  1  1.50       -55.6373   6.0000                                         
     3  2  2.50        -3.8151   7.0000                                         
     4  0  0.50        -4.2551   1.0000                                         
     4  3  2.50        -1.3606   0.0000                                         
   Description                                                                  
     l       E           TYP  RCUT    TYP  RCUT                                 
     1    -55.6372668     23  2.000                                             
     1     -5.4423304     23  2.000                                             
     2     -3.8151096     23  2.200                                             
     2     -5.1756922     23  2.200                                             
     0     -4.2550951     23  2.200                                             
     0     27.2116520     23  2.200                                             
     3     -1.3605826     23  2.200                                             
  local pseudopotential read in
  partial core-charges read in
  partial kinetic energy density read in
  atomic valenz-charges read in
  non local Contribution for L=           1  read in
    real space projection operators read in
  non local Contribution for L=           1  read in
    real space projection operators read in
  non local Contribution for L=           2  read in
    real space projection operators read in
  non local Contribution for L=           2  read in
    real space projection operators read in
  non local Contribution for L=           0  read in
    real space projection operators read in
  non local Contribution for L=           0  read in
    real space projection operators read in
    PAW grid and wavefunctions read in
 
   number of l-projection  operators is LMAX  =           6
   number of lm-projection operators is LMMAX =          18
 

 ----------------------------------------------------------------------------- 
|                                                                             |
|  ADVICE TO THIS USER RUNNING 'VASP/VAMP'   (HEAR YOUR MASTER'S VOICE ...):  |
|                                                                             |
|      You have a (more or less) 'large supercell' and for larger cells       |
|      it might be more efficient to use real space projection opertators     |
|      So try LREAL= Auto  in the INCAR   file.                               |
|      Mind:          For very  accurate calculation you might also keep the  |
|      reciprocal projection scheme          (i.e. LREAL=.FALSE.)             |
|                                                                             |
 ----------------------------------------------------------------------------- 


 ----------------------------------------------------------------------------- 
|                                                                             |
|  ADVICE TO THIS USER RUNNING 'VASP/VAMP'   (HEAR YOUR MASTER'S VOICE ...):  |
|                                                                             |
|      You enforced a specific xc-type in the INCAR file,                     |
|      a different type was found on the POTCAR file                          |
|          I HOPE YOU KNOW, WHAT YOU ARE  DOING                               |
|                                                                             |
 ----------------------------------------------------------------------------- 

  PAW_PBE S 06Sep2000                   :
 energy of atom  1       EATOM= -276.8230
 kinetic energy error for atom=    0.0007 (will be added to EATOM!!)
   PAW_PBE Cu_pv 06Sep2000              :
 energy of atom  2       EATOM=-4120.1201
 kinetic energy error for atom=    0.0094 (will be added to EATOM!!)
   PAW_PBE Fe_pv 02Aug2007              :
 energy of atom  3       EATOM=-2457.4239
 kinetic energy error for atom=    0.0025 (will be added to EATOM!!)
 
 
 POSCAR: Fe16 Cu16 S32                           
  positions in direct lattice
  No initial velocities read in
 exchange correlation table for  LEXCH =       14
   RHO(1)=    0.500       N(1)  =     2000
   RHO(2)=  100.500       N(2)  =     4000
 


--------------------------------------------------------------------------------------------------------


 ion  position               nearest neighbor table
   1  0.126  0.120  0.126-  41 2.26  61 2.26  37 2.27  49 2.29
   2  0.626  0.120  0.126-  42 2.26  62 2.26  38 2.27  50 2.29
   3  0.126  0.620  0.126-  43 2.26  63 2.26  39 2.27  51 2.29
   4  0.626  0.620  0.126-  44 2.26  64 2.26  40 2.27  52 2.29
   5  0.374  0.370  0.124-  39 2.26  52 2.26  41 2.27  62 2.29
   6  0.874  0.370  0.124-  40 2.26  51 2.26  42 2.27  61 2.29
   7  0.374  0.870  0.124-  37 2.26  50 2.26  43 2.27  64 2.29
   8  0.874  0.870  0.124-  38 2.26  49 2.26  44 2.27  63 2.29
   9  0.125  0.371  0.875-  41 2.27  45 2.27  51 2.27  55 2.27
  10  0.625  0.371  0.875-  42 2.27  46 2.27  52 2.27  56 2.27
  11  0.125  0.871  0.875-  43 2.27  47 2.27  49 2.27  53 2.27
  12  0.625  0.871  0.875-  44 2.27  48 2.27  50 2.27  54 2.27
  13  0.375  0.122  0.875-  41 2.26  46 2.26  50 2.29  53 2.29
  14  0.875  0.122  0.875-  42 2.26  45 2.26  49 2.29  54 2.29
  15  0.375  0.622  0.875-  43 2.26  48 2.26  52 2.29  55 2.29
  16  0.875  0.622  0.875-  44 2.26  47 2.26  51 2.29  56 2.29
  17  0.124  0.120  0.624-  45 2.26  57 2.26  33 2.27  53 2.29
  18  0.624  0.120  0.624-  46 2.26  58 2.26  34 2.27  54 2.29
  19  0.124  0.620  0.624-  47 2.26  59 2.26  35 2.27  55 2.29
  20  0.624  0.620  0.624-  48 2.26  60 2.26  36 2.27  56 2.29
  21  0.376  0.370  0.626-  36 2.26  55 2.26  46 2.27  57 2.29
  22  0.876  0.370  0.626-  35 2.26  56 2.26  45 2.27  58 2.29
  23  0.376  0.870  0.626-  34 2.26  53 2.26  48 2.27  59 2.29
  24  0.876  0.870  0.626-  33 2.26  54 2.26  47 2.27  60 2.29
  25  0.375  0.121  0.375-  34 2.27  37 2.27  57 2.27  62 2.27
  26  0.875  0.121  0.375-  33 2.27  38 2.27  58 2.27  61 2.27
  27  0.375  0.621  0.375-  36 2.27  39 2.27  59 2.27  64 2.27
  28  0.875  0.621  0.375-  35 2.27  40 2.27  60 2.27  63 2.27
  29  0.125  0.372  0.375-  35 2.26  39 2.26  57 2.29  61 2.29
  30  0.625  0.372  0.375-  36 2.26  40 2.26  58 2.29  62 2.29
  31  0.125  0.872  0.375-  33 2.26  37 2.26  59 2.29  63 2.29
  32  0.625  0.872  0.375-  34 2.26  38 2.26  60 2.29  64 2.29
  33  0.998  0.004  0.500-  24 2.26  31 2.26  26 2.27  17 2.27
  34  0.498  0.004  0.500-  23 2.26  32 2.26  25 2.27  18 2.27
  35  0.998  0.504  0.500-  22 2.26  29 2.26  28 2.27  19 2.27
  36  0.498  0.504  0.500-  21 2.26  30 2.26  27 2.27  20 2.27
  37  0.252  0.004  0.250-   7 2.26  31 2.26  25 2.27   1 2.27
  38  0.752  0.004  0.250-   8 2.26  32 2.26  26 2.27   2 2.27
  39  0.252  0.504  0.250-   5 2.26  29 2.26  27 2.27   3 2.27
  40  0.752  0.504  0.250-   6 2.26  30 2.26  28 2.27   4 2.27
  41  0.248  0.254  1.000-   1 2.26  13 2.26   9 2.27   5 2.27
  42  0.748  0.254  1.000-   2 2.26  14 2.26  10 2.27   6 2.27
  43  0.248  0.754  1.000-   3 2.26  15 2.26  11 2.27   7 2.27
  44  0.748  0.754  1.000-   4 2.26  16 2.26  12 2.27   8 2.27
  45  0.002  0.254  0.750-  17 2.26  14 2.26   9 2.27  22 2.27
  46  0.502  0.254  0.750-  18 2.26  13 2.26  10 2.27  21 2.27
  47  0.002  0.754  0.750-  19 2.26  16 2.26  11 2.27  24 2.27
  48  0.502  0.754  0.750-  20 2.26  15 2.26  12 2.27  23 2.27
  49  0.999  0.004  0.001-   8 2.26  11 2.27  14 2.29   1 2.29
  50  0.499  0.004  0.001-   7 2.26  12 2.27  13 2.29   2 2.29
  51  0.999  0.504  0.001-   6 2.26   9 2.27  16 2.29   3 2.29
  52  0.499  0.504  0.001-   5 2.26  10 2.27  15 2.29   4 2.29
  53  0.251  0.004  0.749-  23 2.26  11 2.27  13 2.29  17 2.29
  54  0.751  0.004  0.749-  24 2.26  12 2.27  14 2.29  18 2.29
  55  0.251  0.504  0.749-  21 2.26   9 2.27  15 2.29  19 2.29
  56  0.751  0.504  0.749-  22 2.26  10 2.27  16 2.29  20 2.29
  57  0.249  0.254  0.501-  17 2.26  25 2.27  29 2.29  21 2.29
  58  0.749  0.254  0.501-  18 2.26  26 2.27  30 2.29  22 2.29
  59  0.249  0.754  0.501-  19 2.26  27 2.27  31 2.29  23 2.29
  60  0.749  0.754  0.501-  20 2.26  28 2.27  32 2.29  24 2.29
  61  0.001  0.254  0.249-   1 2.26  26 2.27  29 2.29   6 2.29
  62  0.501  0.254  0.249-   2 2.26  25 2.27  30 2.29   5 2.29
  63  0.001  0.754  0.249-   3 2.26  28 2.27  31 2.29   8 2.29
  64  0.501  0.754  0.249-   4 2.26  27 2.27  32 2.29   7 2.29
 
  LATTYP: Found a simple monoclinic cell.
 ALAT       =    15.4009611791
 B/A-ratio  =     0.6833296232
 C/A-ratio  =     1.5644459181
 COS(beta)  =    -0.9558441482
  
  Lattice vectors:
  
 A1 = ( -10.9402910000,   0.0000000000, -10.8397250000)
 A2 = (   0.0000000000, -10.5239330000,   0.0000000000)
 A3 = (  11.3761800000,   0.0000000000,  21.2391610000)


Analysis of symmetry for initial positions (statically):
=====================================================================
 Subroutine PRICEL returns following result:
 
  LATTYP: Found a simple monoclinic cell.
 ALAT       =    12.0469854256
 B/A-ratio  =     0.4367869898
 C/A-ratio  =     1.8172986929
 COS(beta)  =    -0.9783979427
  
  Lattice vectors:
  
 A1 = (  -5.6880900000,   0.0000000000, -10.6195805000)
 A2 = (   0.0000000000,  -5.2619665000,   0.0000000000)
 A3 = (   6.1239790000,   0.0000000000,  21.0190165000)
 
   4 primitive cells build up your supercell.
 

 Routine SETGRP: Setting up the symmetry group for a 
 simple monoclinic supercell.


 Subroutine GETGRP returns: Found  2 space group operations
 (whereof  1 operations were pure point group operations)
 out of a pool of  4 trial point group operations.


The static configuration has the point symmetry C_1 .
 The point group associated with its full space group is C_2 .


Analysis of symmetry for dynamics (positions and initial velocities):
=====================================================================
 Subroutine PRICEL returns following result:
 
  LATTYP: Found a simple monoclinic cell.
 ALAT       =    12.0469854256
 B/A-ratio  =     0.4367869898
 C/A-ratio  =     1.8172986929
 COS(beta)  =    -0.9783979427
  
  Lattice vectors:
  
 A1 = (  -5.6880900000,   0.0000000000, -10.6195805000)
 A2 = (   0.0000000000,  -5.2619665000,   0.0000000000)
 A3 = (   6.1239790000,   0.0000000000,  21.0190165000)
 
   4 primitive cells build up your supercell.
 

 Routine SETGRP: Setting up the symmetry group for a 
 simple monoclinic supercell.


 Subroutine GETGRP returns: Found  2 space group operations
 (whereof  1 operations were pure point group operations)
 out of a pool of  4 trial point group operations.


The dynamic configuration has the point symmetry C_1 .
 The point group associated with its full space group is C_2 .


Analysis of structural, dynamic, and magnetic symmetry:
=====================================================================
 Subroutine PRICEL returns following result:
 
  LATTYP: Found a simple monoclinic cell.
 ALAT       =    12.0469854256
 B/A-ratio  =     0.4367869898
 C/A-ratio  =     1.8172986929
 COS(beta)  =    -0.9783979427
  
  Lattice vectors:
  
 A1 = (  -5.6880900000,   0.0000000000, -10.6195805000)
 A2 = (   0.0000000000,  -5.2619665000,   0.0000000000)
 A3 = (   6.1239790000,   0.0000000000,  21.0190165000)
 
   4 primitive cells build up your supercell.
 

 Routine SETGRP: Setting up the symmetry group for a 
 simple monoclinic supercell.


 Subroutine GETGRP returns: Found  2 space group operations
 (whereof  1 operations were pure point group operations)
 out of a pool of  4 trial point group operations.


The magnetic configuration has the point symmetry C_1 .
 The point group associated with its full space group is C_2 .


 Subroutine INISYM returns: Found  2 space group operations
 (whereof  1 operations are pure point group operations),
 and found     4 'primitive' translations

 
 
 KPOINTS: Automatic mesh                          

Automatic generation of k-mesh.
Space group operators:
 irot       det(A)        alpha          n_x          n_y          n_z        tau_x        tau_y        tau_z
    1     1.000000     0.000000     1.000000     0.000000     0.000000     0.000000     0.000000     0.000000
    2     1.000000   180.000000     0.000000     1.000000     0.000000    -0.250000     0.000000    -0.250000
 
 Subroutine IBZKPT returns following result:
 ===========================================
 
 Found      8 irreducible k-points:
 
 Following reciprocal coordinates:
            Coordinates               Weight
  0.000000  0.000000  0.000000      1.000000
  0.500000  0.000000  0.000000      1.000000
  0.000000  0.500000  0.000000      1.000000
  0.500000  0.500000  0.000000      1.000000
  0.000000  0.000000  0.500000      1.000000
  0.500000  0.000000  0.500000      1.000000
  0.000000  0.500000  0.500000      1.000000
  0.500000  0.500000  0.500000      1.000000
 
 Following cartesian coordinates:
            Coordinates               Weight
  0.000000  0.000000  0.000000      1.000000
  0.047683  0.000000 -0.001999      1.000000
  0.000000  0.047511  0.000000      1.000000
  0.047683  0.047511 -0.001999      1.000000
 -0.002019  0.000000  0.048164      1.000000
  0.045664  0.000000  0.046166      1.000000
 -0.002019  0.047511  0.048164      1.000000
  0.045664  0.047511  0.046166      1.000000
 
 TETIRR: Found     24 inequivalent tetrahedra from       48
 
 Subroutine IBZKPT_HF returns following result:
 ==============================================
 
 Found      8 k-points in 1st BZ
 the following      8 k-points will be used (e.g. in the exchange kernel)
 Following reciprocal coordinates:   # in IRBZ
  0.000000  0.000000  0.000000    0.12500000   1 t-inv F
  0.500000  0.000000  0.000000    0.12500000   2 t-inv F
  0.000000  0.500000  0.000000    0.12500000   3 t-inv F
  0.500000  0.500000  0.000000    0.12500000   4 t-inv F
  0.000000  0.000000  0.500000    0.12500000   5 t-inv F
  0.500000  0.000000  0.500000    0.12500000   6 t-inv F
  0.000000  0.500000  0.500000    0.12500000   7 t-inv F
  0.500000  0.500000  0.500000    0.12500000   8 t-inv F


--------------------------------------------------------------------------------------------------------




 Dimension of arrays:
   k-points           NKPTS =      8   k-points in BZ     NKDIM =      8   number of bands    NBANDS=    512
   number of dos      NEDOS =    301   number of ions     NIONS =     64
   non local maximal  LDIM  =      6   non local SUM 2l+1 LMDIM =     18
   total plane-waves  NPLWV = 829440
   max r-space proj   IRMAX =      1   max aug-charges    IRDMAX=  22967
   dimension x,y,z NGX =    96 NGY =   96 NGZ =   90
   dimension x,y,z NGXF=   192 NGYF=  192 NGZF=  180
   support grid    NGXF=   192 NGYF=  192 NGZF=  180
   ions per type =              32  16  16
   NGX,Y,Z   is equivalent  to a cutoff of  15.18, 15.17, 14.37 a.u.
   NGXF,Y,Z  is equivalent  to a cutoff of  30.36, 30.33, 28.75 a.u.

 SYSTEM =  CuFeS2                                  
 POSCAR =  Fe16 Cu16 S32                           

 Startparameter for this run:
   NWRITE =      2    write-flag & timer
   PREC   = accura    normal or accurate (medium, high low for compatibility)
   ISTART =      0    job   : 0-new  1-cont  2-samecut
   ICHARG =      1    charge: 1-file 2-atom 10-const
   ISPIN  =      2    spin polarized calculation?
   LNONCOLLINEAR =      F non collinear calculations
   LSORBIT =      F    spin-orbit coupling
   INIWAV =      1    electr: 0-lowe 1-rand  2-diag
   LASPH  =      F    aspherical Exc in radial PAW
   METAGGA=      F    non-selfconsistent MetaGGA calc.

 Electronic Relaxation 1
   ENCUT  =  700.0 eV  51.45 Ry    7.17 a.u.  22.68 22.70 22.45*2*pi/ulx,y,z
   ENINI  =  700.0     initial cutoff
   ENAUG  =  758.2 eV  augmentation charge cutoff
   NELM   =    500;   NELMIN=  2; NELMDL= -5     # of ELM steps 
   EDIFF  = 0.1E-07   stopping-criterion for ELM
   LREAL  =      F    real-space projection
   NLSPLINE    = F    spline interpolate recip. space projectors
   LCOMPAT=      F    compatible to vasp.4.4
   GGA_COMPAT  = T    GGA compatible to vasp.4.4-vasp.4.6
   LMAXPAW     = -100 max onsite density
   LMAXMIX     =    4 max onsite mixed and CHGCAR
   VOSKOWN=      0    Vosko Wilk Nusair interpolation
   ROPT   =    0.00000   0.00000   0.00000
 Ionic relaxation
   EDIFFG = -.1E-04   stopping-criterion for IOM
   NSW    =      0    number of steps for IOM
   NBLOCK =      1;   KBLOCK =      1    inner block; outer block 
   IBRION =     -1    ionic relax: 0-MD 1-quasi-New 2-CG
   NFREE  =      0    steps in history (QN), initial steepest desc. (CG)
   ISIF   =      2    stress and relaxation
   IWAVPR =     10    prediction:  0-non 1-charg 2-wave 3-comb
   ISYM   =      2    0-nonsym 1-usesym 2-fastsym
   LCORR  =      T    Harris-Foulkes like correction to forces

   POTIM  = 0.5000    time-step for ionic-motion
   TEIN   =    0.0    initial temperature
   TEBEG  =    0.0;   TEEND  =   0.0 temperature during run
   SMASS  =  -3.00    Nose mass-parameter (am)
   estimated Nose-frequenzy (Omega)   =  0.10E-29 period in steps =****** mass=  -0.253E-26a.u.
   SCALEE = 1.0000    scale energy and forces
   NPACO  =    256;   APACO  = 16.0  distance and # of slots for P.C.
   PSTRESS=    0.0 pullay stress

  Mass of Ions in am
   POMASS =  32.07 63.55 55.85
  Ionic Valenz
   ZVAL   =   6.00 17.00 14.00
  Atomic Wigner-Seitz radii
   RWIGS  =  -1.00 -1.00 -1.00
  virtual crystal weights 
   VCA    =   1.00  1.00  1.00
   NELECT =     688.0000    total number of electrons
   NUPDOWN=      -1.0000    fix difference up-down

 DOS related values:
   EMIN   =  10.00;   EMAX   =-10.00  energy-range for DOS
   EFERMI =   0.00
   ISMEAR =    -5;   SIGMA  =   0.03  broadening in eV -4-tet -1-fermi 0-gaus

 Electronic relaxation 2 (details)
   IALGO  =     38    algorithm
   LDIAG  =      T    sub-space diagonalisation (order eigenvalues)
   LSUBROT=      F    optimize rotation matrix (better conditioning)
   TURBO    =      0    0=normal 1=particle mesh
   IRESTART =      0    0=no restart 2=restart with 2 vectors
   NREBOOT  =      0    no. of reboots
   NMIN     =      0    reboot dimension
   EREF     =   0.00    reference energy to select bands
   IMIX   =      4    mixing-type and parameters
     AMIX     =   0.40;   BMIX     =  1.00
     AMIX_MAG =   1.60;   BMIX_MAG =  1.00
     AMIN     =   0.10
     WC   =   100.;   INIMIX=   1;  MIXPRE=   1;  MAXMIX= -45

 Intra band minimization:
   WEIMIN = 0.0000     energy-eigenvalue tresh-hold
   EBREAK =  0.49E-11  absolut break condition
   DEPER  =   0.30     relativ break condition  

   TIME   =   0.40     timestep for ELM

  volume/ion in A,a.u.               =      17.93       121.01
  Fermi-wavevector in a.u.,A,eV,Ry     =   1.380403  2.608583 25.926059  1.905512
  Thomas-Fermi vector in A             =   2.505283
 
 Write flags
   LWAVE        =      T    write WAVECAR
   LDOWNSAMPLE  =      F    k-point downsampling of WAVECAR
   LCHARG       =      T    write CHGCAR
   LVTOT        =      F    write LOCPOT, total local potential
   LVHAR        =      F    write LOCPOT, Hartree potential only
   LELF         =      F    write electronic localiz. function (ELF)
   LORBIT       =     11    0 simple, 1 ext, 2 COOP (PROOUT), +10 PAW based schemes


 Dipole corrections
   LMONO  =      F    monopole corrections only (constant potential shift)
   LDIPOL =      F    correct potential (dipole corrections)
   IDIPOL =      0    1-x, 2-y, 3-z, 4-all directions 
   EPSILON=  1.0000000 bulk dielectric constant

 LDA+U is selected, type is set to LDAUTYPE =  2
   angular momentum for each species LDAUL =     2    2    2
   U (eV)           for each species LDAUU =   0.0  0.1  4.7
   J (eV)           for each species LDAUJ =   0.0  0.0  0.0
 Exchange correlation treatment:
   GGA     =    PS    GGA type
   LEXCH   =    14    internal setting for exchange type
   VOSKOWN=      0    Vosko Wilk Nusair interpolation
   LHFCALC =     F    Hartree Fock is set to
   LHFONE  =     F    Hartree Fock one center treatment
   AEXX    =    0.0000 exact exchange contribution

 Linear response parameters
   LEPSILON=     F    determine dielectric tensor
   LRPA    =     F    only Hartree local field effects (RPA)
   LNABLA  =     F    use nabla operator in PAW spheres
   LVEL    =     F    velocity operator in full k-point grid
   LINTERFAST=   F  fast interpolation
   KINTER  =     0    interpolate to denser k-point grid
   CSHIFT  =0.1000    complex shift for real part using Kramers Kronig
   OMEGAMAX=  -1.0    maximum frequency
   DEG_THRESHOLD= 0.2000000E-02 threshold for treating states as degnerate
   RTIME   =   -0.100 relaxation time in fs
  (WPLASMAI=    0.000 imaginary part of plasma frequency in eV, 0.658/RTIME)
   DFIELD  = 0.0000000 0.0000000 0.0000000 field for delta impulse in time
 
 Orbital magnetization related:
   ORBITALMAG=     F  switch on orbital magnetization
   LCHIMAG   =     F  perturbation theory with respect to B field
   DQ        =  0.001000  dq finite difference perturbation B field
   LLRAUG    =     F  two centre corrections for induced B field

 PEAD related settings:
   LPEAD      =     T    switch on PEAD
   IPEAD      =     4    finite difference order for dpsi/dk
   LCALCPOL   =     T    calculate macroscopic polarization
   LCALCEPS   =     F    calculate dielectric tensor
   EFIELD_PEAD=    0.0000    0.0000    0.0000
   SKIP_EDOTP =     F
   LRPA       =     F
   SKIP_SCF   =     F


--------------------------------------------------------------------------------------------------------


 Static calculation
 charge density and potential will be updated during run
 spin polarized calculation
 Variant of blocked Davidson
 Davidson routine will perform the subspace rotation
 perform sub-space diagonalisation
    after iterative eigenvector-optimisation
 modified Broyden-mixing scheme, WC =      100.0
 initial mixing is a Kerker type mixing with AMIX =  0.4000 and BMIX =      1.0000
 Hartree-type preconditioning will be used
 using additional bands          168
 reciprocal scheme for non local part
 use partial core corrections
 calculate Harris-corrections to forces 
   (improved forces if not selfconsistent)
 use gradient corrections 
 use of overlap-Matrix (Vanderbilt PP)
 Fermi weights with tetrahedron method with Bloechl corrections


--------------------------------------------------------------------------------------------------------


  energy-cutoff  :      700.00
  volume of cell :     1147.61
      direct lattice vectors                 reciprocal lattice vectors
    10.504402000  0.000000000  0.440289000     0.095365727  0.000000000 -0.003997224
     0.000000000 10.523933000  0.000000000     0.000000000  0.095021510  0.000000000
     0.435889000  0.000000000 10.399436000    -0.004037573  0.000000000  0.096328294

  length of vectors
    10.513625244 10.523933000 10.408567065     0.095449461  0.095021510  0.096412874


 
 k-points in units of 2pi/SCALE and weight: Automatic mesh                          
   0.00000000  0.00000000  0.00000000       0.125
   0.04768286  0.00000000 -0.00199861       0.125
   0.00000000  0.04751075  0.00000000       0.125
   0.04768286  0.04751075 -0.00199861       0.125
  -0.00201879  0.00000000  0.04816415       0.125
   0.04566408  0.00000000  0.04616554       0.125
  -0.00201879  0.04751075  0.04816415       0.125
   0.04566408  0.04751075  0.04616554       0.125
 
 k-points in reciprocal lattice and weights: Automatic mesh                          
   0.00000000  0.00000000  0.00000000       0.125
   0.50000000  0.00000000  0.00000000       0.125
   0.00000000  0.50000000  0.00000000       0.125
   0.50000000  0.50000000  0.00000000       0.125
   0.00000000  0.00000000  0.50000000       0.125
   0.50000000  0.00000000  0.50000000       0.125
   0.00000000  0.50000000  0.50000000       0.125
   0.50000000  0.50000000  0.50000000       0.125
 
 position of ions in fractional coordinates (direct lattice) 
   0.12635600  0.11964400  0.12580600
   0.62635600  0.11964400  0.12580600
   0.12635600  0.61964400  0.12580600
   0.62635600  0.61964400  0.12580600
   0.37364400  0.36964400  0.12419400
   0.87364400  0.36964400  0.12419400
   0.37364400  0.86964400  0.12419400
   0.87364400  0.86964400  0.12419400
   0.12500000  0.37064600  0.87500000
   0.62500000  0.37064600  0.87500000
   0.12500000  0.87064600  0.87500000
   0.62500000  0.87064600  0.87500000
   0.37500000  0.12241100  0.87500000
   0.87500000  0.12241100  0.87500000
   0.37500000  0.62241100  0.87500000
   0.87500000  0.62241100  0.87500000
   0.12364400  0.11964400  0.62419400
   0.62364400  0.11964400  0.62419400
   0.12364400  0.61964400  0.62419400
   0.62364400  0.61964400  0.62419400
   0.37635600  0.36964400  0.62580600
   0.87635600  0.36964400  0.62580600
   0.37635600  0.86964400  0.62580600
   0.87635600  0.86964400  0.62580600
   0.37500000  0.12064600  0.37500000
   0.87500000  0.12064600  0.37500000
   0.37500000  0.62064600  0.37500000
   0.87500000  0.62064600  0.37500000
   0.12500000  0.37241100  0.37500000
   0.62500000  0.37241100  0.37500000
   0.12500000  0.87241100  0.37500000
   0.62500000  0.87241100  0.37500000
   0.99813400  0.00449100  0.49999500
   0.49813400  0.00449100  0.49999500
   0.99813400  0.50449100  0.49999500
   0.49813400  0.50449100  0.49999500
   0.25186600  0.00449100  0.25000500
   0.75186600  0.00449100  0.25000500
   0.25186600  0.50449100  0.25000500
   0.75186600  0.50449100  0.25000500
   0.24813400  0.25449100  0.99999500
   0.74813400  0.25449100  0.99999500
   0.24813400  0.75449100  0.99999500
   0.74813400  0.75449100  0.99999500
   0.00186600  0.25449100  0.75000500
   0.50186600  0.25449100  0.75000500
   0.00186600  0.75449100  0.75000500
   0.50186600  0.75449100  0.75000500
   0.99894400  0.00433600  0.00053300
   0.49894400  0.00433600  0.00053300
   0.99894400  0.50433600  0.00053300
   0.49894400  0.50433600  0.00053300
   0.25105600  0.00433600  0.74946700
   0.75105600  0.00433600  0.74946700
   0.25105600  0.50433600  0.74946700
   0.75105600  0.50433600  0.74946700
   0.24894400  0.25433600  0.50053300
   0.74894400  0.25433600  0.50053300
   0.24894400  0.75433600  0.50053300
   0.74894400  0.75433600  0.50053300
   0.00105600  0.25433600  0.24946700
   0.50105600  0.25433600  0.24946700
   0.00105600  0.75433600  0.24946700
   0.50105600  0.75433600  0.24946700
 
 position of ions in cartesian coordinates  (Angst):
   1.38213167  1.25912544  1.36394460
   6.63433267  1.25912544  1.58408910
   1.38213167  6.52109194  1.36394460
   6.63433267  6.52109194  1.58408910
   3.97904158  3.89010869  1.45605890
   9.23124258  3.89010869  1.67620340
   3.97904158  9.15207519  1.45605890
   9.23124258  9.15207519  1.67620340
   1.69445313  3.90065367  9.15454263
   6.94665413  3.90065367  9.37468713
   1.69445313  9.16262017  9.15454263
   6.94665413  9.16262017  9.37468713
   4.32055363  1.28824516  9.26461488
   9.57275463  1.28824516  9.48475938
   4.32055363  6.55021166  9.26461488
   9.57275463  6.55021166  9.48475938
   1.57088558  1.25912544  6.54570465
   6.82308658  1.25912544  6.76584915
   1.57088558  6.52109194  6.54570465
   6.82308658  6.52109194  6.76584915
   4.22617667  3.89010869  6.67373485
   9.47837767  3.89010869  6.89387935
   4.22617667  9.15207519  6.67373485
   9.47837767  9.15207519  6.89387935
   4.10260913  1.26967042  4.06489687
   9.35481013  1.26967042  4.28504137
   4.10260913  6.53163692  4.06489687
   9.35481013  6.53163692  4.28504137
   1.47650863  3.91922841  3.95482462
   6.72870963  3.91922841  4.17496912
   1.47650863  9.18119491  3.95482462
   6.72870963  9.18119491  4.17496912
  10.70274311  0.04726298  5.63913342
   5.45054211  0.04726298  5.41898892
  10.70274311  5.30922948  5.63913342
   5.45054211  5.30922948  5.41898892
   2.75467614  0.04726298  2.71080483
   8.00687714  0.04726298  2.93094933
   2.75467614  5.30922948  2.71080483
   8.00687714  5.30922948  2.93094933
   3.04238611  2.67824623 10.50863467
   8.29458711  2.67824623 10.72877917
   3.04238611  7.94021273 10.50863467
   8.29458711  7.94021273 10.72877917
   0.34652014  2.67824623  7.80045058
   5.59872114  2.67824623  8.02059508
   0.34652014  7.94021273  7.80045058
   5.59872114  7.94021273  8.02059508
  10.49354168  0.04563177  0.44536695
   5.24134068  0.04563177  0.22522245
  10.49354168  5.30759827  0.44536695
   5.24134068  5.30759827  0.22522245
   2.96387757  0.04563177  7.90457130
   8.21607857  0.04563177  8.12471580
   2.96387757  5.30759827  7.90457130
   8.21607857  5.30759827  8.12471580
   2.83318468  2.67661502  5.31486820
   8.08538568  2.67661502  5.53501270
   2.83318468  7.93858152  5.31486820
   8.08538568  7.93858152  5.53501270
   0.11983257  2.67661502  2.59478105
   5.37203357  2.67661502  2.81492555
   0.11983257  7.93858152  2.59478105
   5.37203357  7.93858152  2.81492555
 


--------------------------------------------------------------------------------------------------------


 k-point  1 :   0.0000 0.0000 0.0000  plane waves:   48293
 k-point  2 :   0.5000 0.0000 0.0000  plane waves:   48264
 k-point  3 :   0.0000 0.5000 0.0000  plane waves:   48310
 k-point  4 :   0.5000 0.5000 0.0000  plane waves:   48272
 k-point  5 :   0.0000 0.0000 0.5000  plane waves:   48316
 k-point  6 :   0.5000 0.0000 0.5000  plane waves:   48264
 k-point  7 :   0.0000 0.5000 0.5000  plane waves:   48196
 k-point  8 :   0.5000 0.5000 0.5000  plane waves:   48260

 maximum and minimum number of plane-waves per node :     48316    48196

 maximum number of plane-waves:     48316
 maximum index in each direction: 
   IXMAX=   22   IYMAX=   22   IZMAX=   22
   IXMIN=  -23   IYMIN=  -23   IZMIN=  -22


 serial   3D FFT for wavefunctions
 parallel 3D FFT for charge:
    minimum data exchange during FFTs selected (reduces bandwidth)


 total amount of memory used by VASP MPI-rank0   348353. kBytes
=======================================================================

   base      :      30000. kBytes
   nonl-proj :     216760. kBytes
   fftplans  :       4588. kBytes
   grid      :      69719. kBytes
   one-center:       1990. kBytes
   wavefun   :      25296. kBytes
 
     INWAV:  cpu time    0.0000: real time    0.0000
 Broyden mixing: mesh for mixing (old mesh)
   NGX = 45   NGY = 45   NGZ = 45
  (NGX  =192   NGY  =192   NGZ  =180)
  gives a total of  91125 points

 initial charge density was supplied:
 number of electron     688.0000090 magnetization      -0.0000000
 keeping initial charge density in first step


--------------------------------------------------------------------------------------------------------


 Maximum index for augmentation-charges          896 (set IRDMAX)


--------------------------------------------------------------------------------------------------------


 First call to EWALD:  gamma=   0.169
 Maximum number of real-space cells 3x 3x 3
 Maximum number of reciprocal cells 3x 3x 3

    FEWALD:  cpu time    0.0027: real time    0.0031


--------------------------------------- Iteration      1(   1)  ---------------------------------------


    POTLOK:  cpu time    0.3667: real time    0.4325
    SETDIJ:  cpu time    0.0146: real time    0.0147
     EDDAV:  cpu time   83.7485: real time   84.4539
 BZINTS: Fermi energy: 14.970049;688.000000 electrons
         Band energy:***********;  BLOECHL correction: -0.010181
       DOS:  cpu time    0.0403: real time    0.0405
    --------------------------------------------
      LOOP:  cpu time   84.1701: real time   84.9416

 eigenvalue-minimisations  : 16384
 total energy-change (2. order) : 0.6050746E+04  (-0.5161631E+05)
 number of electron     688.0000090 magnetization      -0.0000000
 augmentation part      688.0000090 magnetization      -0.0000000

 Free energy of the ion-electron system (eV)
  ---------------------------------------------------
  alpha Z        PSCENC =      2362.42536358
  Ewald energy   TEWEN  =    -62552.16878105
  -Hartree energ DENC   =    -42864.24325340
  -exchange      EXHF   =         0.00000000
  -V(xc)+E(xc)   XCENC  =      3285.09551244
  PAW double counting   =    112172.40918864  -115864.60158339
  entropy T*S    EENTRO =         0.00000000
  eigenvalues    EBANDS =     -4508.23602709
  atomic energy  EATOM  =    114020.06510763
  Solvation  Ediel_sol  =         0.00000000
  ---------------------------------------------------
  free energy    TOTEN  =      6050.74552735 eV

  energy without entropy =     6050.74552735  energy(sigma->0) =     6050.74552735


--------------------------------------------------------------------------------------------------------




--------------------------------------- Iteration      1(   2)  ---------------------------------------


     EDDAV:  cpu time  103.9232: real time  104.7196
 BZINTS: Fermi energy:  5.468261;688.000000 electrons
         Band energy:***********;  BLOECHL correction:  0.000000
       DOS:  cpu time    0.0062: real time    0.0062
    --------------------------------------------
      LOOP:  cpu time  103.9293: real time  104.7257

 eigenvalue-minimisations  : 18688
 total energy-change (2. order) :-0.6135795E+04  (-0.6025798E+04)
 number of electron     688.0000090 magnetization      -0.0000000
 augmentation part      688.0000090 magnetization      -0.0000000

 Free energy of the ion-electron system (eV)
  ---------------------------------------------------
  alpha Z        PSCENC =      2362.42536358
  Ewald energy   TEWEN  =    -62552.16878105
  -Hartree energ DENC   =    -42864.24325340
  -exchange      EXHF   =         0.00000000
  -V(xc)+E(xc)   XCENC  =      3285.09551244
  PAW double counting   =    112172.40918864  -115864.60158339
  entropy T*S    EENTRO =         0.00000000
  eigenvalues    EBANDS =    -10644.03132420
  atomic energy  EATOM  =    114020.06510763
  Solvation  Ediel_sol  =         0.00000000
  ---------------------------------------------------
  free energy    TOTEN  =       -85.04976976 eV

  energy without entropy =      -85.04976976  energy(sigma->0) =      -85.04976976


--------------------------------------------------------------------------------------------------------




--------------------------------------- Iteration      1(   3)  ---------------------------------------


     EDDAV:  cpu time  149.7642: real time  150.8139
 BZINTS: Fermi energy:  4.955434;688.000000 electrons
         Band energy:***********;  BLOECHL correction:  0.000000
       DOS:  cpu time    0.0053: real time    0.0053
    --------------------------------------------
      LOOP:  cpu time  149.7695: real time  150.8192

 eigenvalue-minimisations  : 22272
 total energy-change (2. order) :-0.2408416E+03  (-0.2400892E+03)
 number of electron     688.0000090 magnetization      -0.0000000
 augmentation part      688.0000090 magnetization      -0.0000000

 Free energy of the ion-electron system (eV)
  ---------------------------------------------------
  alpha Z        PSCENC =      2362.42536358
  Ewald energy   TEWEN  =    -62552.16878105
  -Hartree energ DENC   =    -42864.24325340
  -exchange      EXHF   =         0.00000000
  -V(xc)+E(xc)   XCENC  =      3285.09551244
  PAW double counting   =    112172.40918864  -115864.60158339
  entropy T*S    EENTRO =         0.00000000
  eigenvalues    EBANDS =    -10884.87289176
  atomic energy  EATOM  =    114020.06510763
  Solvation  Ediel_sol  =         0.00000000
  ---------------------------------------------------
  free energy    TOTEN  =      -325.89133731 eV

  energy without entropy =     -325.89133731  energy(sigma->0) =     -325.89133731


--------------------------------------------------------------------------------------------------------




--------------------------------------- Iteration      1(   4)  ---------------------------------------


     EDDAV:  cpu time  126.0546: real time  126.9615
 BZINTS: Fermi energy:  4.986542;688.000000 electrons
         Band energy:***********;  BLOECHL correction:  0.000000
       DOS:  cpu time    0.0061: real time    0.0061
    --------------------------------------------
      LOOP:  cpu time  126.0607: real time  126.9676

 eigenvalue-minimisations  : 19968
 total energy-change (2. order) :-0.3372567E+01  (-0.3372408E+01)
 number of electron     688.0000090 magnetization      -0.0000000
 augmentation part      688.0000090 magnetization      -0.0000000

 Free energy of the ion-electron system (eV)
  ---------------------------------------------------
  alpha Z        PSCENC =      2362.42536358
  Ewald energy   TEWEN  =    -62552.16878105
  -Hartree energ DENC   =    -42864.24325340
  -exchange      EXHF   =         0.00000000
  -V(xc)+E(xc)   XCENC  =      3285.09551244
  PAW double counting   =    112172.40918864  -115864.60158339
  entropy T*S    EENTRO =         0.00000000
  eigenvalues    EBANDS =    -10888.24545877
  atomic energy  EATOM  =    114020.06510763
  Solvation  Ediel_sol  =         0.00000000
  ---------------------------------------------------
  free energy    TOTEN  =      -329.26390432 eV

  energy without entropy =     -329.26390432  energy(sigma->0) =     -329.26390432


--------------------------------------------------------------------------------------------------------




--------------------------------------- Iteration      1(   5)  ---------------------------------------


     EDDAV:  cpu time  146.2672: real time  147.2946
 BZINTS: Fermi energy:  4.935478;688.000000 electrons
         Band energy:***********;  BLOECHL correction:  0.000000
       DOS:  cpu time    0.0060: real time    0.0060
    CHARGE:  cpu time    1.3523: real time    1.3623
    MIXING:  cpu time    0.0040: real time    0.0041
    --------------------------------------------
      LOOP:  cpu time  147.6296: real time  148.6670

 eigenvalue-minimisations  : 21760
 total energy-change (2. order) :-0.1034585E+00  (-0.1034581E+00)
 number of electron     688.0000125 magnetization      -0.0000000
 augmentation part      282.7879867 magnetization      -0.0000000

 Broyden mixing:
  rms(total) = 0.10895E+01    rms(broyden)= 0.10894E+01
  rms(prec ) = 0.12218E+01
  weight for this iteration     100.00

 Free energy of the ion-electron system (eV)
  ---------------------------------------------------
  alpha Z        PSCENC =      2362.42536358
  Ewald energy   TEWEN  =    -62552.16878105
  -Hartree energ DENC   =    -42864.24325340
  -exchange      EXHF   =         0.00000000
  -V(xc)+E(xc)   XCENC  =      3285.09551244
  PAW double counting   =    112172.40918864  -115864.60158339
  entropy T*S    EENTRO =         0.00000000
  eigenvalues    EBANDS =    -10888.34891726
  atomic energy  EATOM  =    114020.06510763
  Solvation  Ediel_sol  =         0.00000000
  ---------------------------------------------------
  free energy    TOTEN  =      -329.36736282 eV

  energy without entropy =     -329.36736282  energy(sigma->0) =     -329.36736282


--------------------------------------------------------------------------------------------------------




--------------------------------------- Iteration      1(   6)  ---------------------------------------


    POTLOK:  cpu time    0.1200: real time    0.1228
    SETDIJ:  cpu time    0.0127: real time    0.0127
     EDDAV:  cpu time  189.7270: real time  191.0303
 BZINTS: Fermi energy:  4.962847;688.000000 electrons
         Band energy:***********;  BLOECHL correction:  0.000000
       DOS:  cpu time    0.0060: real time    0.0060
    CHARGE:  cpu time    1.5699: real time    1.5806
    MIXING:  cpu time    0.0023: real time    0.0063
    --------------------------------------------
      LOOP:  cpu time  191.4380: real time  192.7587

 eigenvalue-minimisations  : 26880
 total energy-change (2. order) : 0.1499082E+01  (-0.1603395E+00)
 number of electron     688.0000125 magnetization      -0.0000000
 augmentation part      281.8713753 magnetization      -0.0000000

 Broyden mixing:
  rms(total) = 0.59335E+00    rms(broyden)= 0.59334E+00
  rms(prec ) = 0.66406E+00
  weight for this iteration     100.00

 eigenvalues of (default mixing * dielectric matrix)
  average eigenvalue GAMMA=   0.8680
  0.8680

 Free energy of the ion-electron system (eV)
  ---------------------------------------------------
  alpha Z        PSCENC =      2362.42536358
  Ewald energy   TEWEN  =    -62552.16878105
  -Hartree energ DENC   =    -42921.04970779
  -exchange      EXHF   =         0.00000000
  -V(xc)+E(xc)   XCENC  =      3286.90861733
  PAW double counting   =    112416.56790440  -116115.39687756
  entropy T*S    EENTRO =         0.00000000
  eigenvalues    EBANDS =    -10825.21990692
  atomic energy  EATOM  =    114020.06510763
  Solvation  Ediel_sol  =         0.00000000
  ---------------------------------------------------
  free energy    TOTEN  =      -327.86828039 eV

  energy without entropy =     -327.86828039  energy(sigma->0) =     -327.86828039


--------------------------------------------------------------------------------------------------------




--------------------------------------- Iteration      1(   7)  ---------------------------------------


    POTLOK:  cpu time    0.1370: real time    0.1381
    SETDIJ:  cpu time    0.0162: real time    0.0163
     EDDAV:  cpu time  154.6219: real time  155.7226
 BZINTS: Fermi energy:  4.934626;688.000000 electrons
         Band energy:***********;  BLOECHL correction:  0.000000
       DOS:  cpu time    0.0059: real time    0.0059
    CHARGE:  cpu time    1.3470: real time    1.3551
    MIXING:  cpu time    0.0015: real time    0.0036
    --------------------------------------------
      LOOP:  cpu time  156.1296: real time  157.2415

 eigenvalue-minimisations  : 23552
 total energy-change (2. order) : 0.3895647E+00  (-0.1575685E+00)
 number of electron     688.0000125 magnetization      -0.0000000
 augmentation part      282.5387570 magnetization      -0.0000000

 Broyden mixing:
  rms(total) = 0.40473E+00    rms(broyden)= 0.40472E+00
  rms(prec ) = 0.45641E+00
  weight for this iteration     100.00

 eigenvalues of (default mixing * dielectric matrix)
  average eigenvalue GAMMA=   1.1004
  1.6036  0.5971

 Free energy of the ion-electron system (eV)
  ---------------------------------------------------
  alpha Z        PSCENC =      2362.42536358
  Ewald energy   TEWEN  =    -62552.16878105
  -Hartree energ DENC   =    -42873.44255356
  -exchange      EXHF   =         0.00000000
  -V(xc)+E(xc)   XCENC  =      3285.68527670
  PAW double counting   =    112301.87282301  -115991.45553612
  entropy T*S    EENTRO =         0.00000000
  eigenvalues    EBANDS =    -10880.46041590
  atomic energy  EATOM  =    114020.06510763
  Solvation  Ediel_sol  =         0.00000000
  ---------------------------------------------------
  free energy    TOTEN  =      -327.47871571 eV

  energy without entropy =     -327.47871571  energy(sigma->0) =     -327.47871571


--------------------------------------------------------------------------------------------------------




--------------------------------------- Iteration      1(   8)  ---------------------------------------


    POTLOK:  cpu time    0.1220: real time    0.1229
    SETDIJ:  cpu time    0.0127: real time    0.0128
     EDDAV:  cpu time  162.3782: real time  163.5091
 BZINTS: Fermi energy:  4.969397;688.000000 electrons
         Band energy:***********;  BLOECHL correction:  0.000000
       DOS:  cpu time    0.0059: real time    0.0059
    CHARGE:  cpu time    1.3447: real time    1.3537
    MIXING:  cpu time    0.0013: real time    0.0013
    --------------------------------------------
      LOOP:  cpu time  163.8647: real time  165.0056

 eigenvalue-minimisations  : 23296
 total energy-change (2. order) : 0.5763691E-01  (-0.1794376E+00)
 number of electron     688.0000125 magnetization       0.0000000
 augmentation part      282.3968518 magnetization       0.0000000

 Broyden mixing:
  rms(total) = 0.37629E+00    rms(broyden)= 0.37628E+00
  rms(prec ) = 0.44271E+00
  weight for this iteration     100.00

 eigenvalues of (default mixing * dielectric matrix)
  average eigenvalue GAMMA=   0.8699
  1.7171  0.5789  0.3137

 Free energy of the ion-electron system (eV)
  ---------------------------------------------------
  alpha Z        PSCENC =      2362.42536358
  Ewald energy   TEWEN  =    -62552.16878105
  -Hartree energ DENC   =    -42902.84303418
  -exchange      EXHF   =         0.00000000
  -V(xc)+E(xc)   XCENC  =      3286.90754230
  PAW double counting   =    112286.67944698  -115979.37237252
  entropy T*S    EENTRO =         0.00000000
  eigenvalues    EBANDS =    -10849.11435154
  atomic energy  EATOM  =    114020.06510763
  Solvation  Ediel_sol  =         0.00000000
  ---------------------------------------------------
  free energy    TOTEN  =      -327.42107880 eV

  energy without entropy =     -327.42107880  energy(sigma->0) =     -327.42107880


--------------------------------------------------------------------------------------------------------




--------------------------------------- Iteration      1(   9)  ---------------------------------------


    POTLOK:  cpu time    0.1205: real time    0.1247
    SETDIJ:  cpu time    0.0127: real time    0.0128
     EDDAV:  cpu time  113.7153: real time  114.5618
 BZINTS: Fermi energy:  4.953441;688.000000 electrons
         Band energy:***********;  BLOECHL correction:  0.000000
       DOS:  cpu time    0.0059: real time    0.0060
    CHARGE:  cpu time    1.3458: real time    1.3561
    MIXING:  cpu time    0.0015: real time    0.0029
    --------------------------------------------
      LOOP:  cpu time  115.2019: real time  116.0642

 eigenvalue-minimisations  : 19200
 total energy-change (2. order) : 0.5458353E-01  (-0.5252611E-01)
 number of electron     688.0000125 magnetization       0.0000000
 augmentation part      282.2669906 magnetization       0.0000000

 Broyden mixing:
  rms(total) = 0.11301E+00    rms(broyden)= 0.11300E+00
  rms(prec ) = 0.11627E+00
  weight for this iteration     100.00

 eigenvalues of (default mixing * dielectric matrix)
  average eigenvalue GAMMA=   0.8787
  1.9487  0.7240  0.4989  0.3434

 Free energy of the ion-electron system (eV)
  ---------------------------------------------------
  alpha Z        PSCENC =      2362.42536358
  Ewald energy   TEWEN  =    -62552.16878105
  -Hartree energ DENC   =    -42900.90522152
  -exchange      EXHF   =         0.00000000
  -V(xc)+E(xc)   XCENC  =      3286.52969702
  PAW double counting   =    112279.60942364  -115972.94259514
  entropy T*S    EENTRO =         0.00000000
  eigenvalues    EBANDS =    -10849.97948942
  atomic energy  EATOM  =    114020.06510763
  Solvation  Ediel_sol  =         0.00000000
  ---------------------------------------------------
  free energy    TOTEN  =      -327.36649527 eV

  energy without entropy =     -327.36649527  energy(sigma->0) =     -327.36649527


--------------------------------------------------------------------------------------------------------




--------------------------------------- Iteration      1(  10)  ---------------------------------------


    POTLOK:  cpu time    0.1210: real time    0.1240
    SETDIJ:  cpu time    0.0127: real time    0.0128
     EDDAV:  cpu time  151.1231: real time  152.1786
 BZINTS: Fermi energy:  4.952898;688.000000 electrons
         Band energy:***********;  BLOECHL correction:  0.000000
       DOS:  cpu time    0.0059: real time    0.0059
    CHARGE:  cpu time    1.3449: real time    1.3528
    MIXING:  cpu time    0.0013: real time    0.0013
    --------------------------------------------
      LOOP:  cpu time  152.6088: real time  153.6754

 eigenvalue-minimisations  : 22016
 total energy-change (2. order) :-0.1905239E-02  (-0.2177857E-02)
 number of electron     688.0000125 magnetization       0.0000000
 augmentation part      282.2037876 magnetization       0.0000000

 Broyden mixing:
  rms(total) = 0.66453E-01    rms(broyden)= 0.66452E-01
  rms(prec ) = 0.68920E-01
  weight for this iteration     100.00

 eigenvalues of (default mixing * dielectric matrix)
  average eigenvalue GAMMA=   0.9690
  1.7703  1.5349  0.6630  0.5396  0.3370

 Free energy of the ion-electron system (eV)
  ---------------------------------------------------
  alpha Z        PSCENC =      2362.42536358
  Ewald energy   TEWEN  =    -62552.16878105
  -Hartree energ DENC   =    -42903.21831682
  -exchange      EXHF   =         0.00000000
  -V(xc)+E(xc)   XCENC  =      3286.55430710
  PAW double counting   =    112269.66019417  -115962.97934271
  entropy T*S    EENTRO =         0.00000000
  eigenvalues    EBANDS =    -10847.70693241
  atomic energy  EATOM  =    114020.06510763
  Solvation  Ediel_sol  =         0.00000000
  ---------------------------------------------------
  free energy    TOTEN  =      -327.36840051 eV

  energy without entropy =     -327.36840051  energy(sigma->0) =     -327.36840051


--------------------------------------------------------------------------------------------------------




--------------------------------------- Iteration      1(  11)  ---------------------------------------


    POTLOK:  cpu time    0.1240: real time    0.1252
    SETDIJ:  cpu time    0.0128: real time    0.0128
     EDDAV:  cpu time  118.1915: real time  119.0545
 BZINTS: Fermi energy:  4.951357;688.000000 electrons
         Band energy:***********;  BLOECHL correction:  0.000000
       DOS:  cpu time    0.0059: real time    0.0059
    CHARGE:  cpu time    1.3465: real time    1.3551
    MIXING:  cpu time    0.0017: real time    0.0017
    --------------------------------------------
      LOOP:  cpu time  119.6823: real time  120.5552

 eigenvalue-minimisations  : 19200
 total energy-change (2. order) :-0.1526082E-02  (-0.8014831E-03)
 number of electron     688.0000125 magnetization       0.0000000
 augmentation part      282.2509845 magnetization       0.0000000

 Broyden mixing:
  rms(total) = 0.31121E-01    rms(broyden)= 0.31121E-01
  rms(prec ) = 0.31727E-01
  weight for this iteration     100.00

 eigenvalues of (default mixing * dielectric matrix)
  average eigenvalue GAMMA=   1.1239
  2.1476  2.1476  0.8634  0.6258  0.6258  0.3335

 Free energy of the ion-electron system (eV)
  ---------------------------------------------------
  alpha Z        PSCENC =      2362.42536358
  Ewald energy   TEWEN  =    -62552.16878105
  -Hartree energ DENC   =    -42900.54211064
  -exchange      EXHF   =         0.00000000
  -V(xc)+E(xc)   XCENC  =      3286.47753840
  PAW double counting   =    112246.81171482  -115939.50164616
  entropy T*S    EENTRO =         0.00000000
  eigenvalues    EBANDS =    -10850.93711317
  atomic energy  EATOM  =    114020.06510763
  Solvation  Ediel_sol  =         0.00000000
  ---------------------------------------------------
  free energy    TOTEN  =      -327.36992659 eV

  energy without entropy =     -327.36992659  energy(sigma->0) =     -327.36992659


--------------------------------------------------------------------------------------------------------




--------------------------------------- Iteration      1(  12)  ---------------------------------------


    POTLOK:  cpu time    0.1328: real time    0.1353
    SETDIJ:  cpu time    0.0129: real time    0.0130
     EDDAV:  cpu time  160.3608: real time  161.4613
 BZINTS: Fermi energy:  4.951810;688.000000 electrons
         Band energy:***********;  BLOECHL correction:  0.000000
       DOS:  cpu time    0.0059: real time    0.0059
    CHARGE:  cpu time    1.5675: real time    1.5761
    MIXING:  cpu time    0.0017: real time    0.0018
    --------------------------------------------
      LOOP:  cpu time  162.0816: real time  163.1933

 eigenvalue-minimisations  : 22784
 total energy-change (2. order) :-0.1165570E-02  (-0.3797966E-03)
 number of electron     688.0000125 magnetization       0.0000000
 augmentation part      282.2307717 magnetization       0.0000000

 Broyden mixing:
  rms(total) = 0.12208E-01    rms(broyden)= 0.12207E-01
  rms(prec ) = 0.12857E-01
  weight for this iteration     100.00

 eigenvalues of (default mixing * dielectric matrix)
  average eigenvalue GAMMA=   1.1017
  2.2270  2.2270  0.9765  0.3334  0.7081  0.6202  0.6202

 Free energy of the ion-electron system (eV)
  ---------------------------------------------------
  alpha Z        PSCENC =      2362.42536358
  Ewald energy   TEWEN  =    -62552.16878105
  -Hartree energ DENC   =    -42901.93184267
  -exchange      EXHF   =         0.00000000
  -V(xc)+E(xc)   XCENC  =      3286.51619401
  PAW double counting   =    112228.16286484  -115921.06674434
  entropy T*S    EENTRO =         0.00000000
  eigenvalues    EBANDS =    -10849.37325416
  atomic energy  EATOM  =    114020.06510763
  Solvation  Ediel_sol  =         0.00000000
  ---------------------------------------------------
  free energy    TOTEN  =      -327.37109216 eV

  energy without entropy =     -327.37109216  energy(sigma->0) =     -327.37109216


--------------------------------------------------------------------------------------------------------




--------------------------------------- Iteration      1(  13)  ---------------------------------------


    POTLOK:  cpu time    0.1331: real time    0.1344
    SETDIJ:  cpu time    0.0148: real time    0.0149
     EDDAV:  cpu time  113.5237: real time  114.3590
 BZINTS: Fermi energy:  4.951115;688.000000 electrons
         Band energy:***********;  BLOECHL correction:  0.000000
       DOS:  cpu time    0.0059: real time    0.0059
    CHARGE:  cpu time    1.3474: real time    1.3557
    MIXING:  cpu time    0.0016: real time    0.0016
    --------------------------------------------
      LOOP:  cpu time  115.0265: real time  115.8714

 eigenvalue-minimisations  : 18688
 total energy-change (2. order) :-0.1650694E-03  (-0.4235230E-04)
 number of electron     688.0000125 magnetization       0.0000000
 augmentation part      282.2417288 magnetization       0.0000000

 Broyden mixing:
  rms(total) = 0.74606E-02    rms(broyden)= 0.74604E-02
  rms(prec ) = 0.78756E-02
  weight for this iteration     100.00

 eigenvalues of (default mixing * dielectric matrix)
  average eigenvalue GAMMA=   1.1083
  2.2536  2.2536  1.0797  1.0797  0.3334  0.5968  0.5968  0.6730

 Free energy of the ion-electron system (eV)
  ---------------------------------------------------
  alpha Z        PSCENC =      2362.42536358
  Ewald energy   TEWEN  =    -62552.16878105
  -Hartree energ DENC   =    -42901.23309204
  -exchange      EXHF   =         0.00000000
  -V(xc)+E(xc)   XCENC  =      3286.50055304
  PAW double counting   =    112223.03202249  -115915.82946250
  entropy T*S    EENTRO =         0.00000000
  eigenvalues    EBANDS =    -10850.16296838
  atomic energy  EATOM  =    114020.06510763
  Solvation  Ediel_sol  =         0.00000000
  ---------------------------------------------------
  free energy    TOTEN  =      -327.37125723 eV

  energy without entropy =     -327.37125723  energy(sigma->0) =     -327.37125723


--------------------------------------------------------------------------------------------------------




--------------------------------------- Iteration      1(  14)  ---------------------------------------


    POTLOK:  cpu time    0.1189: real time    0.1224
    SETDIJ:  cpu time    0.0127: real time    0.0127
     EDDAV:  cpu time  163.9911: real time  165.1191
 BZINTS: Fermi energy:  4.950857;688.000000 electrons
         Band energy:***********;  BLOECHL correction:  0.000000
       DOS:  cpu time    0.0059: real time    0.0059
    CHARGE:  cpu time    1.3443: real time    1.3543
    MIXING:  cpu time    0.0016: real time    0.0016
    --------------------------------------------
      LOOP:  cpu time  165.4745: real time  166.6161

 eigenvalue-minimisations  : 23040
 total energy-change (2. order) :-0.1097959E-03  (-0.3030749E-04)
 number of electron     688.0000125 magnetization       0.0000000
 augmentation part      282.2368838 magnetization       0.0000000

 Broyden mixing:
  rms(total) = 0.41063E-02    rms(broyden)= 0.41061E-02
  rms(prec ) = 0.43515E-02
  weight for this iteration     100.00

 eigenvalues of (default mixing * dielectric matrix)
  average eigenvalue GAMMA=   1.1912
  2.4281  2.4281  1.4777  1.4777  0.3334  0.5945  0.5945  0.6933  0.6933

 Free energy of the ion-electron system (eV)
  ---------------------------------------------------
  alpha Z        PSCENC =      2362.42536358
  Ewald energy   TEWEN  =    -62552.16878105
  -Hartree energ DENC   =    -42901.46659698
  -exchange      EXHF   =         0.00000000
  -V(xc)+E(xc)   XCENC  =      3286.50521231
  PAW double counting   =    112219.99982853  -115912.86844043
  entropy T*S    EENTRO =         0.00000000
  eigenvalues    EBANDS =    -10849.86306061
  atomic energy  EATOM  =    114020.06510763
  Solvation  Ediel_sol  =         0.00000000
  ---------------------------------------------------
  free energy    TOTEN  =      -327.37136703 eV

  energy without entropy =     -327.37136703  energy(sigma->0) =     -327.37136703


--------------------------------------------------------------------------------------------------------




--------------------------------------- Iteration      1(  15)  ---------------------------------------


    POTLOK:  cpu time    0.1197: real time    0.1236
    SETDIJ:  cpu time    0.0130: real time    0.0130
     EDDAV:  cpu time  120.6298: real time  121.5084
 BZINTS: Fermi energy:  4.950630;688.000000 electrons
         Band energy:***********;  BLOECHL correction:  0.000000
       DOS:  cpu time    0.0059: real time    0.0059
    CHARGE:  cpu time    1.3481: real time    1.3577
    MIXING:  cpu time    0.0018: real time    0.0018
    --------------------------------------------
      LOOP:  cpu time  122.1182: real time  123.0104

 eigenvalue-minimisations  : 19456
 total energy-change (2. order) :-0.5712149E-04  (-0.1695786E-04)
 number of electron     688.0000125 magnetization       0.0000000
 augmentation part      282.2371237 magnetization       0.0000000

 Broyden mixing:
  rms(total) = 0.21544E-02    rms(broyden)= 0.21541E-02
  rms(prec ) = 0.23673E-02
  weight for this iteration     100.00

 eigenvalues of (default mixing * dielectric matrix)
  average eigenvalue GAMMA=   1.1814
  2.6755  2.3717  1.7779  1.2270  0.3334  0.9384  0.5903  0.5903  0.7042  0.6056

 Free energy of the ion-electron system (eV)
  ---------------------------------------------------
  alpha Z        PSCENC =      2362.42536358
  Ewald energy   TEWEN  =    -62552.16878105
  -Hartree energ DENC   =    -42901.44316587
  -exchange      EXHF   =         0.00000000
  -V(xc)+E(xc)   XCENC  =      3286.50644545
  PAW double counting   =    112218.08029269  -115910.96138101
  entropy T*S    EENTRO =         0.00000000
  eigenvalues    EBANDS =    -10849.87530557
  atomic energy  EATOM  =    114020.06510763
  Solvation  Ediel_sol  =         0.00000000
  ---------------------------------------------------
  free energy    TOTEN  =      -327.37142415 eV

  energy without entropy =     -327.37142415  energy(sigma->0) =     -327.37142415


--------------------------------------------------------------------------------------------------------




--------------------------------------- Iteration      1(  16)  ---------------------------------------


    POTLOK:  cpu time    0.1231: real time    0.1241
    SETDIJ:  cpu time    0.0131: real time    0.0131
     EDDAV:  cpu time  155.3292: real time  156.4012
 BZINTS: Fermi energy:  4.950452;688.000000 electrons
         Band energy:***********;  BLOECHL correction:  0.000000
       DOS:  cpu time    0.0059: real time    0.0060
    CHARGE:  cpu time    1.3463: real time    1.3558
    MIXING:  cpu time    0.0018: real time    0.0025
    --------------------------------------------
      LOOP:  cpu time  156.8194: real time  157.9028

 eigenvalue-minimisations  : 22016
 total energy-change (2. order) :-0.1423413E-04  (-0.3705095E-05)
 number of electron     688.0000125 magnetization       0.0000000
 augmentation part      282.2385848 magnetization       0.0000000

 Broyden mixing:
  rms(total) = 0.16029E-02    rms(broyden)= 0.16028E-02
  rms(prec ) = 0.16995E-02
  weight for this iteration     100.00

 eigenvalues of (default mixing * dielectric matrix)
  average eigenvalue GAMMA=   1.1516
  2.8582  2.2553  1.9450  1.1261  1.1261  0.3334  0.7085  0.6607  0.5955  0.5955
  0.4633

 Free energy of the ion-electron system (eV)
  ---------------------------------------------------
  alpha Z        PSCENC =      2362.42536358
  Ewald energy   TEWEN  =    -62552.16878105
  -Hartree energ DENC   =    -42901.38861572
  -exchange      EXHF   =         0.00000000
  -V(xc)+E(xc)   XCENC  =      3286.50628561
  PAW double counting   =    112217.49893561  -115910.37179391
  entropy T*S    EENTRO =         0.00000000
  eigenvalues    EBANDS =    -10849.93794013
  atomic energy  EATOM  =    114020.06510763
  Solvation  Ediel_sol  =         0.00000000
  ---------------------------------------------------
  free energy    TOTEN  =      -327.37143839 eV

  energy without entropy =     -327.37143839  energy(sigma->0) =     -327.37143839


--------------------------------------------------------------------------------------------------------




--------------------------------------- Iteration      1(  17)  ---------------------------------------


    POTLOK:  cpu time    0.1197: real time    0.1234
    SETDIJ:  cpu time    0.0126: real time    0.0127
     EDDAV:  cpu time  120.8471: real time  121.7231
 BZINTS: Fermi energy:  4.950383;688.000000 electrons
         Band energy:***********;  BLOECHL correction:  0.000000
       DOS:  cpu time    0.0059: real time    0.0059
    CHARGE:  cpu time    1.3442: real time    1.3543
    MIXING:  cpu time    0.0019: real time    0.0019
    --------------------------------------------
      LOOP:  cpu time  122.3314: real time  123.2213

 eigenvalue-minimisations  : 19456
 total energy-change (2. order) :-0.6809729E-05  (-0.1594261E-05)
 number of electron     688.0000125 magnetization       0.0000000
 augmentation part      282.2389665 magnetization       0.0000000

 Broyden mixing:
  rms(total) = 0.12379E-02    rms(broyden)= 0.12378E-02
  rms(prec ) = 0.13341E-02
  weight for this iteration     100.00

 eigenvalues of (default mixing * dielectric matrix)
  average eigenvalue GAMMA=   1.2527
  3.2735  2.2246  2.2246  1.5655  1.5655  0.9310  0.7106  0.5925  0.5925  0.6226
  0.3334  0.3963

 Free energy of the ion-electron system (eV)
  ---------------------------------------------------
  alpha Z        PSCENC =      2362.42536358
  Ewald energy   TEWEN  =    -62552.16878105
  -Hartree energ DENC   =    -42901.37940317
  -exchange      EXHF   =         0.00000000
  -V(xc)+E(xc)   XCENC  =      3286.50615311
  PAW double counting   =    112217.47708447  -115910.34952767
  entropy T*S    EENTRO =         0.00000000
  eigenvalues    EBANDS =    -10849.94744208
  atomic energy  EATOM  =    114020.06510763
  Solvation  Ediel_sol  =         0.00000000
  ---------------------------------------------------
  free energy    TOTEN  =      -327.37144520 eV

  energy without entropy =     -327.37144520  energy(sigma->0) =     -327.37144520


--------------------------------------------------------------------------------------------------------




--------------------------------------- Iteration      1(  18)  ---------------------------------------


    POTLOK:  cpu time    0.1215: real time    0.1247
    SETDIJ:  cpu time    0.0129: real time    0.0129
     EDDAV:  cpu time  168.5775: real time  169.7208
 BZINTS: Fermi energy:  4.950295;688.000000 electrons
         Band energy:***********;  BLOECHL correction:  0.000000
       DOS:  cpu time    0.0059: real time    0.0059
    CHARGE:  cpu time    1.5660: real time    1.5750
    MIXING:  cpu time    0.0023: real time    0.0023
    --------------------------------------------
      LOOP:  cpu time  170.2861: real time  171.4418

 eigenvalue-minimisations  : 23296
 total energy-change (2. order) :-0.6909133E-05  (-0.4162477E-05)
 number of electron     688.0000125 magnetization       0.0000000
 augmentation part      282.2387395 magnetization       0.0000000

 Broyden mixing:
  rms(total) = 0.53095E-03    rms(broyden)= 0.53074E-03
  rms(prec ) = 0.59603E-03
  weight for this iteration     100.00

 eigenvalues of (default mixing * dielectric matrix)
  average eigenvalue GAMMA=   1.2953
  4.0619  2.3696  2.3696  1.5636  1.5636  0.9183  0.3334  0.7767  0.5958  0.5958
  0.6900  0.6216  0.3792

 Free energy of the ion-electron system (eV)
  ---------------------------------------------------
  alpha Z        PSCENC =      2362.42536358
  Ewald energy   TEWEN  =    -62552.16878105
  -Hartree energ DENC   =    -42901.38604097
  -exchange      EXHF   =         0.00000000
  -V(xc)+E(xc)   XCENC  =      3286.50588920
  PAW double counting   =    112217.86472636  -115910.74015578
  entropy T*S    EENTRO =         0.00000000
  eigenvalues    EBANDS =    -10849.93756108
  atomic energy  EATOM  =    114020.06510763
  Solvation  Ediel_sol  =         0.00000000
  ---------------------------------------------------
  free energy    TOTEN  =      -327.37145210 eV

  energy without entropy =     -327.37145210  energy(sigma->0) =     -327.37145210


--------------------------------------------------------------------------------------------------------




--------------------------------------- Iteration      1(  19)  ---------------------------------------


    POTLOK:  cpu time    0.1332: real time    0.1369
    SETDIJ:  cpu time    0.0167: real time    0.0167
     EDDAV:  cpu time  132.1248: real time  133.0569
 BZINTS: Fermi energy:  4.950230;688.000000 electrons
         Band energy:***********;  BLOECHL correction:  0.000000
       DOS:  cpu time    0.0059: real time    0.0059
    CHARGE:  cpu time    1.3454: real time    1.3541
    MIXING:  cpu time    0.0020: real time    0.0020
    --------------------------------------------
      LOOP:  cpu time  133.6280: real time  134.5726

 eigenvalue-minimisations  : 19968
 total energy-change (2. order) :-0.9211653E-06  (-0.7138138E-06)
 number of electron     688.0000125 magnetization       0.0000000
 augmentation part      282.2384950 magnetization       0.0000000

 Broyden mixing:
[...]
   -.411E+02 0.299E+02 -.228E+01   0.419E+02 -.301E+02 0.231E+01   -.824E+00 0.193E+00 -.285E-01   0.161E-04 -.316E-04 0.541E-04
   -.411E+02 0.299E+02 -.228E+01   0.419E+02 -.301E+02 0.231E+01   -.824E+00 0.193E+00 -.285E-01   0.162E-04 -.316E-04 0.541E-04
   -.411E+02 0.299E+02 -.228E+01   0.419E+02 -.301E+02 0.231E+01   -.824E+00 0.193E+00 -.285E-01   0.161E-04 -.316E-04 0.541E-04
   -.411E+02 0.299E+02 -.228E+01   0.419E+02 -.301E+02 0.231E+01   -.824E+00 0.193E+00 -.285E-01   0.162E-04 -.316E-04 0.541E-04
   0.411E+02 0.299E+02 0.228E+01   -.419E+02 -.301E+02 -.231E+01   0.824E+00 0.193E+00 0.285E-01   -.177E-04 0.188E-04 0.469E-04
   0.411E+02 0.299E+02 0.228E+01   -.419E+02 -.301E+02 -.231E+01   0.824E+00 0.193E+00 0.285E-01   -.177E-04 0.188E-04 0.469E-04
   0.411E+02 0.299E+02 0.228E+01   -.419E+02 -.301E+02 -.231E+01   0.824E+00 0.193E+00 0.285E-01   -.177E-04 0.188E-04 0.469E-04
   0.411E+02 0.299E+02 0.228E+01   -.419E+02 -.301E+02 -.231E+01   0.824E+00 0.193E+00 0.285E-01   -.177E-04 0.188E-04 0.469E-04
   -.202E-07 -.208E+02 -.200E-06   -.167E-12 0.215E+02 -.121E-12   0.150E-24 -.686E+00 0.000E+00   0.830E-09 -.130E-04 0.279E-08
   -.202E-07 -.208E+02 -.200E-06   -.172E-12 0.215E+02 -.118E-12   0.137E-24 -.686E+00 -.775E-25   -.903E-09 -.130E-04 -.279E-08
   -.202E-07 -.208E+02 -.200E-06   -.171E-12 0.215E+02 -.853E-13   0.136E-24 -.686E+00 -.517E-25   0.830E-09 -.130E-04 0.279E-08
   -.202E-07 -.208E+02 -.200E-06   -.178E-12 0.215E+02 -.110E-12   0.168E-24 -.686E+00 -.103E-24   -.903E-09 -.130E-04 -.279E-08
   0.231E-07 0.642E+02 -.570E-08   0.140E-12 -.652E+02 0.130E-12   0.213E-24 0.102E+01 0.000E+00   -.102E-07 0.503E-05 0.410E-09
   0.231E-07 0.642E+02 -.570E-08   0.135E-12 -.652E+02 0.114E-12   -.178E-24 0.102E+01 0.000E+00   0.103E-07 0.503E-05 -.417E-09
   0.231E-07 0.642E+02 -.570E-08   0.121E-12 -.652E+02 0.128E-12   0.121E-24 0.102E+01 0.000E+00   -.102E-07 0.503E-05 0.410E-09
   0.231E-07 0.642E+02 -.570E-08   0.114E-12 -.652E+02 0.114E-12   -.191E-24 0.102E+01 0.000E+00   0.103E-07 0.503E-05 -.417E-09
   0.531E+01 -.276E+02 0.225E+01   -.525E+01 0.265E+02 -.230E+01   -.570E-01 0.111E+01 0.452E-01   -.740E-05 -.263E-04 0.674E-04
   0.531E+01 -.276E+02 0.225E+01   -.525E+01 0.265E+02 -.230E+01   -.570E-01 0.111E+01 0.452E-01   -.737E-05 -.263E-04 0.674E-04
   0.531E+01 -.276E+02 0.225E+01   -.525E+01 0.265E+02 -.230E+01   -.570E-01 0.111E+01 0.452E-01   -.740E-05 -.262E-04 0.674E-04
   0.531E+01 -.276E+02 0.225E+01   -.525E+01 0.265E+02 -.230E+01   -.570E-01 0.111E+01 0.452E-01   -.737E-05 -.262E-04 0.674E-04
   -.531E+01 -.276E+02 -.225E+01   0.525E+01 0.265E+02 0.230E+01   0.570E-01 0.111E+01 -.452E-01   0.736E-05 -.263E-04 -.674E-04
   -.531E+01 -.276E+02 -.225E+01   0.525E+01 0.265E+02 0.230E+01   0.570E-01 0.111E+01 -.452E-01   0.741E-05 -.263E-04 -.674E-04
   -.531E+01 -.276E+02 -.225E+01   0.525E+01 0.265E+02 0.230E+01   0.570E-01 0.111E+01 -.452E-01   0.736E-05 -.262E-04 -.674E-04
   -.531E+01 -.276E+02 -.225E+01   0.525E+01 0.265E+02 0.230E+01   0.570E-01 0.111E+01 -.452E-01   0.741E-05 -.262E-04 -.674E-04
   0.531E+01 -.276E+02 0.225E+01   -.525E+01 0.265E+02 -.230E+01   -.570E-01 0.111E+01 0.452E-01   0.546E-06 -.241E-04 -.683E-04
   0.531E+01 -.276E+02 0.225E+01   -.525E+01 0.265E+02 -.230E+01   -.570E-01 0.111E+01 0.452E-01   0.605E-06 -.241E-04 -.683E-04
   0.531E+01 -.276E+02 0.225E+01   -.525E+01 0.265E+02 -.230E+01   -.570E-01 0.111E+01 0.452E-01   0.546E-06 -.240E-04 -.683E-04
   0.531E+01 -.276E+02 0.225E+01   -.525E+01 0.265E+02 -.230E+01   -.570E-01 0.111E+01 0.452E-01   0.604E-06 -.240E-04 -.683E-04
   -.531E+01 -.276E+02 -.225E+01   0.525E+01 0.265E+02 0.230E+01   0.570E-01 0.111E+01 -.452E-01   -.590E-06 -.241E-04 0.683E-04
   -.531E+01 -.276E+02 -.225E+01   0.525E+01 0.265E+02 0.230E+01   0.570E-01 0.111E+01 -.452E-01   -.560E-06 -.241E-04 0.683E-04
   -.531E+01 -.276E+02 -.225E+01   0.525E+01 0.265E+02 0.230E+01   0.570E-01 0.111E+01 -.452E-01   -.590E-06 -.240E-04 0.683E-04
   -.531E+01 -.276E+02 -.225E+01   0.525E+01 0.265E+02 0.230E+01   0.570E-01 0.111E+01 -.452E-01   -.560E-06 -.240E-04 0.683E-04
   -.744E+01 -.269E+02 0.301E+01   0.731E+01 0.254E+02 -.308E+01   0.137E+00 0.145E+01 0.664E-01   0.311E-04 -.227E-04 -.520E-04
   -.744E+01 -.269E+02 0.301E+01   0.731E+01 0.254E+02 -.308E+01   0.137E+00 0.145E+01 0.664E-01   0.312E-04 -.227E-04 -.520E-04
   -.744E+01 -.269E+02 0.301E+01   0.731E+01 0.254E+02 -.308E+01   0.137E+00 0.145E+01 0.664E-01   0.311E-04 -.227E-04 -.520E-04
   -.744E+01 -.269E+02 0.301E+01   0.731E+01 0.254E+02 -.308E+01   0.137E+00 0.145E+01 0.664E-01   0.312E-04 -.227E-04 -.520E-04
   0.744E+01 -.269E+02 -.301E+01   -.731E+01 0.254E+02 0.308E+01   -.137E+00 0.145E+01 -.664E-01   -.312E-04 -.227E-04 0.520E-04
   0.744E+01 -.269E+02 -.301E+01   -.731E+01 0.254E+02 0.308E+01   -.137E+00 0.145E+01 -.664E-01   -.311E-04 -.227E-04 0.520E-04
   0.744E+01 -.269E+02 -.301E+01   -.731E+01 0.254E+02 0.308E+01   -.137E+00 0.145E+01 -.664E-01   -.312E-04 -.227E-04 0.520E-04
   0.744E+01 -.269E+02 -.301E+01   -.731E+01 0.254E+02 0.308E+01   -.137E+00 0.145E+01 -.664E-01   -.311E-04 -.227E-04 0.520E-04
   -.744E+01 -.269E+02 0.301E+01   0.731E+01 0.254E+02 -.308E+01   0.137E+00 0.145E+01 0.664E-01   0.194E-04 -.257E-04 0.549E-04
   -.744E+01 -.269E+02 0.301E+01   0.731E+01 0.254E+02 -.308E+01   0.137E+00 0.145E+01 0.664E-01   0.194E-04 -.257E-04 0.548E-04
   -.744E+01 -.269E+02 0.301E+01   0.731E+01 0.254E+02 -.308E+01   0.137E+00 0.145E+01 0.664E-01   0.194E-04 -.257E-04 0.549E-04
   -.744E+01 -.269E+02 0.301E+01   0.731E+01 0.254E+02 -.308E+01   0.137E+00 0.145E+01 0.664E-01   0.194E-04 -.257E-04 0.548E-04
   0.744E+01 -.269E+02 -.301E+01   -.731E+01 0.254E+02 0.308E+01   -.137E+00 0.145E+01 -.664E-01   -.194E-04 -.257E-04 -.549E-04
   0.744E+01 -.269E+02 -.301E+01   -.731E+01 0.254E+02 0.308E+01   -.137E+00 0.145E+01 -.664E-01   -.194E-04 -.257E-04 -.548E-04
   0.744E+01 -.269E+02 -.301E+01   -.731E+01 0.254E+02 0.308E+01   -.137E+00 0.145E+01 -.664E-01   -.194E-04 -.257E-04 -.549E-04
   0.744E+01 -.269E+02 -.301E+01   -.731E+01 0.254E+02 0.308E+01   -.137E+00 0.145E+01 -.664E-01   -.194E-04 -.257E-04 -.549E-04
 -----------------------------------------------------------------------------------------------
   -.513E-05 -.466E+02 -.261E-03   0.118E-12 -.249E-12 -.320E-12   -.139E-15 0.466E+02 0.000E+00   -.131E-10 -.935E-03 -.285E-10
 
 
 POSITION                                       TOTAL-FORCE (eV/Angst)
 -----------------------------------------------------------------------------------
      1.38213      1.25913      1.36394         0.000015     -0.005239      0.001032
      6.63433      1.25913      1.58409         0.000015     -0.005239      0.001032
      1.38213      6.52109      1.36394         0.000015     -0.005239      0.001032
      6.63433      6.52109      1.58409         0.000015     -0.005239      0.001032
      3.97904      3.89011      1.45606        -0.000014     -0.005240     -0.001030
      9.23124      3.89011      1.67620        -0.000014     -0.005240     -0.001030
      3.97904      9.15208      1.45606        -0.000014     -0.005240     -0.001030
      9.23124      9.15208      1.67620        -0.000014     -0.005240     -0.001030
      1.69445      3.90065      9.15454        -0.000000     -0.004453      0.000000
      6.94665      3.90065      9.37469        -0.000000     -0.004453      0.000000
      1.69445      9.16262      9.15454        -0.000000     -0.004453      0.000000
      6.94665      9.16262      9.37469        -0.000000     -0.004453      0.000000
      4.32055      1.28825      9.26461        -0.000000     -0.001662      0.000000
      9.57275      1.28825      9.48476        -0.000000     -0.001662      0.000000
      4.32055      6.55021      9.26461        -0.000000     -0.001662      0.000000
      9.57275      6.55021      9.48476        -0.000000     -0.001662      0.000000
      1.57089      1.25913      6.54570        -0.000015     -0.005239     -0.001032
      6.82309      1.25913      6.76585        -0.000015     -0.005239     -0.001032
      1.57089      6.52109      6.54570        -0.000015     -0.005239     -0.001032
      6.82309      6.52109      6.76585        -0.000015     -0.005239     -0.001032
      4.22618      3.89011      6.67373         0.000014     -0.005240      0.001030
      9.47838      3.89011      6.89388         0.000014     -0.005240      0.001030
      4.22618      9.15208      6.67373         0.000014     -0.005240      0.001030
      9.47838      9.15208      6.89388         0.000014     -0.005240      0.001030
      4.10261      1.26967      4.06490        -0.000000     -0.004454      0.000000
      9.35481      1.26967      4.28504        -0.000000     -0.004454      0.000000
      4.10261      6.53164      4.06490        -0.000000     -0.004454      0.000000
      9.35481      6.53164      4.28504        -0.000000     -0.004454      0.000000
      1.47651      3.91923      3.95482        -0.000000     -0.001663      0.000000
      6.72871      3.91923      4.17497        -0.000000     -0.001663      0.000000
      1.47651      9.18119      3.95482        -0.000000     -0.001663      0.000000
      6.72871      9.18119      4.17497        -0.000000     -0.001663      0.000000
     10.70274      0.04726      5.63913         0.001677      0.003844     -0.002446
      5.45054      0.04726      5.41899         0.001677      0.003844     -0.002446
     10.70274      5.30923      5.63913         0.001677      0.003844     -0.002446
      5.45054      5.30923      5.41899         0.001677      0.003844     -0.002446
      2.75468      0.04726      2.71080        -0.001677      0.003844      0.002446
      8.00688      0.04726      2.93095        -0.001677      0.003844      0.002446
      2.75468      5.30923      2.71080        -0.001677      0.003844      0.002446
      8.00688      5.30923      2.93095        -0.001677      0.003844      0.002446
      3.04239      2.67825     10.50863         0.001676      0.003844     -0.002447
      8.29459      2.67825     10.72878         0.001676      0.003844     -0.002447
      3.04239      7.94021     10.50863         0.001676      0.003844     -0.002447
      8.29459      7.94021     10.72878         0.001676      0.003844     -0.002447
      0.34652      2.67825      7.80045        -0.001676      0.003844      0.002447
      5.59872      2.67825      8.02060        -0.001676      0.003844      0.002447
      0.34652      7.94021      7.80045        -0.001676      0.003844      0.002447
      5.59872      7.94021      8.02060        -0.001676      0.003844      0.002447
     10.49354      0.04563      0.44537         0.002205      0.004454     -0.006875
      5.24134      0.04563      0.22522         0.002205      0.004454     -0.006875
     10.49354      5.30760      0.44537         0.002205      0.004454     -0.006875
      5.24134      5.30760      0.22522         0.002205      0.004454     -0.006875
      2.96388      0.04563      7.90457        -0.002205      0.004454      0.006875
      8.21608      0.04563      8.12472        -0.002205      0.004454      0.006875
      2.96388      5.30760      7.90457        -0.002205      0.004454      0.006875
      8.21608      5.30760      8.12472        -0.002205      0.004454      0.006875
      2.83318      2.67662      5.31487         0.002204      0.004453     -0.006874
      8.08539      2.67662      5.53501         0.002204      0.004453     -0.006874
      2.83318      7.93858      5.31487         0.002204      0.004453     -0.006874
      8.08539      7.93858      5.53501         0.002204      0.004453     -0.006874
      0.11983      2.67662      2.59478        -0.002204      0.004453      0.006874
      5.37203      2.67662      2.81493        -0.002204      0.004453      0.006874
      0.11983      7.93858      2.59478        -0.002204      0.004453      0.006874
      5.37203      7.93858      2.81493        -0.002204      0.004453      0.006874
 -----------------------------------------------------------------------------------
    total drift:                               -0.000005      0.013274     -0.000261


--------------------------------------------------------------------------------------------------------



  FREE ENERGIE OF THE ION-ELECTRON SYSTEM (eV)
  ---------------------------------------------------
  free  energy   TOTEN  =      -327.37145328 eV

  energy  without entropy=     -327.37145328  energy(sigma->0) =     -327.37145328
 


--------------------------------------------------------------------------------------------------------


    POTLOK:  cpu time    0.1300: real time    0.1307


--------------------------------------------------------------------------------------------------------


 writing wavefunctions
     LOOP+:  cpu time 3540.7697: real time 3566.0869
    4ORBIT:  cpu time    0.0000: real time    0.0000
 


 total charge     
 
# of ion       s       p       d       tot
------------------------------------------
    1        1.314   2.408   0.000   3.722
    2        1.314   2.408   0.000   3.722
    3        1.314   2.408   0.000   3.722
    4        1.314   2.408   0.000   3.722
    5        1.314   2.408   0.000   3.722
    6        1.314   2.408   0.000   3.722
    7        1.314   2.408   0.000   3.722
    8        1.314   2.408   0.000   3.722
    9        1.316   2.403   0.000   3.719
   10        1.316   2.403   0.000   3.719
   11        1.316   2.403   0.000   3.719
   12        1.316   2.403   0.000   3.719
   13        1.313   2.412   0.000   3.724
   14        1.313   2.412   0.000   3.724
   15        1.313   2.412   0.000   3.724
   16        1.313   2.412   0.000   3.724
   17        1.314   2.408   0.000   3.722
   18        1.314   2.408   0.000   3.722
   19        1.314   2.408   0.000   3.722
   20        1.314   2.408   0.000   3.722
   21        1.314   2.408   0.000   3.722
   22        1.314   2.408   0.000   3.722
   23        1.314   2.408   0.000   3.722
   24        1.314   2.408   0.000   3.722
   25        1.316   2.403   0.000   3.719
   26        1.316   2.403   0.000   3.719
   27        1.316   2.403   0.000   3.719
   28        1.316   2.403   0.000   3.719
   29        1.313   2.412   0.000   3.724
   30        1.313   2.412   0.000   3.724
   31        1.313   2.412   0.000   3.724
   32        1.313   2.412   0.000   3.724
   33        0.259   6.201   8.917  15.377
   34        0.259   6.201   8.917  15.377
   35        0.259   6.201   8.917  15.377
   36        0.259   6.201   8.917  15.377
   37        0.259   6.201   8.917  15.377
   38        0.259   6.201   8.917  15.377
   39        0.259   6.201   8.917  15.377
   40        0.259   6.201   8.917  15.377
   41        0.259   6.201   8.917  15.377
   42        0.259   6.201   8.917  15.377
   43        0.259   6.201   8.917  15.377
   44        0.259   6.201   8.917  15.377
   45        0.259   6.201   8.917  15.377
   46        0.259   6.201   8.917  15.377
   47        0.259   6.201   8.917  15.377
   48        0.259   6.201   8.917  15.377
   49        0.349   6.349   5.822  12.520
   50        0.349   6.349   5.822  12.520
   51        0.349   6.349   5.822  12.520
   52        0.349   6.349   5.822  12.520
   53        0.349   6.349   5.822  12.520
   54        0.349   6.349   5.822  12.520
   55        0.349   6.349   5.822  12.520
   56        0.349   6.349   5.822  12.520
   57        0.349   6.349   5.822  12.520
   58        0.349   6.349   5.822  12.520
   59        0.349   6.349   5.822  12.520
   60        0.349   6.349   5.822  12.520
   61        0.349   6.349   5.822  12.520
   62        0.349   6.349   5.822  12.520
   63        0.349   6.349   5.822  12.520
   64        0.349   6.349   5.822  12.520
--------------------------------------------------
tot         51.775 277.849 235.827 565.451
 


 magnetization (x)
 
# of ion       s       p       d       tot
------------------------------------------
    1       -0.000  -0.020   0.000  -0.020
    2       -0.000  -0.020   0.000  -0.020
    3       -0.000  -0.020   0.000  -0.020
    4       -0.000  -0.020   0.000  -0.020
    5        0.000   0.020   0.000   0.020
    6        0.000   0.020   0.000   0.020
    7        0.000   0.020   0.000   0.020
    8        0.000   0.020   0.000   0.020
    9        0.000  -0.000   0.000  -0.000
   10        0.000   0.000   0.000   0.000
   11        0.000  -0.000   0.000  -0.000
   12       -0.000   0.000   0.000   0.000
   13       -0.000   0.000   0.000   0.000
   14       -0.000  -0.000   0.000  -0.000
   15        0.000   0.000   0.000   0.000
   16        0.000  -0.000   0.000  -0.000
   17        0.000   0.020   0.000   0.020
   18        0.000   0.020   0.000   0.020
   19        0.000   0.020   0.000   0.020
   20        0.000   0.020   0.000   0.020
   21       -0.000  -0.020   0.000  -0.020
   22       -0.000  -0.020   0.000  -0.020
   23       -0.000  -0.020   0.000  -0.020
   24       -0.000  -0.020   0.000  -0.020
   25        0.000   0.000   0.000   0.000
   26       -0.000   0.000   0.000   0.000
   27        0.000   0.000   0.000   0.000
   28        0.000   0.000   0.000   0.000
   29        0.000   0.000   0.000   0.000
   30        0.000  -0.000   0.000  -0.000
   31        0.000   0.000   0.000   0.000
   32       -0.000  -0.000   0.000  -0.000
   33        0.000   0.001  -0.003  -0.001
   34        0.000   0.001  -0.003  -0.001
   35        0.000   0.001  -0.003  -0.001
   36        0.000   0.001  -0.003  -0.001
   37       -0.000  -0.001   0.003   0.001
   38       -0.000  -0.001   0.003   0.001
   39       -0.000  -0.001   0.003   0.001
   40       -0.000  -0.001   0.003   0.001
   41        0.000   0.001  -0.003  -0.001
   42        0.000   0.001  -0.003  -0.001
   43        0.000   0.001  -0.003  -0.001
   44        0.000   0.001  -0.003  -0.001
   45       -0.000  -0.001   0.003   0.001
   46       -0.000  -0.001   0.003   0.001
   47       -0.000  -0.001   0.003   0.001
   48       -0.000  -0.001   0.003   0.001
   49        0.020   0.054   3.667   3.741
   50        0.020   0.054   3.667   3.741
   51        0.020   0.054   3.667   3.741
   52        0.020   0.054   3.667   3.741
   53       -0.020  -0.054  -3.667  -3.741
   54       -0.020  -0.054  -3.667  -3.741
   55       -0.020  -0.054  -3.667  -3.741
   56       -0.020  -0.054  -3.667  -3.741
   57        0.020   0.054   3.667   3.741
   58        0.020   0.054   3.667   3.741
   59        0.020   0.054   3.667   3.741
   60        0.020   0.054   3.667   3.741
   61       -0.020  -0.054  -3.667  -3.741
   62       -0.020  -0.054  -3.667  -3.741
   63       -0.020  -0.054  -3.667  -3.741
   64       -0.020  -0.054  -3.667  -3.741
--------------------------------------------------
tot          0.000   0.000  -0.000  -0.000
 
 BZINTS: Fermi energy:  4.950101;688.000000 electrons
         Band energy:***********;  BLOECHL correction:  0.000000

 total amount of memory used by VASP MPI-rank0   348353. kBytes
=======================================================================

   base      :      30000. kBytes
   nonl-proj :     216760. kBytes
   fftplans  :       4588. kBytes
   grid      :      69719. kBytes
   one-center:       1990. kBytes
   wavefun   :      25296. kBytes
 
  
  
 General timing and accounting informations for this job:
 ========================================================
  
                  Total CPU time used (sec):     3599.673
                            User time (sec):     3588.595
                          System time (sec):       11.077
                         Elapsed time (sec):     3626.250
  
                   Maximum memory used (kb):      726964.
                   Average memory used (kb):           0.
  
                          Minor page faults:       640822
                          Major page faults:         5747
                 Voluntary context switches:         7140
