       N       E                     dE             d eps       ncg     rms          rms(c)
DAV:   1    -0.327092767059E+03   -0.32709E+03   -0.45345E+00  3584   0.156E+01    0.121E+00
DAV:   2    -0.327213706180E+03   -0.12094E+00   -0.13049E+00  2048   0.260E+00    0.139E+00
DAV:   3    -0.327208819977E+03    0.48862E-02   -0.12699E-01  2560   0.105E+00    0.665E-01
DAV:   4    -0.327208485195E+03    0.33478E-03   -0.71432E-03  2560   0.236E-01    0.260E-01
DAV:   5    -0.327208656369E+03   -0.17117E-03   -0.11765E-03  2560   0.666E-02    0.145E-01
DAV:   6    -0.327208744395E+03   -0.88026E-04   -0.87328E-04  2560   0.759E-02    0.524E-02
DAV:   7    -0.327208786009E+03   -0.41613E-04   -0.10267E-04  2048   0.183E-02    0.249E-02
DAV:   8    -0.327208797033E+03   -0.11024E-04   -0.50589E-05  2560   0.124E-02    0.128E-02
DAV:   9    -0.327208800730E+03   -0.36971E-05   -0.13171E-05  2560   0.571E-03    0.647E-03
DAV:  10    -0.327208802244E+03   -0.15142E-05   -0.43441E-06  2560   0.249E-03    0.353E-03
DAV:  11    -0.327208802729E+03   -0.48474E-06   -0.11800E-06  2560   0.204E-03    0.271E-03
DAV:  12    -0.327208802992E+03   -0.26271E-06   -0.51499E-07  2560   0.156E-03    0.134E-03
DAV:  13    -0.327208803149E+03   -0.15764E-06   -0.34995E-07  2560   0.112E-03    0.839E-04
DAV:  14    -0.327208803148E+03    0.15134E-08   -0.10284E-07  2560   0.728E-04    0.420E-04
DAV:  15    -0.327208803131E+03    0.16706E-07   -0.29959E-08  1024   0.415E-04    0.307E-04
DAV:  16    -0.327208803132E+03   -0.93132E-09   -0.10378E-08  1024   0.275E-04
   1 F= -.32720880E+03 E0= -.32720880E+03  d E =-.717787E-39  mag=     0.0000
