       N       E                     dE             d eps       ncg     rms          rms(c)
DAV:   1     0.604023540255E+04    0.60402E+04   -0.51688E+05 16384   0.196E+03
DAV:   2    -0.916952091584E+02   -0.61319E+04   -0.60233E+04 17664   0.446E+02
DAV:   3    -0.342425115727E+03   -0.25073E+03   -0.24981E+03 23040   0.980E+01
DAV:   4    -0.345877353195E+03   -0.34522E+01   -0.34521E+01 18432   0.116E+01
DAV:   5    -0.345981659354E+03   -0.10431E+00   -0.10431E+00 23040   0.198E+00    0.321E+01
DAV:   6    -0.332496590777E+03    0.13485E+02   -0.11852E+01 24832   0.104E+01    0.175E+01
DAV:   7    -0.328731433423E+03    0.37652E+01   -0.12893E+01 24576   0.981E+00    0.153E+01
DAV:   8    -0.328207702431E+03    0.52373E+00   -0.87650E+00 23040   0.783E+00    0.677E+00
DAV:   9    -0.328105237898E+03    0.10246E+00   -0.27059E+00 20992   0.509E+00    0.340E+00
DAV:  10    -0.328101357446E+03    0.38805E-02   -0.81662E-01 23296   0.235E+00    0.211E+00
DAV:  11    -0.328106807591E+03   -0.54501E-02   -0.16082E-01 21248   0.970E-01    0.770E-01
DAV:  12    -0.328115901776E+03   -0.90942E-02   -0.31926E-02 24320   0.316E-01    0.380E-01
DAV:  13    -0.328117148227E+03   -0.12465E-02   -0.65267E-03 19712   0.214E-01    0.184E-01
DAV:  14    -0.328117948741E+03   -0.80051E-03   -0.21801E-03 25088   0.699E-02    0.111E-01
DAV:  15    -0.328118506258E+03   -0.55752E-03   -0.15960E-03 20480   0.441E-02    0.559E-02
DAV:  16    -0.328118699123E+03   -0.19287E-03   -0.58561E-04 22016   0.244E-02    0.384E-02
DAV:  17    -0.328118791602E+03   -0.92479E-04   -0.51901E-04 20736   0.235E-02    0.188E-02
DAV:  18    -0.328118807131E+03   -0.15529E-04   -0.11919E-04 20480   0.128E-02    0.956E-03
DAV:  19    -0.328118808399E+03   -0.12681E-05   -0.50528E-06 19968   0.355E-03    0.608E-03
DAV:  20    -0.328118808989E+03   -0.58970E-06   -0.39061E-06 24320   0.258E-03    0.265E-03
DAV:  21    -0.328118809135E+03   -0.14596E-06   -0.45548E-07 23040   0.109E-03    0.147E-03
DAV:  22    -0.328118809154E+03   -0.19078E-07   -0.60443E-08 23552   0.398E-04    0.797E-04
DAV:  23    -0.328118809168E+03   -0.13868E-07   -0.21969E-08 15104   0.234E-04    0.354E-04
DAV:  24    -0.328118809180E+03   -0.11729E-07   -0.20059E-08 16896   0.164E-04    0.195E-04
DAV:  25    -0.328118809183E+03   -0.33033E-08   -0.47957E-09 13824   0.912E-05
   1 F= -.32811881E+03 E0= -.32811881E+03  d E =0.000000E+00  mag=     0.0000
