       N       E                     dE             d eps       ncg     rms          rms(c)
DAV:   1     0.605586089401E+04    0.60559E+04   -0.51593E+05 16384   0.196E+03
DAV:   2    -0.778486419714E+02   -0.61337E+04   -0.60234E+04 18176   0.446E+02
DAV:   3    -0.324299462583E+03   -0.24645E+03   -0.24558E+03 22784   0.971E+01
DAV:   4    -0.327689852538E+03   -0.33904E+01   -0.33902E+01 19968   0.114E+01
DAV:   5    -0.327793330723E+03   -0.10348E+00   -0.10348E+00 21504   0.196E+00    0.465E+00
DAV:   6    -0.327544371080E+03    0.24896E+00   -0.31602E-01 25600   0.188E+00    0.253E+00
DAV:   7    -0.327480999689E+03    0.63371E-01   -0.30788E-01 23808   0.163E+00    0.179E+00
DAV:   8    -0.327471731911E+03    0.92678E-02   -0.37345E-01 23296   0.170E+00    0.169E+00
DAV:   9    -0.327461670200E+03    0.10062E-01   -0.89851E-02 19968   0.834E-01    0.454E-01
DAV:  10    -0.327462199621E+03   -0.52942E-03   -0.56342E-03 23808   0.123E-01    0.292E-01
DAV:  11    -0.327462628988E+03   -0.42937E-03   -0.20368E-03 19712   0.933E-02    0.139E-01
DAV:  12    -0.327462936876E+03   -0.30789E-03   -0.94567E-04 21760   0.454E-02    0.567E-02
DAV:  13    -0.327462986289E+03   -0.49414E-04   -0.12317E-04 20224   0.246E-02    0.370E-02
DAV:  14    -0.327463018898E+03   -0.32609E-04   -0.76496E-05 22784   0.113E-02    0.213E-02
DAV:  15    -0.327463042341E+03   -0.23443E-04   -0.78676E-05 20992   0.823E-03    0.112E-02
DAV:  16    -0.327463048114E+03   -0.57726E-05   -0.18738E-05 20992   0.522E-03    0.731E-03
DAV:  17    -0.327463050872E+03   -0.27580E-05   -0.14192E-05 19200   0.355E-03    0.381E-03
DAV:  18    -0.327463051327E+03   -0.45513E-06   -0.36519E-06 23296   0.212E-03    0.170E-03
DAV:  19    -0.327463051363E+03   -0.36292E-07   -0.27431E-07 21504   0.624E-04    0.124E-03
DAV:  20    -0.327463051378E+03   -0.15207E-07   -0.97120E-08 23552   0.363E-04    0.485E-04
DAV:  21    -0.327463051388E+03   -0.95752E-08   -0.19412E-08 13824   0.183E-04
   1 F= -.32746305E+03 E0= -.32746305E+03  d E =0.000000E+00  mag=     0.0000
