 vasp.5.4.4.18Apr17-6-g9f103f2a35 (build Oct 30 2023 17:30:16) complex          
  
 executed on             LinuxIFC date 2024.06.30  04:40:39
 running on  256 total cores
 distrk:  each k-point on  256 cores,    1 groups
 distr:  one band on NCORES_PER_BAND=   1 cores,  256 groups


--------------------------------------------------------------------------------------------------------


 INCAR:
 POTCAR:    PAW_PBE S 06Sep2000                   
 POTCAR:     PAW_PBE Cu_pv 06Sep2000              
 POTCAR:     PAW_PBE Fe_pv 02Aug2007              

 ----------------------------------------------------------------------------- 
|                                                                             |
|           W    W    AA    RRRRR   N    N  II  N    N   GGGG   !!!           |
|           W    W   A  A   R    R  NN   N  II  NN   N  G    G  !!!           |
|           W    W  A    A  R    R  N N  N  II  N N  N  G       !!!           |
|           W WW W  AAAAAA  RRRRR   N  N N  II  N  N N  G  GGG   !            |
|           WW  WW  A    A  R   R   N   NN  II  N   NN  G    G                |
|           W    W  A    A  R    R  N    N  II  N    N   GGGG   !!!           |
|                                                                             |
|      For optimal performance we recommend to set                            |
|        NCORE= 4 - approx SQRT( number of cores)                             |
|      NCORE specifies how many cores store one orbital (NPAR=cpu/NCORE).     |
|      This setting can  greatly improve the performance of VASP for DFT.     |
|      The default,   NCORE=1            might be grossly inefficient         |
|      on modern multi-core architectures or massively parallel machines.     |
|      Do your own testing !!!!                                               |
|      Unfortunately you need to use the default for GW and RPA calculations. |
|      (for HF NCORE is supported but not extensively tested yet)             |
|                                                                             |
 ----------------------------------------------------------------------------- 

 POTCAR:    PAW_PBE S 06Sep2000                   
   SHA256 =  0fc7481fb0695f01bdc6462160264c5c84044ae9ec85a907d398b887a2bc3132 S/
   COPYR  = (c) Copyright 06Sep2000 Georg Kresse                                
   COPYR  = This file is part of the software VASP. Any use, copying, and all ot
   COPYR  = If you do not have a valid VASP license, you may not use, copy or di
   VRHFIN =S : s2p4                                                             
   LEXCH  = PE                                                                  
   EATOM  =   276.8230 eV,   20.3459 Ry                                         
                                                                                
   TITEL  = PAW_PBE S 06Sep2000                                                 
   LULTRA =        F    use ultrasoft PP ?                                      
   IUNSCR =        1    unscreen: 0-lin 1-nonlin 2-no                           
   RPACOR =    1.500    partial core radius                                     
   POMASS =   32.066; ZVAL   =    6.000    mass and valenz                      
   RCORE  =    1.900    outmost cutoff radius                                   
   RWIGS  =    2.200; RWIGS  =    1.164    wigner-seitz radius (au A)           
   ENMAX  =  258.689; ENMIN  =  194.016 eV                                      
   ICORE  =        2    local potential                                         
   LCOR   =        T    correct aug charges                                     
   LPAW   =        T    paw PP                                                  
   EAUG   =  335.092                                                            
   DEXC   =    0.000                                                            
   RMAX   =    1.942    core radius for proj-oper                               
   RAUG   =    1.300    factor for augmentation sphere                          
   RDEP   =    1.954    radius for radial grids                                 
   RDEPT  =    1.744    core radius for aug-charge                              
                                                                                
   Atomic configuration                                                         
    6 entries                                                                   
     n  l   j            E        occ.                                          
     1  0  0.50     -2405.8406   2.0000                                         
     2  0  0.50      -211.7007   2.0000                                         
     2  1  1.50      -156.4958   6.0000                                         
     3  0  0.50       -17.2562   2.0000                                         
     3  1  0.50        -7.0085   4.0000                                         
     3  2  1.50        -6.8029   0.0000                                         
   Description                                                                  
     l       E           TYP  RCUT    TYP  RCUT                                 
     0    -17.2561641     23  1.900                                             
     0    -15.8743224     23  1.900                                             
     1     -7.0085400     23  1.900                                             
     1     -2.7779785     23  1.900                                             
     2     -6.8029130     23  1.900                                             
  local pseudopotential read in
  partial core-charges read in
  partial kinetic energy density read in
  atomic valenz-charges read in
  non local Contribution for L=           0  read in
    real space projection operators read in
  non local Contribution for L=           0  read in
    real space projection operators read in
  non local Contribution for L=           1  read in
    real space projection operators read in
  non local Contribution for L=           1  read in
    real space projection operators read in
    PAW grid and wavefunctions read in
 
   number of l-projection  operators is LMAX  =           4
   number of lm-projection operators is LMMAX =           8
 
 POTCAR:     PAW_PBE Cu_pv 06Sep2000              
   SHA256 =  cb7b504e2ea725fe1f25c85a9ac77d4012ce94cd394135b722c4e25ec297f1cb Cu
   COPYR  = (c) Copyright 06Sep2000 Georg Kresse                                
   COPYR  = This file is part of the software VASP. Any use, copying, and all ot
   COPYR  = If you do not have a valid VASP license, you may not use, copy or di
   VRHFIN =Cu: d10 p1                                                           
   LEXCH  = PE                                                                  
   EATOM  =  4120.1201 eV,  302.8203 Ry                                         
                                                                                
   TITEL  = PAW_PBE Cu_pv 06Sep2000                                             
   LULTRA =        F    use ultrasoft PP ?                                      
   IUNSCR =        1    unscreen: 0-lin 1-nonlin 2-no                           
   RPACOR =    1.500    partial core radius                                     
   POMASS =   63.546; ZVAL   =   17.000    mass and valenz                      
   RCORE  =    2.000    outmost cutoff radius                                   
   RWIGS  =    2.000; RWIGS  =    1.058    wigner-seitz radius (au A)           
   ENMAX  =  368.648; ENMIN  =  276.486 eV                                      
   RCLOC  =    1.304    cutoff for local pot                                    
   LCOR   =        T    correct aug charges                                     
   LPAW   =        T    paw PP                                                  
   EAUG   =  758.233                                                            
   DEXC   =    0.000                                                            
   RMAX   =    2.046    core radius for proj-oper                               
   RAUG   =    1.300    factor for augmentation sphere                          
   RDEP   =    2.025    radius for radial grids                                 
   RDEPT  =    1.558    core radius for aug-charge                              
                                                                                
   Atomic configuration                                                         
    8 entries                                                                   
     n  l   j            E        occ.                                          
     1  0  0.50     -8850.2467   2.0000                                         
     2  0  0.50     -1062.3498   2.0000                                         
     2  1  1.50      -916.8226   6.0000                                         
     3  0  0.50      -114.6929   2.0000                                         
     3  1  1.50       -72.1325   6.0000                                         
     3  2  2.50        -5.0394  10.0000                                         
     4  0  0.50        -4.6097   1.0000                                         
     4  3  2.50        -1.3606   0.0000                                         
   Description                                                                  
     l       E           TYP  RCUT    TYP  RCUT                                 
     1    -72.1324777     23  1.700                                             
     1     -1.3605826     23  1.700                                             
     2     -5.0393776     23  2.000                                             
     2     -6.3999602     23  2.000                                             
     0     -4.6097062     23  1.800                                             
     0     14.1620818     23  1.800                                             
  local pseudopotential read in
  partial core-charges read in
  partial kinetic energy density read in
  atomic valenz-charges read in
  non local Contribution for L=           1  read in
    real space projection operators read in
  non local Contribution for L=           1  read in
    real space projection operators read in
  non local Contribution for L=           2  read in
    real space projection operators read in
  non local Contribution for L=           2  read in
    real space projection operators read in
  non local Contribution for L=           0  read in
    real space projection operators read in
  non local Contribution for L=           0  read in
    real space projection operators read in
    PAW grid and wavefunctions read in
 
   number of l-projection  operators is LMAX  =           6
   number of lm-projection operators is LMMAX =          18
 
 POTCAR:     PAW_PBE Fe_pv 02Aug2007              
   SHA256 =  5d22e414b1f82158bf2c7ecb8b97b28fd0923e48cadc1c3bf74d524558f5dd32 Fe
   COPYR  = (c) Copyright 02Aug2007 Georg Kresse                                
   COPYR  = This file is part of the software VASP. Any use, copying, and all ot
   COPYR  = If you do not have a valid VASP license, you may not use, copy or di
   VRHFIN =Fe:  3pd7s1                                                          
   LEXCH  = PE                                                                  
   EATOM  =  2457.4239 eV,  180.6156 Ry                                         
                                                                                
   TITEL  = PAW_PBE Fe_pv 02Aug2007                                             
   LULTRA =        F    use ultrasoft PP ?                                      
   IUNSCR =        1    unscreen: 0-lin 1-nonlin 2-no                           
   RPACOR =    1.750    partial core radius                                     
   POMASS =   55.847; ZVAL   =   14.000    mass and valenz                      
   RCORE  =    2.200    outmost cutoff radius                                   
   RWIGS  =    2.200; RWIGS  =    1.164    wigner-seitz radius (au A)           
   ENMAX  =  293.238; ENMIN  =  219.928 eV                                      
   ICORE  =        3    local potential                                         
   LCOR   =        T    correct aug charges                                     
   LPAW   =        T    paw PP                                                  
   EAUG   =  578.342                                                            
   DEXC   =    0.000                                                            
   RMAX   =    2.249    core radius for proj-oper                               
   RAUG   =    1.300    factor for augmentation sphere                          
   RDEP   =    2.296    radius for radial grids                                 
   RDEPT  =    1.766    core radius for aug-charge                              
                                                                                
   Atomic configuration                                                         
    8 entries                                                                   
     n  l   j            E        occ.                                          
     1  0  0.50     -6993.8440   2.0000                                         
     2  0  0.50      -814.6047   2.0000                                         
     2  1  1.50      -693.3689   6.0000                                         
     3  0  0.50       -89.4732   2.0000                                         
     3  1  1.50       -55.6373   6.0000                                         
     3  2  2.50        -3.8151   7.0000                                         
     4  0  0.50        -4.2551   1.0000                                         
     4  3  2.50        -1.3606   0.0000                                         
   Description                                                                  
     l       E           TYP  RCUT    TYP  RCUT                                 
     1    -55.6372668     23  2.000                                             
     1     -5.4423304     23  2.000                                             
     2     -3.8151096     23  2.200                                             
     2     -5.1756922     23  2.200                                             
     0     -4.2550951     23  2.200                                             
     0     27.2116520     23  2.200                                             
     3     -1.3605826     23  2.200                                             
  local pseudopotential read in
  partial core-charges read in
  partial kinetic energy density read in
  atomic valenz-charges read in
  non local Contribution for L=           1  read in
    real space projection operators read in
  non local Contribution for L=           1  read in
    real space projection operators read in
  non local Contribution for L=           2  read in
    real space projection operators read in
  non local Contribution for L=           2  read in
    real space projection operators read in
  non local Contribution for L=           0  read in
    real space projection operators read in
  non local Contribution for L=           0  read in
    real space projection operators read in
    PAW grid and wavefunctions read in
 
   number of l-projection  operators is LMAX  =           6
   number of lm-projection operators is LMMAX =          18
 

 ----------------------------------------------------------------------------- 
|                                                                             |
|  ADVICE TO THIS USER RUNNING 'VASP/VAMP'   (HEAR YOUR MASTER'S VOICE ...):  |
|                                                                             |
|      You have a (more or less) 'large supercell' and for larger cells       |
|      it might be more efficient to use real space projection opertators     |
|      So try LREAL= Auto  in the INCAR   file.                               |
|      Mind:          For very  accurate calculation you might also keep the  |
|      reciprocal projection scheme          (i.e. LREAL=.FALSE.)             |
|                                                                             |
 ----------------------------------------------------------------------------- 


 ----------------------------------------------------------------------------- 
|                                                                             |
|  ADVICE TO THIS USER RUNNING 'VASP/VAMP'   (HEAR YOUR MASTER'S VOICE ...):  |
|                                                                             |
|      You enforced a specific xc-type in the INCAR file,                     |
|      a different type was found on the POTCAR file                          |
|          I HOPE YOU KNOW, WHAT YOU ARE  DOING                               |
|                                                                             |
 ----------------------------------------------------------------------------- 

  PAW_PBE S 06Sep2000                   :
 energy of atom  1       EATOM= -276.8230
 kinetic energy error for atom=    0.0007 (will be added to EATOM!!)
   PAW_PBE Cu_pv 06Sep2000              :
 energy of atom  2       EATOM=-4120.1201
 kinetic energy error for atom=    0.0094 (will be added to EATOM!!)
   PAW_PBE Fe_pv 02Aug2007              :
 energy of atom  3       EATOM=-2457.4239
 kinetic energy error for atom=    0.0025 (will be added to EATOM!!)
 
 
 POSCAR: Fe16 Cu16 S32                           
  positions in direct lattice
  No initial velocities read in
 exchange correlation table for  LEXCH =       14
   RHO(1)=    0.500       N(1)  =     2000
   RHO(2)=  100.500       N(2)  =     4000
 


--------------------------------------------------------------------------------------------------------


 ion  position               nearest neighbor table
   1  0.126  0.120  0.126-  41 2.26  61 2.26  37 2.27  49 2.29
   2  0.626  0.120  0.126-  42 2.26  62 2.26  38 2.27  50 2.29
   3  0.126  0.620  0.126-  43 2.26  63 2.26  39 2.27  51 2.29
   4  0.626  0.620  0.126-  44 2.26  64 2.26  40 2.27  52 2.29
   5  0.374  0.370  0.124-  39 2.26  52 2.26  41 2.27  62 2.29
   6  0.874  0.370  0.124-  40 2.26  51 2.26  42 2.27  61 2.29
   7  0.374  0.870  0.124-  37 2.26  50 2.26  43 2.27  64 2.29
   8  0.874  0.870  0.124-  38 2.26  49 2.26  44 2.27  63 2.29
   9  0.125  0.371  0.875-  41 2.27  45 2.27  51 2.27  55 2.27
  10  0.625  0.371  0.875-  42 2.27  46 2.27  52 2.27  56 2.27
  11  0.125  0.871  0.875-  43 2.27  47 2.27  49 2.27  53 2.27
  12  0.625  0.871  0.875-  44 2.27  48 2.27  50 2.27  54 2.27
  13  0.375  0.123  0.875-  46 2.26  41 2.26  50 2.29  53 2.29
  14  0.875  0.123  0.875-  42 2.26  45 2.26  49 2.29  54 2.29
  15  0.375  0.623  0.875-  48 2.26  43 2.26  52 2.29  55 2.29
  16  0.875  0.623  0.875-  44 2.26  47 2.26  51 2.29  56 2.29
  17  0.124  0.120  0.624-  45 2.26  57 2.26  33 2.27  53 2.29
  18  0.624  0.120  0.624-  46 2.26  58 2.26  34 2.27  54 2.29
  19  0.124  0.620  0.624-  47 2.26  59 2.26  35 2.27  55 2.29
  20  0.624  0.620  0.624-  48 2.26  60 2.26  36 2.27  56 2.29
  21  0.376  0.370  0.626-  36 2.26  55 2.26  46 2.27  57 2.29
  22  0.876  0.370  0.626-  35 2.26  56 2.26  45 2.27  58 2.29
  23  0.376  0.870  0.626-  34 2.26  53 2.26  48 2.27  59 2.29
  24  0.876  0.870  0.626-  33 2.26  54 2.26  47 2.27  60 2.29
  25  0.375  0.121  0.375-  34 2.27  37 2.27  57 2.27  62 2.27
  26  0.875  0.121  0.375-  33 2.27  38 2.27  58 2.27  61 2.27
  27  0.375  0.621  0.375-  36 2.27  39 2.27  59 2.27  64 2.27
  28  0.875  0.621  0.375-  35 2.27  40 2.27  60 2.27  63 2.27
  29  0.125  0.373  0.375-  35 2.26  39 2.26  57 2.29  61 2.29
  30  0.625  0.373  0.375-  40 2.26  36 2.26  58 2.29  62 2.29
  31  0.125  0.873  0.375-  33 2.26  37 2.26  59 2.29  63 2.29
  32  0.625  0.873  0.375-  38 2.26  34 2.26  60 2.29  64 2.29
  33  0.998  0.004  0.500-  24 2.26  31 2.26  26 2.27  17 2.27
  34  0.498  0.004  0.500-  23 2.26  32 2.26  25 2.27  18 2.27
  35  0.998  0.504  0.500-  22 2.26  29 2.26  28 2.27  19 2.27
  36  0.498  0.504  0.500-  21 2.26  30 2.26  27 2.27  20 2.27
  37  0.252  0.004  0.250-   7 2.26  31 2.26  25 2.27   1 2.27
  38  0.752  0.004  0.250-   8 2.26  32 2.26  26 2.27   2 2.27
  39  0.252  0.504  0.250-   5 2.26  29 2.26  27 2.27   3 2.27
  40  0.752  0.504  0.250-   6 2.26  30 2.26  28 2.27   4 2.27
  41  0.248  0.254  0.000-   1 2.26  13 2.26   9 2.27   5 2.27
  42  0.748  0.254  0.000-   2 2.26  14 2.26  10 2.27   6 2.27
  43  0.248  0.754  0.000-   3 2.26  15 2.26  11 2.27   7 2.27
  44  0.748  0.754  0.000-   4 2.26  16 2.26  12 2.27   8 2.27
  45  0.002  0.254  0.750-  17 2.26  14 2.26   9 2.27  22 2.27
  46  0.502  0.254  0.750-  18 2.26  13 2.26  10 2.27  21 2.27
  47  0.002  0.754  0.750-  19 2.26  16 2.26  11 2.27  24 2.27
  48  0.502  0.754  0.750-  20 2.26  15 2.26  12 2.27  23 2.27
  49  0.999  0.004  0.000-   8 2.26  11 2.27  14 2.29   1 2.29
  50  0.499  0.004  0.000-   7 2.26  12 2.27  13 2.29   2 2.29
  51  0.999  0.504  0.000-   6 2.26   9 2.27  16 2.29   3 2.29
  52  0.499  0.504  0.000-   5 2.26  10 2.27  15 2.29   4 2.29
  53  0.251  0.004  0.750-  23 2.26  11 2.27  13 2.29  17 2.29
  54  0.751  0.004  0.750-  24 2.26  12 2.27  14 2.29  18 2.29
  55  0.251  0.504  0.750-  21 2.26   9 2.27  15 2.29  19 2.29
  56  0.751  0.504  0.750-  22 2.26  10 2.27  16 2.29  20 2.29
  57  0.249  0.254  0.500-  17 2.26  25 2.27  29 2.29  21 2.29
  58  0.749  0.254  0.500-  18 2.26  26 2.27  30 2.29  22 2.29
  59  0.249  0.754  0.500-  19 2.26  27 2.27  31 2.29  23 2.29
  60  0.749  0.754  0.500-  20 2.26  28 2.27  32 2.29  24 2.29
  61  0.001  0.254  0.250-   1 2.26  26 2.27  29 2.29   6 2.29
  62  0.501  0.254  0.250-   2 2.26  25 2.27  30 2.29   5 2.29
  63  0.001  0.754  0.250-   3 2.26  28 2.27  31 2.29   8 2.29
  64  0.501  0.754  0.250-   4 2.26  27 2.27  32 2.29   7 2.29
 
  LATTYP: Found a simple monoclinic cell.
 ALAT       =    15.3658758987
 B/A-ratio  =     0.6847579057
 C/A-ratio  =     1.5651381512
 COS(beta)  =    -0.9554070705
  
  Lattice vectors:
  
 A1 = ( -10.9156310000,   0.0000000000, -10.8147650000)
 A2 = (   0.0000000000, -10.5219050000,   0.0000000000)
 A3 = (  11.3243350000,   0.0000000000,  21.2167010000)


Analysis of symmetry for initial positions (statically):
=====================================================================
 Subroutine PRICEL returns following result:
 
  LATTYP: Found a base centered monoclinic cell.
 ALAT       =    11.2880624232
 B/A-ratio  =     0.4660633776
 C/A-ratio  =     0.9222098300
 COS(beta)  =    -0.8027609435
  
  Lattice vectors:
  
 A1 = (  -2.4223797500,  -2.6304762500,   5.0977607500)
 A2 = (  -2.4223797500,   2.6304762500,   5.0977607500)
 A3 = (  -0.4087040000,   0.0000000000, -10.4019360000)
 
   8 primitive cells build up your supercell.
 

 Routine SETGRP: Setting up the symmetry group for a 
 simple monoclinic supercell.


 Subroutine GETGRP returns: Found  2 space group operations
 (whereof  1 operations were pure point group operations)
 out of a pool of  4 trial point group operations.


The static configuration has the point symmetry C_1 .
 The point group associated with its full space group is C_2 .


Analysis of symmetry for dynamics (positions and initial velocities):
=====================================================================
 Subroutine PRICEL returns following result:
 
  LATTYP: Found a base centered monoclinic cell.
 ALAT       =    11.2880624232
 B/A-ratio  =     0.4660633776
 C/A-ratio  =     0.9222098300
 COS(beta)  =    -0.8027609435
  
  Lattice vectors:
  
 A1 = (  -2.4223797500,  -2.6304762500,   5.0977607500)
 A2 = (  -2.4223797500,   2.6304762500,   5.0977607500)
 A3 = (  -0.4087040000,   0.0000000000, -10.4019360000)
 
   8 primitive cells build up your supercell.
 

 Routine SETGRP: Setting up the symmetry group for a 
 simple monoclinic supercell.


 Subroutine GETGRP returns: Found  2 space group operations
 (whereof  1 operations were pure point group operations)
 out of a pool of  4 trial point group operations.


The dynamic configuration has the point symmetry C_1 .
 The point group associated with its full space group is C_2 .


Analysis of structural, dynamic, and magnetic symmetry:
=====================================================================
 Subroutine PRICEL returns following result:
 
  LATTYP: Found a base centered monoclinic cell.
 ALAT       =    11.2880624232
 B/A-ratio  =     0.4660633776
 C/A-ratio  =     0.9222098300
 COS(beta)  =    -0.8027609435
  
  Lattice vectors:
  
 A1 = (  -2.4223797500,  -2.6304762500,   5.0977607500)
 A2 = (  -2.4223797500,   2.6304762500,   5.0977607500)
 A3 = (  -0.4087040000,   0.0000000000, -10.4019360000)
 
   8 primitive cells build up your supercell.
 

 Routine SETGRP: Setting up the symmetry group for a 
 simple monoclinic supercell.


 Subroutine GETGRP returns: Found  2 space group operations
 (whereof  1 operations were pure point group operations)
 out of a pool of  4 trial point group operations.


The magnetic configuration has the point symmetry C_1 .
 The point group associated with its full space group is C_2 .


 Subroutine INISYM returns: Found  2 space group operations
 (whereof  1 operations are pure point group operations),
 and found     8 'primitive' translations

 
 
 KPOINTS: Automatic mesh                          

Automatic generation of k-mesh.
Space group operators:
 irot       det(A)        alpha          n_x          n_y          n_z        tau_x        tau_y        tau_z
    1     1.000000     0.000000     1.000000     0.000000     0.000000     0.000000     0.000000     0.000000
    2     1.000000   179.999999     0.000000     1.000000     0.000000    -0.250000     0.000000    -0.250000
 
 Subroutine IBZKPT returns following result:
 ===========================================
 
 Found      8 irreducible k-points:
 
 Following reciprocal coordinates:
            Coordinates               Weight
  0.000000  0.000000  0.000000      1.000000
  0.500000  0.000000  0.000000      1.000000
  0.000000  0.500000  0.000000      1.000000
  0.500000  0.500000  0.000000      1.000000
  0.000000  0.000000  0.500000      1.000000
  0.500000  0.000000  0.500000      1.000000
  0.000000  0.500000  0.500000      1.000000
  0.500000  0.500000  0.500000      1.000000
 
 Following cartesian coordinates:
            Coordinates               Weight
  0.000000  0.000000  0.000000      1.000000
  0.047661  0.000000 -0.001873      1.000000
  0.000000  0.047520  0.000000      1.000000
  0.047661  0.047520 -0.001873      1.000000
 -0.001892  0.000000  0.048142      1.000000
  0.045770  0.000000  0.046270      1.000000
 -0.001892  0.047520  0.048142      1.000000
  0.045770  0.047520  0.046270      1.000000
 
 TETIRR: Found     24 inequivalent tetrahedra from       48
 
 Subroutine IBZKPT_HF returns following result:
 ==============================================
 
 Found      8 k-points in 1st BZ
 the following      8 k-points will be used (e.g. in the exchange kernel)
 Following reciprocal coordinates:   # in IRBZ
  0.000000  0.000000  0.000000    0.12500000   1 t-inv F
  0.500000  0.000000  0.000000    0.12500000   2 t-inv F
  0.000000  0.500000  0.000000    0.12500000   3 t-inv F
  0.500000  0.500000  0.000000    0.12500000   4 t-inv F
  0.000000  0.000000  0.500000    0.12500000   5 t-inv F
  0.500000  0.000000  0.500000    0.12500000   6 t-inv F
  0.000000  0.500000  0.500000    0.12500000   7 t-inv F
  0.500000  0.500000  0.500000    0.12500000   8 t-inv F


--------------------------------------------------------------------------------------------------------




 Dimension of arrays:
   k-points           NKPTS =      8   k-points in BZ     NKDIM =      8   number of bands    NBANDS=    512
   number of dos      NEDOS =    301   number of ions     NIONS =     64
   non local maximal  LDIM  =      6   non local SUM 2l+1 LMDIM =     18
   total plane-waves  NPLWV = 829440
   max r-space proj   IRMAX =      1   max aug-charges    IRDMAX=  22956
   dimension x,y,z NGX =    96 NGY =   96 NGZ =   90
   dimension x,y,z NGXF=   192 NGYF=  192 NGZF=  180
   support grid    NGXF=   192 NGYF=  192 NGZF=  180
   ions per type =              32  16  16
   NGX,Y,Z   is equivalent  to a cutoff of  15.18, 15.17, 14.37 a.u.
   NGXF,Y,Z  is equivalent  to a cutoff of  30.36, 30.34, 28.75 a.u.

 SYSTEM =  CuFeS2                                  
 POSCAR =  Fe16 Cu16 S32                           

 Startparameter for this run:
   NWRITE =      2    write-flag & timer
   PREC   = accura    normal or accurate (medium, high low for compatibility)
   ISTART =      0    job   : 0-new  1-cont  2-samecut
   ICHARG =      1    charge: 1-file 2-atom 10-const
   ISPIN  =      2    spin polarized calculation?
   LNONCOLLINEAR =      F non collinear calculations
   LSORBIT =      F    spin-orbit coupling
   INIWAV =      1    electr: 0-lowe 1-rand  2-diag
   LASPH  =      F    aspherical Exc in radial PAW
   METAGGA=      F    non-selfconsistent MetaGGA calc.

 Electronic Relaxation 1
   ENCUT  =  700.0 eV  51.45 Ry    7.17 a.u.  22.68 22.70 22.46*2*pi/ulx,y,z
   ENINI  =  700.0     initial cutoff
   ENAUG  =  758.2 eV  augmentation charge cutoff
   NELM   =    500;   NELMIN=  2; NELMDL=  0     # of ELM steps 
   EDIFF  = 0.1E-07   stopping-criterion for ELM
   LREAL  =      F    real-space projection
   NLSPLINE    = F    spline interpolate recip. space projectors
   LCOMPAT=      F    compatible to vasp.4.4
   GGA_COMPAT  = T    GGA compatible to vasp.4.4-vasp.4.6
   LMAXPAW     = -100 max onsite density
   LMAXMIX     =    4 max onsite mixed and CHGCAR
   VOSKOWN=      0    Vosko Wilk Nusair interpolation
   ROPT   =    0.00000   0.00000   0.00000
 Ionic relaxation
   EDIFFG = -.1E-04   stopping-criterion for IOM
   NSW    =      0    number of steps for IOM
   NBLOCK =      1;   KBLOCK =      1    inner block; outer block 
   IBRION =     -1    ionic relax: 0-MD 1-quasi-New 2-CG
   NFREE  =      0    steps in history (QN), initial steepest desc. (CG)
   ISIF   =      2    stress and relaxation
   IWAVPR =     10    prediction:  0-non 1-charg 2-wave 3-comb
   ISYM   =      2    0-nonsym 1-usesym 2-fastsym
   LCORR  =      T    Harris-Foulkes like correction to forces

   POTIM  = 0.5000    time-step for ionic-motion
   TEIN   =    0.0    initial temperature
   TEBEG  =    0.0;   TEEND  =   0.0 temperature during run
   SMASS  =  -3.00    Nose mass-parameter (am)
   estimated Nose-frequenzy (Omega)   =  0.10E-29 period in steps =****** mass=  -0.253E-26a.u.
   SCALEE = 1.0000    scale energy and forces
   NPACO  =    256;   APACO  = 16.0  distance and # of slots for P.C.
   PSTRESS=    0.0 pullay stress

  Mass of Ions in am
   POMASS =  32.07 63.55 55.85
  Ionic Valenz
   ZVAL   =   6.00 17.00 14.00
  Atomic Wigner-Seitz radii
   RWIGS  =  -1.00 -1.00 -1.00
  virtual crystal weights 
   VCA    =   1.00  1.00  1.00
   NELECT =     688.0000    total number of electrons
   NUPDOWN=      -1.0000    fix difference up-down

 DOS related values:
   EMIN   =  10.00;   EMAX   =-10.00  energy-range for DOS
   EFERMI =   0.00
   ISMEAR =    -5;   SIGMA  =   0.03  broadening in eV -4-tet -1-fermi 0-gaus

 Electronic relaxation 2 (details)
   IALGO  =     38    algorithm
   LDIAG  =      T    sub-space diagonalisation (order eigenvalues)
   LSUBROT=      F    optimize rotation matrix (better conditioning)
   TURBO    =      0    0=normal 1=particle mesh
   IRESTART =      0    0=no restart 2=restart with 2 vectors
   NREBOOT  =      0    no. of reboots
   NMIN     =      0    reboot dimension
   EREF     =   0.00    reference energy to select bands
   IMIX   =      4    mixing-type and parameters
     AMIX     =   0.40;   BMIX     =  1.00
     AMIX_MAG =   1.60;   BMIX_MAG =  1.00
     AMIN     =   0.10
     WC   =   100.;   INIMIX=   1;  MIXPRE=   1;  MAXMIX= -45

 Intra band minimization:
   WEIMIN = 0.0000     energy-eigenvalue tresh-hold
   EBREAK =  0.49E-11  absolut break condition
   DEPER  =   0.30     relativ break condition  

   TIME   =   0.40     timestep for ELM

  volume/ion in A,a.u.               =      17.94       121.07
  Fermi-wavevector in a.u.,A,eV,Ry     =   1.380172  2.608147 25.917395  1.904875
  Thomas-Fermi vector in A             =   2.505074
 
 Write flags
   LWAVE        =      T    write WAVECAR
   LDOWNSAMPLE  =      F    k-point downsampling of WAVECAR
   LCHARG       =      T    write CHGCAR
   LVTOT        =      F    write LOCPOT, total local potential
   LVHAR        =      F    write LOCPOT, Hartree potential only
   LELF         =      F    write electronic localiz. function (ELF)
   LORBIT       =     11    0 simple, 1 ext, 2 COOP (PROOUT), +10 PAW based schemes


 Dipole corrections
   LMONO  =      F    monopole corrections only (constant potential shift)
   LDIPOL =      F    correct potential (dipole corrections)
   IDIPOL =      0    1-x, 2-y, 3-z, 4-all directions 
   EPSILON=  1.0000000 bulk dielectric constant

 LDA+U is selected, type is set to LDAUTYPE =  2
   angular momentum for each species LDAUL =     2    2    2
   U (eV)           for each species LDAUU =   0.0  0.1  4.7
   J (eV)           for each species LDAUJ =   0.0  0.0  0.0
 Exchange correlation treatment:
   GGA     =    PS    GGA type
   LEXCH   =    14    internal setting for exchange type
   VOSKOWN=      0    Vosko Wilk Nusair interpolation
   LHFCALC =     F    Hartree Fock is set to
   LHFONE  =     F    Hartree Fock one center treatment
   AEXX    =    0.0000 exact exchange contribution

 Linear response parameters
   LEPSILON=     F    determine dielectric tensor
   LRPA    =     F    only Hartree local field effects (RPA)
   LNABLA  =     F    use nabla operator in PAW spheres
   LVEL    =     F    velocity operator in full k-point grid
   LINTERFAST=   F  fast interpolation
   KINTER  =     0    interpolate to denser k-point grid
   CSHIFT  =0.1000    complex shift for real part using Kramers Kronig
   OMEGAMAX=  -1.0    maximum frequency
   DEG_THRESHOLD= 0.2000000E-02 threshold for treating states as degnerate
   RTIME   =   -0.100 relaxation time in fs
  (WPLASMAI=    0.000 imaginary part of plasma frequency in eV, 0.658/RTIME)
   DFIELD  = 0.0000000 0.0000000 0.0000000 field for delta impulse in time
 
 Orbital magnetization related:
   ORBITALMAG=     F  switch on orbital magnetization
   LCHIMAG   =     F  perturbation theory with respect to B field
   DQ        =  0.001000  dq finite difference perturbation B field
   LLRAUG    =     F  two centre corrections for induced B field

 PEAD related settings:
   LPEAD      =     T    switch on PEAD
   IPEAD      =     4    finite difference order for dpsi/dk
   LCALCPOL   =     T    calculate macroscopic polarization
   LCALCEPS   =     F    calculate dielectric tensor
   EFIELD_PEAD=    0.0000    0.0000    0.0000
   SKIP_EDOTP =     F
   LRPA       =     F
   SKIP_SCF   =     F


--------------------------------------------------------------------------------------------------------


 Static calculation
 charge density and potential will be updated during run
 spin polarized calculation
 Variant of blocked Davidson
 Davidson routine will perform the subspace rotation
 perform sub-space diagonalisation
    after iterative eigenvector-optimisation
 modified Broyden-mixing scheme, WC =      100.0
 initial mixing is a Kerker type mixing with AMIX =  0.4000 and BMIX =      1.0000
 Hartree-type preconditioning will be used
 using additional bands          168
 reciprocal scheme for non local part
 use partial core corrections
 calculate Harris-corrections to forces 
   (improved forces if not selfconsistent)
 use gradient corrections 
 use of overlap-Matrix (Vanderbilt PP)
 Fermi weights with tetrahedron method with Bloechl corrections


--------------------------------------------------------------------------------------------------------


  energy-cutoff  :      700.00
  volume of cell :     1148.19
      direct lattice vectors                 reciprocal lattice vectors
    10.506927000  0.000000000  0.412829000     0.095322465  0.000000000 -0.003745329
     0.000000000 10.521905000  0.000000000     0.000000000  0.095039824  0.000000000
     0.408704000  0.000000000 10.401936000    -0.003783130  0.000000000  0.096284594

  length of vectors
    10.515034131 10.521905000 10.409962128     0.095396016  0.095039824  0.096358887


 
 k-points in units of 2pi/SCALE and weight: Automatic mesh                          
   0.00000000  0.00000000  0.00000000       0.125
   0.04766123  0.00000000 -0.00187266       0.125
   0.00000000  0.04751991  0.00000000       0.125
   0.04766123  0.04751991 -0.00187266       0.125
  -0.00189157  0.00000000  0.04814230       0.125
   0.04576967  0.00000000  0.04626963       0.125
  -0.00189157  0.04751991  0.04814230       0.125
   0.04576967  0.04751991  0.04626963       0.125
 
 k-points in reciprocal lattice and weights: Automatic mesh                          
   0.00000000  0.00000000  0.00000000       0.125
   0.50000000  0.00000000  0.00000000       0.125
   0.00000000  0.50000000  0.00000000       0.125
   0.50000000  0.50000000  0.00000000       0.125
   0.00000000  0.00000000  0.50000000       0.125
   0.50000000  0.00000000  0.50000000       0.125
   0.00000000  0.50000000  0.50000000       0.125
   0.50000000  0.50000000  0.50000000       0.125
 
 position of ions in fractional coordinates (direct lattice) 
   0.12630100  0.11999600  0.12577600
   0.62630100  0.11999600  0.12577600
   0.12630100  0.61999600  0.12577600
   0.62630100  0.61999600  0.12577600
   0.37369900  0.36999600  0.12422400
   0.87369900  0.36999600  0.12422400
   0.37369900  0.86999600  0.12422400
   0.87369900  0.86999600  0.12422400
   0.12500000  0.37073900  0.87500000
   0.62500000  0.37073900  0.87500000
   0.12500000  0.87073900  0.87500000
   0.62500000  0.87073900  0.87500000
   0.37500000  0.12263700  0.87500000
   0.87500000  0.12263700  0.87500000
   0.37500000  0.62263700  0.87500000
   0.87500000  0.62263700  0.87500000
   0.12369900  0.11999600  0.62422400
   0.62369900  0.11999600  0.62422400
   0.12369900  0.61999600  0.62422400
   0.62369900  0.61999600  0.62422400
   0.37630100  0.36999600  0.62577600
   0.87630100  0.36999600  0.62577600
   0.37630100  0.86999600  0.62577600
   0.87630100  0.86999600  0.62577600
   0.37500000  0.12073900  0.37500000
   0.87500000  0.12073900  0.37500000
   0.37500000  0.62073900  0.37500000
   0.87500000  0.62073900  0.37500000
   0.12500000  0.37263700  0.37500000
   0.62500000  0.37263700  0.37500000
   0.12500000  0.87263700  0.37500000
   0.62500000  0.87263700  0.37500000
   0.99831000  0.00423600  0.50001100
   0.49831000  0.00423600  0.50001100
   0.99831000  0.50423600  0.50001100
   0.49831000  0.50423600  0.50001100
   0.25169000  0.00423600  0.24998900
   0.75169000  0.00423600  0.24998900
   0.25169000  0.50423600  0.24998900
   0.75169000  0.50423600  0.24998900
   0.24831000  0.25423600  0.00001100
   0.74831000  0.25423600  0.00001100
   0.24831000  0.75423600  0.00001100
   0.74831000  0.75423600  0.00001100
   0.00169000  0.25423600  0.74998900
   0.50169000  0.25423600  0.74998900
   0.00169000  0.75423600  0.74998900
   0.50169000  0.75423600  0.74998900
   0.99908000  0.00408000  0.00039500
   0.49908000  0.00408000  0.00039500
   0.99908000  0.50408000  0.00039500
   0.49908000  0.50408000  0.00039500
   0.25092000  0.00408000  0.74960500
   0.75092000  0.00408000  0.74960500
   0.25092000  0.50408000  0.74960500
   0.75092000  0.50408000  0.74960500
   0.24908000  0.25408000  0.50039500
   0.74908000  0.25408000  0.50039500
   0.24908000  0.75408000  0.50039500
   0.74908000  0.75408000  0.50039500
   0.00092000  0.25408000  0.24960500
   0.50092000  0.25408000  0.24960500
   0.00092000  0.75408000  0.24960500
   0.50092000  0.75408000  0.24960500
 
 position of ions in cartesian coordinates  (Angst):
   1.37844054  1.26258651  1.36045462
   6.63190404  1.26258651  1.56686912
   1.37844054  6.52353901  1.36045462
   6.63190404  6.52353901  1.56686912
   3.97719896  3.89306276  1.44644388
   9.23066246  3.89306276  1.65285838
   3.97719896  9.15401526  1.44644388
   9.23066246  9.15401526  1.65285838
   1.67098187  3.90088054  9.15329762
   6.92444537  3.90088054  9.35971212
   1.67098187  9.16183304  9.15329762
   6.92444537  9.16183304  9.35971212
   4.29771363  1.29037486  9.25650487
   9.55117712  1.29037486  9.46291937
   4.29771363  6.55132736  9.25650487
   9.55117712  6.55132736  9.46291937
   1.55481921  1.26258651  6.54420463
   6.80828271  1.26258651  6.75061913
   1.55481921  6.52353901  6.54420463
   6.80828271  6.52353901  6.75061913
   4.20952429  3.89306276  6.66462987
   9.46298779  3.89306276  6.87104437
   4.20952429  9.15401526  6.66462987
   9.46298779  9.15401526  6.87104437
   4.09336163  1.27040429  4.05553687
   9.34682512  1.27040429  4.26195137
   4.09336163  6.53135679  4.05553687
   9.34682512  6.53135679  4.26195137
   1.46662987  3.92085111  3.95232962
   6.72009337  3.92085111  4.15874413
   1.46662987  9.18180361  3.95232962
   6.72009337  9.18180361  4.15874413
  10.69352679  0.04457079  5.61321374
   5.44006329  0.04457079  5.40679924
  10.69352679  5.30552329  5.61321374
   5.44006329  5.30552329  5.40679924
   2.74665996  0.04457079  2.70427451
   8.00012346  0.04457079  2.91068901
   2.74665996  5.30552329  2.70427451
   8.00012346  5.30552329  2.91068901
   2.60897954  2.67504704  0.10262399
   7.86244304  2.67504704  0.30903849
   2.60897954  7.93599954  0.10262399
   7.86244304  7.93599954  0.30903849
   0.32428021  2.67504704  7.80203526
   5.57774371  2.67504704  8.00844976
   0.32428021  7.93599954  7.80203526
   5.57774371  7.93599954  8.00844976
  10.49742207  0.04292937  0.41655796
   5.24395857  0.04292937  0.21014346
  10.49742207  5.30388187  0.41655796
   5.24395857  5.30388187  0.21014346
   2.94276468  0.04292937  7.90093029
   8.19622818  0.04292937  8.10734479
   2.94276468  5.30388187  7.90093029
   8.19622818  5.30388187  8.10734479
   2.82157882  2.67340562  5.30790421
   8.07504232  2.67340562  5.51431871
   2.82157882  7.93435812  5.30790421
   8.07504232  7.93435812  5.51431871
   0.11168093  2.67340562  2.59675504
   5.36514443  2.67340562  2.80316954
   0.11168093  7.93435812  2.59675504
   5.36514443  7.93435812  2.80316954
 


--------------------------------------------------------------------------------------------------------


 k-point  1 :   0.0000 0.0000 0.0000  plane waves:   48295
 k-point  2 :   0.5000 0.0000 0.0000  plane waves:   48316
 k-point  3 :   0.0000 0.5000 0.0000  plane waves:   48338
 k-point  4 :   0.5000 0.5000 0.0000  plane waves:   48292
 k-point  5 :   0.0000 0.0000 0.5000  plane waves:   48332
 k-point  6 :   0.5000 0.0000 0.5000  plane waves:   48312
 k-point  7 :   0.0000 0.5000 0.5000  plane waves:   48244
 k-point  8 :   0.5000 0.5000 0.5000  plane waves:   48260

 maximum and minimum number of plane-waves per node :     48338    48244

 maximum number of plane-waves:     48338
 maximum index in each direction: 
   IXMAX=   22   IYMAX=   22   IZMAX=   22
   IXMIN=  -23   IYMIN=  -23   IZMIN=  -22


 serial   3D FFT for wavefunctions
 parallel 3D FFT for charge:
    minimum data exchange during FFTs selected (reduces bandwidth)


 total amount of memory used by VASP MPI-rank0   348353. kBytes
=======================================================================

   base      :      30000. kBytes
   nonl-proj :     216760. kBytes
   fftplans  :       4588. kBytes
   grid      :      69719. kBytes
   one-center:       1990. kBytes
   wavefun   :      25296. kBytes
 
     INWAV:  cpu time    0.0000: real time    0.0000
 Broyden mixing: mesh for mixing (old mesh)
   NGX = 45   NGY = 45   NGZ = 45
  (NGX  =192   NGY  =192   NGZ  =180)
  gives a total of  91125 points

 initial charge density was supplied:
 number of electron     688.0000147 magnetization      -0.0000000
 keeping initial charge density in first step


--------------------------------------------------------------------------------------------------------


 Maximum index for augmentation-charges          894 (set IRDMAX)


--------------------------------------------------------------------------------------------------------


 First call to EWALD:  gamma=   0.169
 Maximum number of real-space cells 3x 3x 3
 Maximum number of reciprocal cells 3x 3x 3

    FEWALD:  cpu time    0.0027: real time    0.0030


--------------------------------------- Iteration      1(   1)  ---------------------------------------


    POTLOK:  cpu time    0.4012: real time    0.4505
    SETDIJ:  cpu time    0.0148: real time    0.0151
     EDDAV:  cpu time   84.3066: real time   85.0002
 BZINTS: Fermi energy: 14.993725;688.000000 electrons
         Band energy:***********;  BLOECHL correction: -0.012605
       DOS:  cpu time    0.0417: real time    0.0419
    --------------------------------------------
      LOOP:  cpu time   84.7644: real time   85.5076

 eigenvalue-minimisations  : 16384
 total energy-change (2. order) : 0.6055861E+04  (-0.5159265E+05)
 number of electron     688.0000147 magnetization      -0.0000000
 augmentation part      688.0000147 magnetization      -0.0000000

 Free energy of the ion-electron system (eV)
  ---------------------------------------------------
  alpha Z        PSCENC =      2361.24115574
  Ewald energy   TEWEN  =    -62538.49468419
  -Hartree energ DENC   =    -42896.65453243
  -exchange      EXHF   =         0.00000000
  -V(xc)+E(xc)   XCENC  =      3285.96431238
  PAW double counting   =    112202.23326047  -115894.98524000
  entropy T*S    EENTRO =         0.00000000
  eigenvalues    EBANDS =     -4483.50848560
  atomic energy  EATOM  =    114020.06510763
  Solvation  Ediel_sol  =         0.00000000
  ---------------------------------------------------
  free energy    TOTEN  =      6055.86089401 eV

  energy without entropy =     6055.86089401  energy(sigma->0) =     6055.86089401


--------------------------------------------------------------------------------------------------------




--------------------------------------- Iteration      1(   2)  ---------------------------------------


     EDDAV:  cpu time  100.3998: real time  101.1515
 BZINTS: Fermi energy:  5.508749;688.000000 electrons
         Band energy:***********;  BLOECHL correction:  0.000000
       DOS:  cpu time    0.0062: real time    0.0062
    --------------------------------------------
      LOOP:  cpu time  100.4060: real time  101.1577

 eigenvalue-minimisations  : 18176
 total energy-change (2. order) :-0.6133710E+04  (-0.6023352E+04)
 number of electron     688.0000147 magnetization      -0.0000000
 augmentation part      688.0000147 magnetization      -0.0000000

 Free energy of the ion-electron system (eV)
  ---------------------------------------------------
  alpha Z        PSCENC =      2361.24115574
  Ewald energy   TEWEN  =    -62538.49468419
  -Hartree energ DENC   =    -42896.65453243
  -exchange      EXHF   =         0.00000000
  -V(xc)+E(xc)   XCENC  =      3285.96431238
  PAW double counting   =    112202.23326047  -115894.98524000
  entropy T*S    EENTRO =         0.00000000
  eigenvalues    EBANDS =    -10617.21802157
  atomic energy  EATOM  =    114020.06510763
  Solvation  Ediel_sol  =         0.00000000
  ---------------------------------------------------
  free energy    TOTEN  =       -77.84864197 eV

  energy without entropy =      -77.84864197  energy(sigma->0) =      -77.84864197


--------------------------------------------------------------------------------------------------------




--------------------------------------- Iteration      1(   3)  ---------------------------------------


     EDDAV:  cpu time  155.3955: real time  156.4560
 BZINTS: Fermi energy:  4.962628;688.000000 electrons
         Band energy:***********;  BLOECHL correction:  0.000000
       DOS:  cpu time    0.0053: real time    0.0053
    --------------------------------------------
      LOOP:  cpu time  155.4008: real time  156.4613

 eigenvalue-minimisations  : 22784
 total energy-change (2. order) :-0.2464508E+03  (-0.2455797E+03)
 number of electron     688.0000147 magnetization      -0.0000000
 augmentation part      688.0000147 magnetization      -0.0000000

 Free energy of the ion-electron system (eV)
  ---------------------------------------------------
  alpha Z        PSCENC =      2361.24115574
  Ewald energy   TEWEN  =    -62538.49468419
  -Hartree energ DENC   =    -42896.65453243
  -exchange      EXHF   =         0.00000000
  -V(xc)+E(xc)   XCENC  =      3285.96431238
  PAW double counting   =    112202.23326047  -115894.98524000
  entropy T*S    EENTRO =         0.00000000
  eigenvalues    EBANDS =    -10863.66884218
  atomic energy  EATOM  =    114020.06510763
  Solvation  Ediel_sol  =         0.00000000
  ---------------------------------------------------
  free energy    TOTEN  =      -324.29946258 eV

  energy without entropy =     -324.29946258  energy(sigma->0) =     -324.29946258


--------------------------------------------------------------------------------------------------------




--------------------------------------- Iteration      1(   4)  ---------------------------------------


     EDDAV:  cpu time  130.4421: real time  131.3498
 BZINTS: Fermi energy:  5.049482;688.000000 electrons
         Band energy:***********;  BLOECHL correction:  0.000000
       DOS:  cpu time    0.0060: real time    0.0061
    --------------------------------------------
      LOOP:  cpu time  130.4482: real time  131.3559

 eigenvalue-minimisations  : 19968
 total energy-change (2. order) :-0.3390390E+01  (-0.3390245E+01)
 number of electron     688.0000147 magnetization      -0.0000000
 augmentation part      688.0000147 magnetization      -0.0000000

 Free energy of the ion-electron system (eV)
  ---------------------------------------------------
  alpha Z        PSCENC =      2361.24115574
  Ewald energy   TEWEN  =    -62538.49468419
  -Hartree energ DENC   =    -42896.65453243
  -exchange      EXHF   =         0.00000000
  -V(xc)+E(xc)   XCENC  =      3285.96431238
  PAW double counting   =    112202.23326047  -115894.98524000
  entropy T*S    EENTRO =         0.00000000
  eigenvalues    EBANDS =    -10867.05923214
  atomic energy  EATOM  =    114020.06510763
  Solvation  Ediel_sol  =         0.00000000
  ---------------------------------------------------
  free energy    TOTEN  =      -327.68985254 eV

  energy without entropy =     -327.68985254  energy(sigma->0) =     -327.68985254


--------------------------------------------------------------------------------------------------------




--------------------------------------- Iteration      1(   5)  ---------------------------------------


     EDDAV:  cpu time  144.3161: real time  145.3256
 BZINTS: Fermi energy:  4.988872;688.000000 electrons
         Band energy:***********;  BLOECHL correction:  0.000000
       DOS:  cpu time    0.0060: real time    0.0060
    CHARGE:  cpu time    1.4645: real time    1.4734
    MIXING:  cpu time    0.0067: real time    0.0067
    --------------------------------------------
      LOOP:  cpu time  145.7933: real time  146.8118

 eigenvalue-minimisations  : 21504
 total energy-change (2. order) :-0.1034782E+00  (-0.1034777E+00)
 number of electron     688.0000149 magnetization      -0.0000000
 augmentation part      282.4363627 magnetization      -0.0000000

 Broyden mixing:
  rms(total) = 0.46544E+00    rms(broyden)= 0.46538E+00
  rms(prec ) = 0.51870E+00
  weight for this iteration     100.00

 Free energy of the ion-electron system (eV)
  ---------------------------------------------------
  alpha Z        PSCENC =      2361.24115574
  Ewald energy   TEWEN  =    -62538.49468419
  -Hartree energ DENC   =    -42896.65453243
  -exchange      EXHF   =         0.00000000
  -V(xc)+E(xc)   XCENC  =      3285.96431238
  PAW double counting   =    112202.23326047  -115894.98524000
  entropy T*S    EENTRO =         0.00000000
  eigenvalues    EBANDS =    -10867.16271033
  atomic energy  EATOM  =    114020.06510763
  Solvation  Ediel_sol  =         0.00000000
  ---------------------------------------------------
  free energy    TOTEN  =      -327.79333072 eV

  energy without entropy =     -327.79333072  energy(sigma->0) =     -327.79333072


--------------------------------------------------------------------------------------------------------




--------------------------------------- Iteration      1(   6)  ---------------------------------------


    POTLOK:  cpu time    0.1466: real time    0.1510
    SETDIJ:  cpu time    0.0132: real time    0.0133
     EDDAV:  cpu time  180.1508: real time  181.3675
 BZINTS: Fermi energy:  4.962593;688.000000 electrons
         Band energy:***********;  BLOECHL correction:  0.000000
       DOS:  cpu time    0.0068: real time    0.0069
    CHARGE:  cpu time    1.4174: real time    1.4271
    MIXING:  cpu time    0.0029: real time    0.0118
    --------------------------------------------
      LOOP:  cpu time  181.7378: real time  182.9776

 eigenvalue-minimisations  : 25600
 total energy-change (2. order) : 0.2489596E+00  (-0.3160154E-01)
 number of electron     688.0000149 magnetization      -0.0000000
 augmentation part      282.1054549 magnetization      -0.0000000

 Broyden mixing:
  rms(total) = 0.25321E+00    rms(broyden)= 0.25320E+00
  rms(prec ) = 0.28187E+00
  weight for this iteration     100.00

 eigenvalues of (default mixing * dielectric matrix)
  average eigenvalue GAMMA=   0.8757
  0.8757

 Free energy of the ion-electron system (eV)
  ---------------------------------------------------
  alpha Z        PSCENC =      2361.24115574
  Ewald energy   TEWEN  =    -62538.49468419
  -Hartree energ DENC   =    -42917.15125212
  -exchange      EXHF   =         0.00000000
  -V(xc)+E(xc)   XCENC  =      3286.65234806
  PAW double counting   =    112277.80541619  -115972.98143581
  entropy T*S    EENTRO =         0.00000000
  eigenvalues    EBANDS =    -10844.68102658
  atomic energy  EATOM  =    114020.06510763
  Solvation  Ediel_sol  =         0.00000000
  ---------------------------------------------------
  free energy    TOTEN  =      -327.54437108 eV

  energy without entropy =     -327.54437108  energy(sigma->0) =     -327.54437108


--------------------------------------------------------------------------------------------------------




--------------------------------------- Iteration      1(   7)  ---------------------------------------


    POTLOK:  cpu time    0.1463: real time    0.1505
    SETDIJ:  cpu time    0.0134: real time    0.0135
     EDDAV:  cpu time  159.6165: real time  160.7148
 BZINTS: Fermi energy:  4.939452;688.000000 electrons
         Band energy:***********;  BLOECHL correction:  0.000000
       DOS:  cpu time    0.0060: real time    0.0060
    CHARGE:  cpu time    1.4169: real time    1.4267
    MIXING:  cpu time    0.0020: real time    0.0041
    --------------------------------------------
      LOOP:  cpu time  161.2010: real time  162.3154

 eigenvalue-minimisations  : 23808
 total energy-change (2. order) : 0.6337139E-01  (-0.3078838E-01)
 number of electron     688.0000149 magnetization      -0.0000000
 augmentation part      282.3470553 magnetization      -0.0000000

 Broyden mixing:
  rms(total) = 0.17873E+00    rms(broyden)= 0.17873E+00
  rms(prec ) = 0.20368E+00
  weight for this iteration     100.00

 eigenvalues of (default mixing * dielectric matrix)
  average eigenvalue GAMMA=   1.1170
  1.6270  0.6069

 Free energy of the ion-electron system (eV)
  ---------------------------------------------------
  alpha Z        PSCENC =      2361.24115574
  Ewald energy   TEWEN  =    -62538.49468419
  -Hartree energ DENC   =    -42898.50146721
  -exchange      EXHF   =         0.00000000
  -V(xc)+E(xc)   XCENC  =      3286.13710132
  PAW double counting   =    112241.21099069  -115932.95376139
  entropy T*S    EENTRO =         0.00000000
  eigenvalues    EBANDS =    -10866.18544228
  atomic energy  EATOM  =    114020.06510763
  Solvation  Ediel_sol  =         0.00000000
  ---------------------------------------------------
  free energy    TOTEN  =      -327.48099969 eV

  energy without entropy =     -327.48099969  energy(sigma->0) =     -327.48099969


--------------------------------------------------------------------------------------------------------




--------------------------------------- Iteration      1(   8)  ---------------------------------------


    POTLOK:  cpu time    0.1494: real time    0.1517
    SETDIJ:  cpu time    0.0132: real time    0.0133
     EDDAV:  cpu time  164.7268: real time  165.8345
 BZINTS: Fermi energy:  4.951366;688.000000 electrons
         Band energy:***********;  BLOECHL correction:  0.000000
       DOS:  cpu time    0.0059: real time    0.0060
    CHARGE:  cpu time    1.4166: real time    1.4258
    MIXING:  cpu time    0.0016: real time    0.0016
    --------------------------------------------
      LOOP:  cpu time  166.3135: real time  167.4329

 eigenvalue-minimisations  : 23296
 total energy-change (2. order) : 0.9267778E-02  (-0.3734541E-01)
 number of electron     688.0000149 magnetization      -0.0000000
 augmentation part      282.3003033 magnetization      -0.0000000

 Broyden mixing:
  rms(total) = 0.16866E+00    rms(broyden)= 0.16866E+00
  rms(prec ) = 0.19653E+00
  weight for this iteration     100.00

 eigenvalues of (default mixing * dielectric matrix)
  average eigenvalue GAMMA=   0.8943
  1.7962  0.6099  0.2768

 Free energy of the ion-electron system (eV)
  ---------------------------------------------------
  alpha Z        PSCENC =      2361.24115574
  Ewald energy   TEWEN  =    -62538.49468419
  -Hartree energ DENC   =    -42910.47608040
  -exchange      EXHF   =         0.00000000
  -V(xc)+E(xc)   XCENC  =      3286.65921855
  PAW double counting   =    112239.22557581  -115932.09582526
  entropy T*S    EENTRO =         0.00000000
  eigenvalues    EBANDS =    -10853.59619979
  atomic energy  EATOM  =    114020.06510763
  Solvation  Ediel_sol  =         0.00000000
  ---------------------------------------------------
  free energy    TOTEN  =      -327.47173191 eV

  energy without entropy =     -327.47173191  energy(sigma->0) =     -327.47173191


--------------------------------------------------------------------------------------------------------




--------------------------------------- Iteration      1(   9)  ---------------------------------------


    POTLOK:  cpu time    0.1505: real time    0.1515
    SETDIJ:  cpu time    0.0135: real time    0.0136
     EDDAV:  cpu time  127.2759: real time  128.1754
 BZINTS: Fermi energy:  4.943626;688.000000 electrons
         Band energy:***********;  BLOECHL correction:  0.000000
       DOS:  cpu time    0.0060: real time    0.0060
    CHARGE:  cpu time    1.5679: real time    1.5776
    MIXING:  cpu time    0.0023: real time    0.0038
    --------------------------------------------
      LOOP:  cpu time  129.0160: real time  129.9278

 eigenvalue-minimisations  : 19968
 total energy-change (2. order) : 0.1006171E-01  (-0.8985127E-02)
 number of electron     688.0000149 magnetization      -0.0000000
 augmentation part      282.2448011 magnetization      -0.0000000

 Broyden mixing:
  rms(total) = 0.45440E-01    rms(broyden)= 0.45438E-01
  rms(prec ) = 0.47419E-01
  weight for this iteration     100.00

 eigenvalues of (default mixing * dielectric matrix)
  average eigenvalue GAMMA=   0.8948
  1.9753  0.7359  0.5371  0.3307

 Free energy of the ion-electron system (eV)
  ---------------------------------------------------
  alpha Z        PSCENC =      2361.24115574
  Ewald energy   TEWEN  =    -62538.49468419
  -Hartree energ DENC   =    -42909.89692994
  -exchange      EXHF   =         0.00000000
  -V(xc)+E(xc)   XCENC  =      3286.50596243
  PAW double counting   =    112236.56766253  -115929.76493438
  entropy T*S    EENTRO =         0.00000000
  eigenvalues    EBANDS =    -10853.68501002
  atomic energy  EATOM  =    114020.06510763
  Solvation  Ediel_sol  =         0.00000000
  ---------------------------------------------------
  free energy    TOTEN  =      -327.46167020 eV

  energy without entropy =     -327.46167020  energy(sigma->0) =     -327.46167020


--------------------------------------------------------------------------------------------------------




--------------------------------------- Iteration      1(  10)  ---------------------------------------


    POTLOK:  cpu time    0.1603: real time    0.1626
    SETDIJ:  cpu time    0.0155: real time    0.0156
     EDDAV:  cpu time  167.0106: real time  168.1302
 BZINTS: Fermi energy:  4.941099;688.000000 electrons
         Band energy:***********;  BLOECHL correction:  0.000000
       DOS:  cpu time    0.0059: real time    0.0060
    CHARGE:  cpu time    1.4180: real time    1.4265
    MIXING:  cpu time    0.0018: real time    0.0018
    --------------------------------------------
      LOOP:  cpu time  168.6121: real time  169.7426

 eigenvalue-minimisations  : 23808
 total energy-change (2. order) :-0.5294219E-03  (-0.5634161E-03)
 number of electron     688.0000149 magnetization      -0.0000000
 augmentation part      282.2231041 magnetization      -0.0000000

 Broyden mixing:
  rms(total) = 0.29199E-01    rms(broyden)= 0.29198E-01
  rms(prec ) = 0.30598E-01
  weight for this iteration     100.00

 eigenvalues of (default mixing * dielectric matrix)
  average eigenvalue GAMMA=   0.9780
  1.8189  1.5193  0.6664  0.5455  0.3398

 Free energy of the ion-electron system (eV)
  ---------------------------------------------------
  alpha Z        PSCENC =      2361.24115574
  Ewald energy   TEWEN  =    -62538.49468419
  -Hartree energ DENC   =    -42910.25780246
  -exchange      EXHF   =         0.00000000
  -V(xc)+E(xc)   XCENC  =      3286.49492156
  PAW double counting   =    112232.46503725  -115925.59829969
  entropy T*S    EENTRO =         0.00000000
  eigenvalues    EBANDS =    -10853.37763545
  atomic energy  EATOM  =    114020.06510763
  Solvation  Ediel_sol  =         0.00000000
  ---------------------------------------------------
  free energy    TOTEN  =      -327.46219962 eV

  energy without entropy =     -327.46219962  energy(sigma->0) =     -327.46219962


--------------------------------------------------------------------------------------------------------




--------------------------------------- Iteration      1(  11)  ---------------------------------------


    POTLOK:  cpu time    0.1468: real time    0.1496
    SETDIJ:  cpu time    0.0133: real time    0.0133
     EDDAV:  cpu time  125.7226: real time  126.6049
 BZINTS: Fermi energy:  4.940172;688.000000 electrons
         Band energy:***********;  BLOECHL correction:  0.000000
       DOS:  cpu time    0.0060: real time    0.0060
    CHARGE:  cpu time    1.4203: real time    1.4285
    MIXING:  cpu time    0.0018: real time    0.0018
    --------------------------------------------
      LOOP:  cpu time  127.3107: real time  128.2041

 eigenvalue-minimisations  : 19712
 total energy-change (2. order) :-0.4293668E-03  (-0.2036768E-03)
 number of electron     688.0000149 magnetization       0.0000000
 augmentation part      282.2435171 magnetization       0.0000000

 Broyden mixing:
  rms(total) = 0.13863E-01    rms(broyden)= 0.13863E-01
  rms(prec ) = 0.14155E-01
  weight for this iteration     100.00

 eigenvalues of (default mixing * dielectric matrix)
  average eigenvalue GAMMA=   1.1369
  2.1714  2.1714  0.8802  0.3381  0.6302  0.6302

 Free energy of the ion-electron system (eV)
  ---------------------------------------------------
  alpha Z        PSCENC =      2361.24115574
  Ewald energy   TEWEN  =    -62538.49468419
  -Hartree energ DENC   =    -42909.35225746
  -exchange      EXHF   =         0.00000000
  -V(xc)+E(xc)   XCENC  =      3286.47471509
  PAW double counting   =    112225.66738433  -115918.58131987
  entropy T*S    EENTRO =         0.00000000
  eigenvalues    EBANDS =    -10854.48273025
  atomic energy  EATOM  =    114020.06510763
  Solvation  Ediel_sol  =         0.00000000
  ---------------------------------------------------
  free energy    TOTEN  =      -327.46262899 eV

  energy without entropy =     -327.46262899  energy(sigma->0) =     -327.46262899


--------------------------------------------------------------------------------------------------------




--------------------------------------- Iteration      1(  12)  ---------------------------------------


    POTLOK:  cpu time    0.1500: real time    0.1511
    SETDIJ:  cpu time    0.0133: real time    0.0133
     EDDAV:  cpu time  148.9881: real time  150.0040
 BZINTS: Fermi energy:  4.940104;688.000000 electrons
         Band energy:***********;  BLOECHL correction:  0.000000
       DOS:  cpu time    0.0060: real time    0.0060
    CHARGE:  cpu time    1.4118: real time    1.4219
    MIXING:  cpu time    0.0019: real time    0.0019
    --------------------------------------------
      LOOP:  cpu time  150.5711: real time  151.5982

 eigenvalue-minimisations  : 21760
 total energy-change (2. order) :-0.3078874E-03  (-0.9456691E-04)
 number of electron     688.0000149 magnetization       0.0000000
 augmentation part      282.2320024 magnetization       0.0000000

 Broyden mixing:
  rms(total) = 0.56708E-02    rms(broyden)= 0.56704E-02
  rms(prec ) = 0.59974E-02
  weight for this iteration     100.00

 eigenvalues of (default mixing * dielectric matrix)
  average eigenvalue GAMMA=   1.1079
  2.2451  2.2451  0.9574  0.3380  0.6987  0.6354  0.6354

 Free energy of the ion-electron system (eV)
  ---------------------------------------------------
  alpha Z        PSCENC =      2361.24115574
  Ewald energy   TEWEN  =    -62538.49468419
  -Hartree energ DENC   =    -42910.02860441
  -exchange      EXHF   =         0.00000000
  -V(xc)+E(xc)   XCENC  =      3286.49082633
  PAW double counting   =    112221.15251038  -115914.16553135
  entropy T*S    EENTRO =         0.00000000
  eigenvalues    EBANDS =    -10853.72371701
  atomic energy  EATOM  =    114020.06510763
  Solvation  Ediel_sol  =         0.00000000
  ---------------------------------------------------
  free energy    TOTEN  =      -327.46293688 eV

  energy without entropy =     -327.46293688  energy(sigma->0) =     -327.46293688


--------------------------------------------------------------------------------------------------------




--------------------------------------- Iteration      1(  13)  ---------------------------------------


    POTLOK:  cpu time    0.1490: real time    0.1502
    SETDIJ:  cpu time    0.0133: real time    0.0133
     EDDAV:  cpu time  133.6348: real time  134.5627
 BZINTS: Fermi energy:  4.939602;688.000000 electrons
         Band energy:***********;  BLOECHL correction:  0.000000
       DOS:  cpu time    0.0060: real time    0.0060
    CHARGE:  cpu time    1.4245: real time    1.4348
    MIXING:  cpu time    0.0021: real time    0.0021
    --------------------------------------------
      LOOP:  cpu time  135.2296: real time  136.1692

 eigenvalue-minimisations  : 20224
 total energy-change (2. order) :-0.4941352E-04  (-0.1231741E-04)
 number of electron     688.0000149 magnetization       0.0000000
 augmentation part      282.2388341 magnetization       0.0000000

 Broyden mixing:
  rms(total) = 0.36990E-02    rms(broyden)= 0.36988E-02
  rms(prec ) = 0.39091E-02
  weight for this iteration     100.00

 eigenvalues of (default mixing * dielectric matrix)
  average eigenvalue GAMMA=   1.0943
  2.2618  2.2618  1.0296  1.0296  0.3380  0.6537  0.5900  0.5900

 Free energy of the ion-electron system (eV)
  ---------------------------------------------------
  alpha Z        PSCENC =      2361.24115574
  Ewald energy   TEWEN  =    -62538.49468419
  -Hartree energ DENC   =    -42909.62758882
  -exchange      EXHF   =         0.00000000
  -V(xc)+E(xc)   XCENC  =      3286.48188586
  PAW double counting   =    112219.83321058  -115912.78940102
  entropy T*S    EENTRO =         0.00000000
  eigenvalues    EBANDS =    -10854.17267206
  atomic energy  EATOM  =    114020.06510763
  Solvation  Ediel_sol  =         0.00000000
  ---------------------------------------------------
  free energy    TOTEN  =      -327.46298629 eV

  energy without entropy =     -327.46298629  energy(sigma->0) =     -327.46298629


--------------------------------------------------------------------------------------------------------




--------------------------------------- Iteration      1(  14)  ---------------------------------------


    POTLOK:  cpu time    0.1518: real time    0.1537
    SETDIJ:  cpu time    0.0136: real time    0.0137
     EDDAV:  cpu time  161.1412: real time  162.2292
 BZINTS: Fermi energy:  4.939489;688.000000 electrons
         Band energy:***********;  BLOECHL correction:  0.000000
       DOS:  cpu time    0.0060: real time    0.0060
    CHARGE:  cpu time    1.4115: real time    1.4218
    MIXING:  cpu time    0.0019: real time    0.0019
    --------------------------------------------
      LOOP:  cpu time  162.7261: real time  163.8264

 eigenvalue-minimisations  : 22784
 total energy-change (2. order) :-0.3260914E-04  (-0.7649629E-05)
 number of electron     688.0000149 magnetization       0.0000000
 augmentation part      282.2361323 magnetization       0.0000000

 Broyden mixing:
  rms(total) = 0.21327E-02    rms(broyden)= 0.21326E-02
  rms(prec ) = 0.22383E-02
  weight for this iteration     100.00

 eigenvalues of (default mixing * dielectric matrix)
  average eigenvalue GAMMA=   1.2055
  2.4791  2.4791  1.4987  1.4987  0.3380  0.5946  0.5946  0.6997  0.6673

 Free energy of the ion-electron system (eV)
  ---------------------------------------------------
  alpha Z        PSCENC =      2361.24115574
  Ewald energy   TEWEN  =    -62538.49468419
  -Hartree energ DENC   =    -42909.76546231
  -exchange      EXHF   =         0.00000000
  -V(xc)+E(xc)   XCENC  =      3286.48479548
  PAW double counting   =    112219.38358604  -115912.37312089
  entropy T*S    EENTRO =         0.00000000
  eigenvalues    EBANDS =    -10854.00439639
  atomic energy  EATOM  =    114020.06510763
  Solvation  Ediel_sol  =         0.00000000
  ---------------------------------------------------
  free energy    TOTEN  =      -327.46301890 eV

  energy without entropy =     -327.46301890  energy(sigma->0) =     -327.46301890


--------------------------------------------------------------------------------------------------------




--------------------------------------- Iteration      1(  15)  ---------------------------------------


    POTLOK:  cpu time    0.1443: real time    0.1492
    SETDIJ:  cpu time    0.0133: real time    0.0133
     EDDAV:  cpu time  142.8830: real time  143.8667
 BZINTS: Fermi energy:  4.939363;688.000000 electrons
         Band energy:***********;  BLOECHL correction:  0.000000
       DOS:  cpu time    0.0060: real time    0.0060
    CHARGE:  cpu time    1.4124: real time    1.4221
    MIXING:  cpu time    0.0021: real time    0.0021
    --------------------------------------------
      LOOP:  cpu time  144.4610: real time  145.4594

 eigenvalue-minimisations  : 20992
 total energy-change (2. order) :-0.2344274E-04  (-0.7867552E-05)
 number of electron     688.0000149 magnetization       0.0000000
 augmentation part      282.2358847 magnetization       0.0000000

 Broyden mixing:
  rms(total) = 0.11156E-02    rms(broyden)= 0.11153E-02
  rms(prec ) = 0.12406E-02
  weight for this iteration     100.00

 eigenvalues of (default mixing * dielectric matrix)
  average eigenvalue GAMMA=   1.2361
  3.0833  2.2392  1.9820  1.1037  1.1037  0.3380  0.5891  0.5891  0.7088  0.6242

 Free energy of the ion-electron system (eV)
  ---------------------------------------------------
  alpha Z        PSCENC =      2361.24115574
  Ewald energy   TEWEN  =    -62538.49468419
  -Hartree energ DENC   =    -42909.75813566
  -exchange      EXHF   =         0.00000000
  -V(xc)+E(xc)   XCENC  =      3286.48506996
  PAW double counting   =    112218.88462836  -115911.88208711
  entropy T*S    EENTRO =         0.00000000
  eigenvalues    EBANDS =    -10854.00409707
  atomic energy  EATOM  =    114020.06510763
  Solvation  Ediel_sol  =         0.00000000
  ---------------------------------------------------
  free energy    TOTEN  =      -327.46304234 eV

  energy without entropy =     -327.46304234  energy(sigma->0) =     -327.46304234


--------------------------------------------------------------------------------------------------------




--------------------------------------- Iteration      1(  16)  ---------------------------------------


    POTLOK:  cpu time    0.1489: real time    0.1514
    SETDIJ:  cpu time    0.0133: real time    0.0133
     EDDAV:  cpu time  146.3104: real time  147.3134
 BZINTS: Fermi energy:  4.939281;688.000000 electrons
         Band energy:***********;  BLOECHL correction:  0.000000
       DOS:  cpu time    0.0060: real time    0.0060
    CHARGE:  cpu time    1.4183: real time    1.4283
    MIXING:  cpu time    0.0025: real time    0.0033
    --------------------------------------------
      LOOP:  cpu time  147.8994: real time  148.9157

 eigenvalue-minimisations  : 20992
 total energy-change (2. order) :-0.5772614E-05  (-0.1873785E-05)
 number of electron     688.0000149 magnetization       0.0000000
 augmentation part      282.2368341 magnetization       0.0000000

 Broyden mixing:
  rms(total) = 0.73084E-03    rms(broyden)= 0.73071E-03
  rms(prec ) = 0.77023E-03
  weight for this iteration     100.00

 eigenvalues of (default mixing * dielectric matrix)
  average eigenvalue GAMMA=   1.2843
  3.3568  2.1839  2.1839  1.3419  1.3419  0.3380  0.8738  0.5874  0.5874  0.7054
  0.6276

 Free energy of the ion-electron system (eV)
  ---------------------------------------------------
  alpha Z        PSCENC =      2361.24115574
  Ewald energy   TEWEN  =    -62538.49468419
  -Hartree energ DENC   =    -42909.72774174
  -exchange      EXHF   =         0.00000000
  -V(xc)+E(xc)   XCENC  =      3286.48496621
  PAW double counting   =    112218.63602525  -115911.62959147
  entropy T*S    EENTRO =         0.00000000
  eigenvalues    EBANDS =    -10854.03828555
  atomic energy  EATOM  =    114020.06510763
  Solvation  Ediel_sol  =         0.00000000
  ---------------------------------------------------
  free energy    TOTEN  =      -327.46304811 eV

  energy without entropy =     -327.46304811  energy(sigma->0) =     -327.46304811


--------------------------------------------------------------------------------------------------------




--------------------------------------- Iteration      1(  17)  ---------------------------------------


    POTLOK:  cpu time    0.1476: real time    0.1503
    SETDIJ:  cpu time    0.0131: real time    0.0132
     EDDAV:  cpu time  120.7879: real time  121.6540
 BZINTS: Fermi energy:  4.939255;688.000000 electrons
         Band energy:***********;  BLOECHL correction:  0.000000
       DOS:  cpu time    0.0060: real time    0.0060
    CHARGE:  cpu time    1.4182: real time    1.4288
    MIXING:  cpu time    0.0021: real time    0.0021
    --------------------------------------------
      LOOP:  cpu time  122.3750: real time  123.2544

 eigenvalue-minimisations  : 19200
 total energy-change (2. order) :-0.2757981E-05  (-0.1419250E-05)
 number of electron     688.0000149 magnetization       0.0000000
 augmentation part      282.2367852 magnetization       0.0000000

 Broyden mixing:
  rms(total) = 0.38126E-03    rms(broyden)= 0.38110E-03
  rms(prec ) = 0.41959E-03
  weight for this iteration     100.00

 eigenvalues of (default mixing * dielectric matrix)
  average eigenvalue GAMMA=   1.3669
  4.0412  2.3351  2.3351  1.6108  1.6108  0.3380  0.9466  0.5904  0.5904  0.7203
  0.6432  0.6410

 Free energy of the ion-electron system (eV)
  ---------------------------------------------------
  alpha Z        PSCENC =      2361.24115574
  Ewald energy   TEWEN  =    -62538.49468419
  -Hartree energ DENC   =    -42909.73334322
  -exchange      EXHF   =         0.00000000
  -V(xc)+E(xc)   XCENC  =      3286.48498592
  PAW double counting   =    112218.76177768  -115911.75717456
  entropy T*S    EENTRO =         0.00000000
  eigenvalues    EBANDS =    -10854.03087588
  atomic energy  EATOM  =    114020.06510763
  Solvation  Ediel_sol  =         0.00000000
  ---------------------------------------------------
  free energy    TOTEN  =      -327.46305087 eV

  energy without entropy =     -327.46305087  energy(sigma->0) =     -327.46305087


--------------------------------------------------------------------------------------------------------




--------------------------------------- Iteration      1(  18)  ---------------------------------------


    POTLOK:  cpu time    0.1469: real time    0.1498
    SETDIJ:  cpu time    0.0131: real time    0.0132
     EDDAV:  cpu time  167.8555: real time  168.9792
 BZINTS: Fermi energy:  4.939217;688.000000 electrons
         Band energy:***********;  BLOECHL correction:  0.000000
       DOS:  cpu time    0.0060: real time    0.0060
    CHARGE:  cpu time    1.7726: real time    1.7832
    MIXING:  cpu time    0.0032: real time    0.0032
    --------------------------------------------
      LOOP:  cpu time  169.7973: real time  170.9346

 eigenvalue-minimisations  : 23296
 total energy-change (2. order) :-0.4551257E-06  (-0.3651859E-06)
 number of electron     688.0000149 magnetization       0.0000000
 augmentation part      282.2366832 magnetization       0.0000000

 Broyden mixing:
  rms(total) = 0.17046E-03    rms(broyden)= 0.17035E-03
  rms(prec ) = 0.17733E-03
  weight for this iteration     100.00

 eigenvalues of (default mixing * dielectric matrix)
  average eigenvalue GAMMA=   1.3580
  4.3586  2.4158  2.4158  1.5811  1.4821  0.3380  0.9545  0.9545  0.5896  0.5896
  0.7167  0.6285  0.6285

 Free energy of the ion-electron system (eV)
  ---------------------------------------------------
  alpha Z        PSCENC =      2361.24115574
  Ewald energy   TEWEN  =    -62538.49468419
  -Hartree energ DENC   =    -42909.72899048
  -exchange      EXHF   =         0.00000000
  -V(xc)+E(xc)   XCENC  =      3286.48478607
  PAW double counting   =    112218.87010325  -115911.86430723
  entropy T*S    EENTRO =         0.00000000
  eigenvalues    EBANDS =    -10854.03622211
  atomic energy  EATOM  =    114020.06510763
  Solvation  Ediel_sol  =         0.00000000
  ---------------------------------------------------
  free energy    TOTEN  =      -327.46305133 eV

  energy without entropy =     -327.46305133  energy(sigma->0) =     -327.46305133


--------------------------------------------------------------------------------------------------------




--------------------------------------- Iteration      1(  19)  ---------------------------------------


    POTLOK:  cpu time    0.1602: real time    0.1614
    SETDIJ:  cpu time    0.0178: real time    0.0179
     EDDAV:  cpu time  142.3249: real time  143.3082
 BZINTS: Fermi energy:  4.939203;688.000000 electrons
         Band energy:***********;  BLOECHL correction:  0.000000
       DOS:  cpu time    0.0060: real time    0.0060
    CHARGE:  cpu time    1.4189: real time    1.4272
    MIXING:  cpu time    0.0024: real time    0.0024
    --------------------------------------------
      LOOP:  cpu time  143.9302: real time  144.9230

 eigenvalue-minimisations  : 21504
 total energy-change (2. order) :-0.3629248E-07  (-0.2743150E-07)
 number of electron     688.0000149 magnetization       0.0000000
 augmentation part      282.2366766 magnetization       0.0000000

 Broyden mixing:
[...]
   -.413E+02 0.278E+02 -.222E+01   0.421E+02 -.280E+02 0.225E+01   -.829E+00 0.183E+00 -.273E-01   0.314E-05 0.290E-05 -.914E-05
   -.413E+02 0.278E+02 -.222E+01   0.421E+02 -.280E+02 0.225E+01   -.829E+00 0.183E+00 -.273E-01   0.309E-05 0.290E-05 -.913E-05
   -.413E+02 0.278E+02 -.222E+01   0.421E+02 -.280E+02 0.225E+01   -.829E+00 0.183E+00 -.273E-01   0.314E-05 0.283E-05 -.914E-05
   -.413E+02 0.278E+02 -.222E+01   0.421E+02 -.280E+02 0.225E+01   -.829E+00 0.183E+00 -.273E-01   0.309E-05 0.283E-05 -.913E-05
   0.413E+02 0.278E+02 0.222E+01   -.421E+02 -.280E+02 -.225E+01   0.829E+00 0.183E+00 0.273E-01   -.311E-05 0.286E-05 0.914E-05
   0.413E+02 0.278E+02 0.222E+01   -.421E+02 -.280E+02 -.225E+01   0.829E+00 0.183E+00 0.273E-01   -.311E-05 0.286E-05 0.914E-05
   0.413E+02 0.278E+02 0.222E+01   -.421E+02 -.280E+02 -.225E+01   0.829E+00 0.183E+00 0.273E-01   -.311E-05 0.286E-05 0.913E-05
   0.413E+02 0.278E+02 0.222E+01   -.421E+02 -.280E+02 -.225E+01   0.829E+00 0.183E+00 0.273E-01   -.311E-05 0.286E-05 0.913E-05
   -.229E-07 -.219E+02 -.213E-06   0.675E-13 0.226E+02 -.675E-13   0.219E-23 -.692E+00 -.269E-23   -.158E-08 0.638E-05 -.471E-08
   -.229E-07 -.219E+02 -.213E-06   -.137E-12 0.226E+02 0.799E-14   -.206E-23 -.692E+00 -.207E-24   0.158E-08 0.638E-05 0.472E-08
   -.229E-07 -.219E+02 -.213E-06   0.853E-13 0.226E+02 -.128E-12   -.400E-23 -.692E+00 0.186E-23   -.158E-08 0.632E-05 -.471E-08
   -.229E-07 -.219E+02 -.213E-06   -.131E-12 0.226E+02 -.675E-13   -.252E-24 -.692E+00 0.124E-23   0.158E-08 0.632E-05 0.472E-08
   0.277E-07 0.628E+02 0.554E-07   -.149E-12 -.638E+02 0.202E-12   -.294E-23 0.102E+01 0.132E-23   0.326E-07 -.108E-05 -.127E-08
   0.277E-07 0.628E+02 0.554E-07   0.156E-12 -.638E+02 0.163E-12   -.136E-23 0.102E+01 0.414E-24   -.326E-07 -.108E-05 0.126E-08
   0.277E-07 0.628E+02 0.554E-07   -.149E-12 -.638E+02 0.181E-12   -.614E-24 0.102E+01 -.114E-23   0.326E-07 -.108E-05 -.127E-08
   0.277E-07 0.628E+02 0.554E-07   0.142E-12 -.638E+02 0.171E-12   -.338E-23 0.102E+01 0.827E-24   -.326E-07 -.108E-05 0.126E-08
   0.515E+01 -.257E+02 0.175E+01   -.510E+01 0.247E+02 -.178E+01   -.583E-01 0.104E+01 0.336E-01   0.123E-04 0.301E-04 0.291E-05
   0.515E+01 -.257E+02 0.175E+01   -.510E+01 0.247E+02 -.178E+01   -.583E-01 0.104E+01 0.336E-01   0.122E-04 0.301E-04 0.291E-05
   0.515E+01 -.257E+02 0.175E+01   -.510E+01 0.247E+02 -.178E+01   -.583E-01 0.104E+01 0.336E-01   0.123E-04 0.299E-04 0.292E-05
   0.515E+01 -.257E+02 0.175E+01   -.510E+01 0.247E+02 -.178E+01   -.583E-01 0.104E+01 0.336E-01   0.122E-04 0.299E-04 0.292E-05
   -.515E+01 -.257E+02 -.175E+01   0.510E+01 0.247E+02 0.178E+01   0.583E-01 0.104E+01 -.336E-01   -.122E-04 0.301E-04 -.291E-05
   -.515E+01 -.257E+02 -.175E+01   0.510E+01 0.247E+02 0.178E+01   0.583E-01 0.104E+01 -.336E-01   -.123E-04 0.301E-04 -.290E-05
   -.515E+01 -.257E+02 -.175E+01   0.510E+01 0.247E+02 0.178E+01   0.583E-01 0.104E+01 -.336E-01   -.122E-04 0.299E-04 -.293E-05
   -.515E+01 -.257E+02 -.175E+01   0.510E+01 0.247E+02 0.178E+01   0.583E-01 0.104E+01 -.336E-01   -.123E-04 0.299E-04 -.291E-05
   0.515E+01 -.257E+02 0.175E+01   -.510E+01 0.247E+02 -.178E+01   -.583E-01 0.104E+01 0.336E-01   0.123E-04 0.301E-04 0.291E-05
   0.515E+01 -.257E+02 0.175E+01   -.510E+01 0.247E+02 -.178E+01   -.583E-01 0.104E+01 0.336E-01   0.122E-04 0.301E-04 0.290E-05
   0.515E+01 -.257E+02 0.175E+01   -.510E+01 0.247E+02 -.178E+01   -.583E-01 0.104E+01 0.336E-01   0.123E-04 0.299E-04 0.293E-05
   0.515E+01 -.257E+02 0.175E+01   -.510E+01 0.247E+02 -.178E+01   -.583E-01 0.104E+01 0.336E-01   0.122E-04 0.299E-04 0.291E-05
   -.515E+01 -.257E+02 -.175E+01   0.510E+01 0.247E+02 0.178E+01   0.583E-01 0.104E+01 -.336E-01   -.122E-04 0.301E-04 -.292E-05
   -.515E+01 -.257E+02 -.175E+01   0.510E+01 0.247E+02 0.178E+01   0.583E-01 0.104E+01 -.336E-01   -.123E-04 0.301E-04 -.289E-05
   -.515E+01 -.257E+02 -.175E+01   0.510E+01 0.247E+02 0.178E+01   0.583E-01 0.104E+01 -.336E-01   -.122E-04 0.299E-04 -.293E-05
   -.515E+01 -.257E+02 -.175E+01   0.510E+01 0.247E+02 0.178E+01   0.583E-01 0.104E+01 -.336E-01   -.123E-04 0.299E-04 -.291E-05
   -.688E+01 -.252E+02 0.234E+01   0.675E+01 0.239E+02 -.240E+01   0.132E+00 0.136E+01 0.544E-01   -.788E-05 0.144E-04 0.263E-05
   -.688E+01 -.252E+02 0.234E+01   0.675E+01 0.239E+02 -.240E+01   0.132E+00 0.136E+01 0.544E-01   -.799E-05 0.144E-04 0.264E-05
   -.688E+01 -.252E+02 0.234E+01   0.675E+01 0.239E+02 -.240E+01   0.132E+00 0.136E+01 0.544E-01   -.788E-05 0.143E-04 0.262E-05
   -.688E+01 -.252E+02 0.234E+01   0.675E+01 0.239E+02 -.240E+01   0.132E+00 0.136E+01 0.544E-01   -.799E-05 0.143E-04 0.263E-05
   0.688E+01 -.252E+02 -.234E+01   -.675E+01 0.239E+02 0.240E+01   -.132E+00 0.136E+01 -.544E-01   0.799E-05 0.144E-04 -.263E-05
   0.688E+01 -.252E+02 -.234E+01   -.675E+01 0.239E+02 0.240E+01   -.132E+00 0.136E+01 -.544E-01   0.788E-05 0.144E-04 -.263E-05
   0.688E+01 -.252E+02 -.234E+01   -.675E+01 0.239E+02 0.240E+01   -.132E+00 0.136E+01 -.544E-01   0.799E-05 0.143E-04 -.262E-05
   0.688E+01 -.252E+02 -.234E+01   -.675E+01 0.239E+02 0.240E+01   -.132E+00 0.136E+01 -.544E-01   0.788E-05 0.143E-04 -.262E-05
   -.688E+01 -.252E+02 0.234E+01   0.675E+01 0.239E+02 -.240E+01   0.132E+00 0.136E+01 0.544E-01   -.789E-05 0.144E-04 0.262E-05
   -.688E+01 -.252E+02 0.234E+01   0.675E+01 0.239E+02 -.240E+01   0.132E+00 0.136E+01 0.544E-01   -.798E-05 0.144E-04 0.265E-05
   -.688E+01 -.252E+02 0.234E+01   0.675E+01 0.239E+02 -.240E+01   0.132E+00 0.136E+01 0.544E-01   -.788E-05 0.143E-04 0.261E-05
   -.688E+01 -.252E+02 0.234E+01   0.675E+01 0.239E+02 -.240E+01   0.132E+00 0.136E+01 0.544E-01   -.798E-05 0.143E-04 0.263E-05
   0.688E+01 -.252E+02 -.234E+01   -.675E+01 0.239E+02 0.240E+01   -.132E+00 0.136E+01 -.544E-01   0.800E-05 0.144E-04 -.263E-05
   0.688E+01 -.252E+02 -.234E+01   -.675E+01 0.239E+02 0.240E+01   -.132E+00 0.136E+01 -.544E-01   0.787E-05 0.144E-04 -.264E-05
   0.688E+01 -.252E+02 -.234E+01   -.675E+01 0.239E+02 0.240E+01   -.132E+00 0.136E+01 -.544E-01   0.800E-05 0.143E-04 -.262E-05
   0.688E+01 -.252E+02 -.234E+01   -.675E+01 0.239E+02 0.240E+01   -.132E+00 0.136E+01 -.544E-01   0.787E-05 0.143E-04 -.263E-05
 -----------------------------------------------------------------------------------------------
   -.576E-05 -.439E+02 -.311E-03   0.995E-13 0.291E-12 -.218E-13   0.108E-14 0.439E+02 -.694E-17   -.771E-10 0.798E-03 -.104E-09
 
 
 POSITION                                       TOTAL-FORCE (eV/Angst)
 -----------------------------------------------------------------------------------
      1.37844      1.26259      1.36045        -0.000139     -0.002000      0.000144
      6.63190      1.26259      1.56687        -0.000139     -0.002000      0.000144
      1.37844      6.52354      1.36045        -0.000139     -0.002000      0.000144
      6.63190      6.52354      1.56687        -0.000139     -0.002000      0.000144
      3.97720      3.89306      1.44644         0.000139     -0.002000     -0.000144
      9.23066      3.89306      1.65286         0.000139     -0.002000     -0.000144
      3.97720      9.15402      1.44644         0.000139     -0.002000     -0.000144
      9.23066      9.15402      1.65286         0.000139     -0.002000     -0.000144
      1.67098      3.90088      9.15330        -0.000000     -0.001916      0.000000
      6.92445      3.90088      9.35971        -0.000000     -0.001916      0.000000
      1.67098      9.16183      9.15330        -0.000000     -0.001916      0.000000
      6.92445      9.16183      9.35971        -0.000000     -0.001916      0.000000
      4.29771      1.29037      9.25650        -0.000000     -0.000813      0.000000
      9.55118      1.29037      9.46292        -0.000000     -0.000813      0.000000
      4.29771      6.55133      9.25650        -0.000000     -0.000813      0.000000
      9.55118      6.55133      9.46292        -0.000000     -0.000813      0.000000
      1.55482      1.26259      6.54420         0.000139     -0.002000     -0.000144
      6.80828      1.26259      6.75062         0.000139     -0.002000     -0.000144
      1.55482      6.52354      6.54420         0.000139     -0.002000     -0.000144
      6.80828      6.52354      6.75062         0.000139     -0.002000     -0.000144
      4.20952      3.89306      6.66463        -0.000139     -0.002000      0.000144
      9.46299      3.89306      6.87104        -0.000139     -0.002000      0.000144
      4.20952      9.15402      6.66463        -0.000139     -0.002000      0.000144
      9.46299      9.15402      6.87104        -0.000139     -0.002000      0.000144
      4.09336      1.27040      4.05554        -0.000000     -0.001916      0.000000
      9.34683      1.27040      4.26195        -0.000000     -0.001916      0.000000
      4.09336      6.53136      4.05554        -0.000000     -0.001916      0.000000
      9.34683      6.53136      4.26195        -0.000000     -0.001916      0.000000
      1.46663      3.92085      3.95233        -0.000000     -0.000813      0.000000
      6.72009      3.92085      4.15874        -0.000000     -0.000813      0.000000
      1.46663      9.18180      3.95233        -0.000000     -0.000813      0.000000
      6.72009      9.18180      4.15874        -0.000000     -0.000813      0.000000
     10.69353      0.04457      5.61321         0.000772      0.001555     -0.000929
      5.44006      0.04457      5.40680         0.000772      0.001555     -0.000929
     10.69353      5.30552      5.61321         0.000772      0.001555     -0.000929
      5.44006      5.30552      5.40680         0.000772      0.001555     -0.000929
      2.74666      0.04457      2.70427        -0.000772      0.001555      0.000929
      8.00012      0.04457      2.91069        -0.000772      0.001555      0.000929
      2.74666      5.30552      2.70427        -0.000772      0.001555      0.000929
      8.00012      5.30552      2.91069        -0.000772      0.001555      0.000929
      2.60898      2.67505      0.10262         0.000772      0.001555     -0.000929
      7.86244      2.67505      0.30904         0.000772      0.001555     -0.000929
      2.60898      7.93600      0.10262         0.000772      0.001555     -0.000929
      7.86244      7.93600      0.30904         0.000772      0.001555     -0.000929
      0.32428      2.67505      7.80204        -0.000772      0.001555      0.000929
      5.57774      2.67505      8.00845        -0.000772      0.001555      0.000929
      0.32428      7.93600      7.80204        -0.000772      0.001555      0.000929
      5.57774      7.93600      8.00845        -0.000772      0.001555      0.000929
     10.49742      0.04293      0.41656         0.000750      0.001809     -0.002313
      5.24396      0.04293      0.21014         0.000750      0.001809     -0.002313
     10.49742      5.30388      0.41656         0.000750      0.001809     -0.002313
      5.24396      5.30388      0.21014         0.000750      0.001809     -0.002313
      2.94276      0.04293      7.90093        -0.000750      0.001809      0.002313
      8.19623      0.04293      8.10734        -0.000750      0.001809      0.002313
      2.94276      5.30388      7.90093        -0.000750      0.001809      0.002313
      8.19623      5.30388      8.10734        -0.000750      0.001809      0.002313
      2.82158      2.67341      5.30790         0.000750      0.001809     -0.002313
      8.07504      2.67341      5.51432         0.000750      0.001809     -0.002313
      2.82158      7.93436      5.30790         0.000750      0.001809     -0.002313
      8.07504      7.93436      5.51432         0.000750      0.001809     -0.002313
      0.11168      2.67341      2.59676        -0.000750      0.001809      0.002313
      5.36514      2.67341      2.80317        -0.000750      0.001809      0.002313
      0.11168      7.93436      2.59676        -0.000750      0.001809      0.002313
      5.36514      7.93436      2.80317        -0.000750      0.001809      0.002313
 -----------------------------------------------------------------------------------
    total drift:                               -0.000006      0.017072     -0.000311


--------------------------------------------------------------------------------------------------------



  FREE ENERGIE OF THE ION-ELECTRON SYSTEM (eV)
  ---------------------------------------------------
  free  energy   TOTEN  =      -327.46305139 eV

  energy  without entropy=     -327.46305139  energy(sigma->0) =     -327.46305139
 


--------------------------------------------------------------------------------------------------------


    POTLOK:  cpu time    0.1607: real time    0.1614


--------------------------------------------------------------------------------------------------------


 writing wavefunctions
     LOOP+:  cpu time 3147.5631: real time 3169.6800
    4ORBIT:  cpu time    0.0000: real time    0.0000
 


 total charge     
 
# of ion       s       p       d       tot
------------------------------------------
    1        1.314   2.408   0.000   3.722
    2        1.314   2.408   0.000   3.722
    3        1.314   2.408   0.000   3.722
    4        1.314   2.408   0.000   3.722
    5        1.314   2.408   0.000   3.722
    6        1.314   2.408   0.000   3.722
    7        1.314   2.408   0.000   3.722
    8        1.314   2.408   0.000   3.722
    9        1.316   2.404   0.000   3.720
   10        1.316   2.404   0.000   3.720
   11        1.316   2.404   0.000   3.720
   12        1.316   2.404   0.000   3.720
   13        1.313   2.412   0.000   3.725
   14        1.313   2.412   0.000   3.725
   15        1.313   2.412   0.000   3.725
   16        1.313   2.412   0.000   3.725
   17        1.314   2.408   0.000   3.722
   18        1.314   2.408   0.000   3.722
   19        1.314   2.408   0.000   3.722
   20        1.314   2.408   0.000   3.722
   21        1.314   2.408   0.000   3.722
   22        1.314   2.408   0.000   3.722
   23        1.314   2.408   0.000   3.722
   24        1.314   2.408   0.000   3.722
   25        1.316   2.404   0.000   3.720
   26        1.316   2.404   0.000   3.720
   27        1.316   2.404   0.000   3.720
   28        1.316   2.404   0.000   3.720
   29        1.313   2.412   0.000   3.725
   30        1.313   2.412   0.000   3.725
   31        1.313   2.412   0.000   3.725
   32        1.313   2.412   0.000   3.725
   33        0.259   6.201   8.917  15.377
   34        0.259   6.201   8.917  15.377
   35        0.259   6.201   8.917  15.377
   36        0.259   6.201   8.917  15.377
   37        0.259   6.201   8.917  15.377
   38        0.259   6.201   8.917  15.377
   39        0.259   6.201   8.917  15.377
   40        0.259   6.201   8.917  15.377
   41        0.259   6.201   8.917  15.377
   42        0.259   6.201   8.917  15.377
   43        0.259   6.201   8.917  15.377
   44        0.259   6.201   8.917  15.377
   45        0.259   6.201   8.917  15.377
   46        0.259   6.201   8.917  15.377
   47        0.259   6.201   8.917  15.377
   48        0.259   6.201   8.917  15.377
   49        0.349   6.349   5.822  12.520
   50        0.349   6.349   5.822  12.520
   51        0.349   6.349   5.822  12.520
   52        0.349   6.349   5.822  12.520
   53        0.349   6.349   5.822  12.520
   54        0.349   6.349   5.822  12.520
   55        0.349   6.349   5.822  12.520
   56        0.349   6.349   5.822  12.520
   57        0.349   6.349   5.822  12.520
   58        0.349   6.349   5.822  12.520
   59        0.349   6.349   5.822  12.520
   60        0.349   6.349   5.822  12.520
   61        0.349   6.349   5.822  12.520
   62        0.349   6.349   5.822  12.520
   63        0.349   6.349   5.822  12.520
   64        0.349   6.349   5.822  12.520
--------------------------------------------------
tot         51.776 277.860 235.820 565.456
 


 magnetization (x)
 
# of ion       s       p       d       tot
------------------------------------------
    1       -0.000  -0.019   0.000  -0.019
    2       -0.000  -0.019   0.000  -0.019
    3       -0.000  -0.019   0.000  -0.019
    4       -0.000  -0.019   0.000  -0.019
    5        0.000   0.019   0.000   0.019
    6        0.000   0.019   0.000   0.019
    7        0.000   0.019   0.000   0.019
    8        0.000   0.019   0.000   0.019
    9        0.000   0.000   0.000   0.000
   10        0.000   0.000   0.000   0.000
   11        0.000   0.000   0.000   0.000
   12        0.000   0.000   0.000   0.000
   13        0.000  -0.000   0.000  -0.000
   14        0.000  -0.000   0.000  -0.000
   15        0.000  -0.000   0.000  -0.000
   16        0.000  -0.000   0.000  -0.000
   17        0.000   0.019   0.000   0.019
   18        0.000   0.019   0.000   0.019
   19        0.000   0.019   0.000   0.019
   20        0.000   0.019   0.000   0.019
   21       -0.000  -0.019   0.000  -0.019
   22       -0.000  -0.019   0.000  -0.019
   23       -0.000  -0.019   0.000  -0.019
   24       -0.000  -0.019   0.000  -0.019
   25        0.000   0.000   0.000   0.000
   26        0.000   0.000   0.000   0.000
   27        0.000   0.000   0.000   0.000
   28        0.000   0.000   0.000   0.000
   29        0.000  -0.000   0.000  -0.000
   30        0.000   0.000   0.000   0.000
   31        0.000  -0.000   0.000  -0.000
   32        0.000   0.000   0.000   0.000
   33        0.000   0.001  -0.002  -0.001
   34        0.000   0.001  -0.002  -0.001
   35        0.000   0.001  -0.002  -0.001
   36        0.000   0.001  -0.002  -0.001
   37       -0.000  -0.001   0.002   0.001
   38       -0.000  -0.001   0.002   0.001
   39       -0.000  -0.001   0.002   0.001
   40       -0.000  -0.001   0.002   0.001
   41        0.000   0.001  -0.002  -0.001
   42        0.000   0.001  -0.002  -0.001
   43        0.000   0.001  -0.002  -0.001
   44        0.000   0.001  -0.002  -0.001
   45       -0.000  -0.001   0.002   0.001
   46       -0.000  -0.001   0.002   0.001
   47       -0.000  -0.001   0.002   0.001
   48       -0.000  -0.001   0.002   0.001
   49        0.020   0.054   3.668   3.741
   50        0.020   0.054   3.668   3.741
   51        0.020   0.054   3.668   3.741
   52        0.020   0.054   3.668   3.741
   53       -0.020  -0.054  -3.668  -3.741
   54       -0.020  -0.054  -3.668  -3.741
   55       -0.020  -0.054  -3.668  -3.741
   56       -0.020  -0.054  -3.668  -3.741
   57        0.020   0.054   3.668   3.741
   58        0.020   0.054   3.668   3.741
   59        0.020   0.054   3.668   3.741
   60        0.020   0.054   3.668   3.741
   61       -0.020  -0.054  -3.668  -3.741
   62       -0.020  -0.054  -3.668  -3.741
   63       -0.020  -0.054  -3.668  -3.741
   64       -0.020  -0.054  -3.668  -3.741
--------------------------------------------------
tot          0.000   0.000   0.000   0.000
 
 BZINTS: Fermi energy:  4.939190;688.000000 electrons
         Band energy:***********;  BLOECHL correction:  0.000000

 total amount of memory used by VASP MPI-rank0   348353. kBytes
=======================================================================

   base      :      30000. kBytes
   nonl-proj :     216760. kBytes
   fftplans  :       4588. kBytes
   grid      :      69719. kBytes
   one-center:       1990. kBytes
   wavefun   :      25296. kBytes
 
  
  
 General timing and accounting informations for this job:
 ========================================================
  
                  Total CPU time used (sec):     3206.666
                            User time (sec):     3195.246
                          System time (sec):       11.420
                         Elapsed time (sec):     3230.109
  
                   Maximum memory used (kb):      714568.
                   Average memory used (kb):           0.
  
                          Minor page faults:       600398
                          Major page faults:         5819
                 Voluntary context switches:         7037
