 vasp.5.4.4.18Apr17-6-g9f103f2a35 (build Oct 30 2023 17:30:16) complex          
  
 executed on             LinuxIFC date 2024.06.29  00:49:03
 running on  256 total cores
 distrk:  each k-point on  256 cores,    1 groups
 distr:  one band on NCORES_PER_BAND=   1 cores,  256 groups


--------------------------------------------------------------------------------------------------------


 INCAR:
 POTCAR:    PAW_PBE S 06Sep2000                   
 POTCAR:     PAW_PBE Cu_pv 06Sep2000              
 POTCAR:     PAW_PBE Fe_pv 02Aug2007              

 ----------------------------------------------------------------------------- 
|                                                                             |
|           W    W    AA    RRRRR   N    N  II  N    N   GGGG   !!!           |
|           W    W   A  A   R    R  NN   N  II  NN   N  G    G  !!!           |
|           W    W  A    A  R    R  N N  N  II  N N  N  G       !!!           |
|           W WW W  AAAAAA  RRRRR   N  N N  II  N  N N  G  GGG   !            |
|           WW  WW  A    A  R   R   N   NN  II  N   NN  G    G                |
|           W    W  A    A  R    R  N    N  II  N    N   GGGG   !!!           |
|                                                                             |
|      For optimal performance we recommend to set                            |
|        NCORE= 4 - approx SQRT( number of cores)                             |
|      NCORE specifies how many cores store one orbital (NPAR=cpu/NCORE).     |
|      This setting can  greatly improve the performance of VASP for DFT.     |
|      The default,   NCORE=1            might be grossly inefficient         |
|      on modern multi-core architectures or massively parallel machines.     |
|      Do your own testing !!!!                                               |
|      Unfortunately you need to use the default for GW and RPA calculations. |
|      (for HF NCORE is supported but not extensively tested yet)             |
|                                                                             |
 ----------------------------------------------------------------------------- 

 POTCAR:    PAW_PBE S 06Sep2000                   
   SHA256 =  0fc7481fb0695f01bdc6462160264c5c84044ae9ec85a907d398b887a2bc3132 S/
   COPYR  = (c) Copyright 06Sep2000 Georg Kresse                                
   COPYR  = This file is part of the software VASP. Any use, copying, and all ot
   COPYR  = If you do not have a valid VASP license, you may not use, copy or di
   VRHFIN =S : s2p4                                                             
   LEXCH  = PE                                                                  
   EATOM  =   276.8230 eV,   20.3459 Ry                                         
                                                                                
   TITEL  = PAW_PBE S 06Sep2000                                                 
   LULTRA =        F    use ultrasoft PP ?                                      
   IUNSCR =        1    unscreen: 0-lin 1-nonlin 2-no                           
   RPACOR =    1.500    partial core radius                                     
   POMASS =   32.066; ZVAL   =    6.000    mass and valenz                      
   RCORE  =    1.900    outmost cutoff radius                                   
   RWIGS  =    2.200; RWIGS  =    1.164    wigner-seitz radius (au A)           
   ENMAX  =  258.689; ENMIN  =  194.016 eV                                      
   ICORE  =        2    local potential                                         
   LCOR   =        T    correct aug charges                                     
   LPAW   =        T    paw PP                                                  
   EAUG   =  335.092                                                            
   DEXC   =    0.000                                                            
   RMAX   =    1.942    core radius for proj-oper                               
   RAUG   =    1.300    factor for augmentation sphere                          
   RDEP   =    1.954    radius for radial grids                                 
   RDEPT  =    1.744    core radius for aug-charge                              
                                                                                
   Atomic configuration                                                         
    6 entries                                                                   
     n  l   j            E        occ.                                          
     1  0  0.50     -2405.8406   2.0000                                         
     2  0  0.50      -211.7007   2.0000                                         
     2  1  1.50      -156.4958   6.0000                                         
     3  0  0.50       -17.2562   2.0000                                         
     3  1  0.50        -7.0085   4.0000                                         
     3  2  1.50        -6.8029   0.0000                                         
   Description                                                                  
     l       E           TYP  RCUT    TYP  RCUT                                 
     0    -17.2561641     23  1.900                                             
     0    -15.8743224     23  1.900                                             
     1     -7.0085400     23  1.900                                             
     1     -2.7779785     23  1.900                                             
     2     -6.8029130     23  1.900                                             
  local pseudopotential read in
  partial core-charges read in
  partial kinetic energy density read in
  atomic valenz-charges read in
  non local Contribution for L=           0  read in
    real space projection operators read in
  non local Contribution for L=           0  read in
    real space projection operators read in
  non local Contribution for L=           1  read in
    real space projection operators read in
  non local Contribution for L=           1  read in
    real space projection operators read in
    PAW grid and wavefunctions read in
 
   number of l-projection  operators is LMAX  =           4
   number of lm-projection operators is LMMAX =           8
 
 POTCAR:     PAW_PBE Cu_pv 06Sep2000              
   SHA256 =  cb7b504e2ea725fe1f25c85a9ac77d4012ce94cd394135b722c4e25ec297f1cb Cu
   COPYR  = (c) Copyright 06Sep2000 Georg Kresse                                
   COPYR  = This file is part of the software VASP. Any use, copying, and all ot
   COPYR  = If you do not have a valid VASP license, you may not use, copy or di
   VRHFIN =Cu: d10 p1                                                           
   LEXCH  = PE                                                                  
   EATOM  =  4120.1201 eV,  302.8203 Ry                                         
                                                                                
   TITEL  = PAW_PBE Cu_pv 06Sep2000                                             
   LULTRA =        F    use ultrasoft PP ?                                      
   IUNSCR =        1    unscreen: 0-lin 1-nonlin 2-no                           
   RPACOR =    1.500    partial core radius                                     
   POMASS =   63.546; ZVAL   =   17.000    mass and valenz                      
   RCORE  =    2.000    outmost cutoff radius                                   
   RWIGS  =    2.000; RWIGS  =    1.058    wigner-seitz radius (au A)           
   ENMAX  =  368.648; ENMIN  =  276.486 eV                                      
   RCLOC  =    1.304    cutoff for local pot                                    
   LCOR   =        T    correct aug charges                                     
   LPAW   =        T    paw PP                                                  
   EAUG   =  758.233                                                            
   DEXC   =    0.000                                                            
   RMAX   =    2.046    core radius for proj-oper                               
   RAUG   =    1.300    factor for augmentation sphere                          
   RDEP   =    2.025    radius for radial grids                                 
   RDEPT  =    1.558    core radius for aug-charge                              
                                                                                
   Atomic configuration                                                         
    8 entries                                                                   
     n  l   j            E        occ.                                          
     1  0  0.50     -8850.2467   2.0000                                         
     2  0  0.50     -1062.3498   2.0000                                         
     2  1  1.50      -916.8226   6.0000                                         
     3  0  0.50      -114.6929   2.0000                                         
     3  1  1.50       -72.1325   6.0000                                         
     3  2  2.50        -5.0394  10.0000                                         
     4  0  0.50        -4.6097   1.0000                                         
     4  3  2.50        -1.3606   0.0000                                         
   Description                                                                  
     l       E           TYP  RCUT    TYP  RCUT                                 
     1    -72.1324777     23  1.700                                             
     1     -1.3605826     23  1.700                                             
     2     -5.0393776     23  2.000                                             
     2     -6.3999602     23  2.000                                             
     0     -4.6097062     23  1.800                                             
     0     14.1620818     23  1.800                                             
  local pseudopotential read in
  partial core-charges read in
  partial kinetic energy density read in
  atomic valenz-charges read in
  non local Contribution for L=           1  read in
    real space projection operators read in
  non local Contribution for L=           1  read in
    real space projection operators read in
  non local Contribution for L=           2  read in
    real space projection operators read in
  non local Contribution for L=           2  read in
    real space projection operators read in
  non local Contribution for L=           0  read in
    real space projection operators read in
  non local Contribution for L=           0  read in
    real space projection operators read in
    PAW grid and wavefunctions read in
 
   number of l-projection  operators is LMAX  =           6
   number of lm-projection operators is LMMAX =          18
 
 POTCAR:     PAW_PBE Fe_pv 02Aug2007              
   SHA256 =  5d22e414b1f82158bf2c7ecb8b97b28fd0923e48cadc1c3bf74d524558f5dd32 Fe
   COPYR  = (c) Copyright 02Aug2007 Georg Kresse                                
   COPYR  = This file is part of the software VASP. Any use, copying, and all ot
   COPYR  = If you do not have a valid VASP license, you may not use, copy or di
   VRHFIN =Fe:  3pd7s1                                                          
   LEXCH  = PE                                                                  
   EATOM  =  2457.4239 eV,  180.6156 Ry                                         
                                                                                
   TITEL  = PAW_PBE Fe_pv 02Aug2007                                             
   LULTRA =        F    use ultrasoft PP ?                                      
   IUNSCR =        1    unscreen: 0-lin 1-nonlin 2-no                           
   RPACOR =    1.750    partial core radius                                     
   POMASS =   55.847; ZVAL   =   14.000    mass and valenz                      
   RCORE  =    2.200    outmost cutoff radius                                   
   RWIGS  =    2.200; RWIGS  =    1.164    wigner-seitz radius (au A)           
   ENMAX  =  293.238; ENMIN  =  219.928 eV                                      
   ICORE  =        3    local potential                                         
   LCOR   =        T    correct aug charges                                     
   LPAW   =        T    paw PP                                                  
   EAUG   =  578.342                                                            
   DEXC   =    0.000                                                            
   RMAX   =    2.249    core radius for proj-oper                               
   RAUG   =    1.300    factor for augmentation sphere                          
   RDEP   =    2.296    radius for radial grids                                 
   RDEPT  =    1.766    core radius for aug-charge                              
                                                                                
   Atomic configuration                                                         
    8 entries                                                                   
     n  l   j            E        occ.                                          
     1  0  0.50     -6993.8440   2.0000                                         
     2  0  0.50      -814.6047   2.0000                                         
     2  1  1.50      -693.3689   6.0000                                         
     3  0  0.50       -89.4732   2.0000                                         
     3  1  1.50       -55.6373   6.0000                                         
     3  2  2.50        -3.8151   7.0000                                         
     4  0  0.50        -4.2551   1.0000                                         
     4  3  2.50        -1.3606   0.0000                                         
   Description                                                                  
     l       E           TYP  RCUT    TYP  RCUT                                 
     1    -55.6372668     23  2.000                                             
     1     -5.4423304     23  2.000                                             
     2     -3.8151096     23  2.200                                             
     2     -5.1756922     23  2.200                                             
     0     -4.2550951     23  2.200                                             
     0     27.2116520     23  2.200                                             
     3     -1.3605826     23  2.200                                             
  local pseudopotential read in
  partial core-charges read in
  partial kinetic energy density read in
  atomic valenz-charges read in
  non local Contribution for L=           1  read in
    real space projection operators read in
  non local Contribution for L=           1  read in
    real space projection operators read in
  non local Contribution for L=           2  read in
    real space projection operators read in
  non local Contribution for L=           2  read in
    real space projection operators read in
  non local Contribution for L=           0  read in
    real space projection operators read in
  non local Contribution for L=           0  read in
    real space projection operators read in
    PAW grid and wavefunctions read in
 
   number of l-projection  operators is LMAX  =           6
   number of lm-projection operators is LMMAX =          18
 

 ----------------------------------------------------------------------------- 
|                                                                             |
|  ADVICE TO THIS USER RUNNING 'VASP/VAMP'   (HEAR YOUR MASTER'S VOICE ...):  |
|                                                                             |
|      You have a (more or less) 'large supercell' and for larger cells       |
|      it might be more efficient to use real space projection opertators     |
|      So try LREAL= Auto  in the INCAR   file.                               |
|      Mind:          For very  accurate calculation you might also keep the  |
|      reciprocal projection scheme          (i.e. LREAL=.FALSE.)             |
|                                                                             |
 ----------------------------------------------------------------------------- 


 ----------------------------------------------------------------------------- 
|                                                                             |
|  ADVICE TO THIS USER RUNNING 'VASP/VAMP'   (HEAR YOUR MASTER'S VOICE ...):  |
|                                                                             |
|      You enforced a specific xc-type in the INCAR file,                     |
|      a different type was found on the POTCAR file                          |
|          I HOPE YOU KNOW, WHAT YOU ARE  DOING                               |
|                                                                             |
 ----------------------------------------------------------------------------- 

  PAW_PBE S 06Sep2000                   :
 energy of atom  1       EATOM= -276.8230
 kinetic energy error for atom=    0.0007 (will be added to EATOM!!)
   PAW_PBE Cu_pv 06Sep2000              :
 energy of atom  2       EATOM=-4120.1201
 kinetic energy error for atom=    0.0094 (will be added to EATOM!!)
   PAW_PBE Fe_pv 02Aug2007              :
 energy of atom  3       EATOM=-2457.4239
 kinetic energy error for atom=    0.0025 (will be added to EATOM!!)
 
 
 POSCAR: Fe16 Cu16 S32                           
  positions in direct lattice
  No initial velocities read in
 exchange correlation table for  LEXCH =       14
   RHO(1)=    0.500       N(1)  =     2000
   RHO(2)=  100.500       N(2)  =     4000
 


--------------------------------------------------------------------------------------------------------


 ion  position               nearest neighbor table
   1  0.126  0.125  0.123-  37 2.26  41 2.27  61 2.27  49 2.28
   2  0.626  0.125  0.123-  38 2.26  42 2.27  62 2.27  50 2.28
   3  0.126  0.625  0.123-  39 2.26  43 2.27  63 2.27  51 2.28
   4  0.626  0.625  0.123-  40 2.26  44 2.27  64 2.27  52 2.28
   5  0.374  0.375  0.123-  39 2.26  41 2.27  62 2.27  52 2.28
   6  0.874  0.375  0.123-  40 2.26  42 2.27  61 2.27  51 2.28
   7  0.374  0.875  0.123-  37 2.26  43 2.27  64 2.27  50 2.28
   8  0.874  0.875  0.123-  38 2.26  44 2.27  63 2.27  49 2.28
   9  0.125  0.374  0.873-  41 2.26  45 2.27  51 2.27  55 2.28
  10  0.625  0.374  0.873-  42 2.26  46 2.27  52 2.27  56 2.28
  11  0.125  0.874  0.873-  43 2.26  47 2.27  49 2.27  53 2.28
  12  0.625  0.874  0.873-  44 2.26  48 2.27  50 2.27  54 2.28
  13  0.375  0.126  0.873-  41 2.26  46 2.27  50 2.27  53 2.28
  14  0.875  0.126  0.873-  42 2.26  45 2.27  49 2.27  54 2.28
  15  0.375  0.626  0.873-  43 2.26  48 2.27  52 2.27  55 2.28
  16  0.875  0.626  0.873-  44 2.26  47 2.27  51 2.27  56 2.28
  17  0.124  0.125  0.623-  45 2.26  33 2.27  53 2.27  57 2.28
  18  0.624  0.125  0.623-  46 2.26  34 2.27  54 2.27  58 2.28
  19  0.124  0.625  0.623-  47 2.26  35 2.27  55 2.27  59 2.28
  20  0.624  0.625  0.623-  48 2.26  36 2.27  56 2.27  60 2.28
  21  0.376  0.375  0.623-  46 2.26  36 2.27  55 2.27  57 2.28
  22  0.876  0.375  0.623-  45 2.26  35 2.27  56 2.27  58 2.28
  23  0.376  0.875  0.623-  48 2.26  34 2.27  53 2.27  59 2.28
  24  0.876  0.875  0.623-  47 2.26  33 2.27  54 2.27  60 2.28
  25  0.375  0.124  0.373-  34 2.26  37 2.27  57 2.27  62 2.28
  26  0.875  0.124  0.373-  33 2.26  38 2.27  58 2.27  61 2.28
  27  0.375  0.624  0.373-  36 2.26  39 2.27  59 2.27  64 2.28
  28  0.875  0.624  0.373-  35 2.26  40 2.27  60 2.27  63 2.28
  29  0.125  0.376  0.373-  35 2.26  39 2.27  57 2.27  61 2.28
  30  0.625  0.376  0.373-  36 2.26  40 2.27  58 2.27  62 2.28
  31  0.125  0.876  0.373-  33 2.26  37 2.27  59 2.27  63 2.28
  32  0.625  0.876  0.373-  34 2.26  38 2.27  60 2.27  64 2.28
  33  0.000  0.000  0.502-  26 2.26  31 2.26  17 2.27  24 2.27
  34  0.500  0.000  0.502-  25 2.26  32 2.26  18 2.27  23 2.27
  35  0.000  0.500  0.502-  28 2.26  29 2.26  19 2.27  22 2.27
  36  0.500  0.500  0.502-  27 2.26  30 2.26  20 2.27  21 2.27
  37  0.250  0.000  0.252-   1 2.26   7 2.26  25 2.27  31 2.27
  38  0.750  0.000  0.252-   2 2.26   8 2.26  26 2.27  32 2.27
  39  0.250  0.500  0.252-   3 2.26   5 2.26  27 2.27  29 2.27
  40  0.750  0.500  0.252-   4 2.26   6 2.26  28 2.27  30 2.27
  41  0.250  0.250  0.002-   9 2.26  13 2.26   1 2.27   5 2.27
  42  0.750  0.250  0.002-  10 2.26  14 2.26   2 2.27   6 2.27
  43  0.250  0.750  0.002-  11 2.26  15 2.26   3 2.27   7 2.27
  44  0.750  0.750  0.002-  12 2.26  16 2.26   4 2.27   8 2.27
  45  0.000  0.250  0.752-  17 2.26  22 2.26   9 2.27  14 2.27
  46  0.500  0.250  0.752-  18 2.26  21 2.26  10 2.27  13 2.27
  47  0.000  0.750  0.752-  19 2.26  24 2.26  11 2.27  16 2.27
  48  0.500  0.750  0.752-  20 2.26  23 2.26  12 2.27  15 2.27
  49  0.000  0.000  0.002-  11 2.27  14 2.27   1 2.28   8 2.28
  50  0.500  0.000  0.002-  12 2.27  13 2.27   2 2.28   7 2.28
  51  0.000  0.500  0.002-   9 2.27  16 2.27   3 2.28   6 2.28
  52  0.500  0.500  0.002-  10 2.27  15 2.27   4 2.28   5 2.28
  53  0.250  0.000  0.752-  17 2.27  23 2.27  11 2.28  13 2.28
  54  0.750  0.000  0.752-  18 2.27  24 2.27  12 2.28  14 2.28
  55  0.250  0.500  0.752-  19 2.27  21 2.27   9 2.28  15 2.28
  56  0.750  0.500  0.752-  20 2.27  22 2.27  10 2.28  16 2.28
  57  0.250  0.250  0.502-  25 2.27  29 2.27  17 2.28  21 2.28
  58  0.750  0.250  0.502-  26 2.27  30 2.27  18 2.28  22 2.28
  59  0.250  0.750  0.502-  27 2.27  31 2.27  19 2.28  23 2.28
  60  0.750  0.750  0.502-  28 2.27  32 2.27  20 2.28  24 2.28
  61  0.000  0.250  0.252-   1 2.27   6 2.27  26 2.28  29 2.28
  62  0.500  0.250  0.252-   2 2.27   5 2.27  25 2.28  30 2.28
  63  0.000  0.750  0.252-   3 2.27   8 2.27  28 2.28  31 2.28
  64  0.500  0.750  0.252-   4 2.27   7 2.27  27 2.28  32 2.28
 
  LATTYP: Found a base centered orthorhombic cell.
 ALAT       =    14.6282828495
 B/A-ratio  =     1.0318982714
 C/A-ratio  =     0.7122533866
  
  Lattice vectors:
  
 A1 = (  10.5087320000,   0.1649740000,   0.0000000000)
 A2 = (  -0.1649740000, -10.5087320000,   0.0000000000)
 A3 = (   0.0000000000,   0.0000000000, -10.4190440000)


Analysis of symmetry for initial positions (statically):
=====================================================================
 Subroutine PRICEL returns following result:
 
  LATTYP: Found a face centered orthorhombic cell.
 ALAT       =     7.3141414248
 B/A-ratio  =     1.0318982714
 C/A-ratio  =     1.4245067732
  
  Lattice vectors:
  
 A1 = (  -2.6684265000,  -2.6684265000,   5.2095220000)
 A2 = (  -2.5859395000,   2.5859395000,   5.2095220000)
 A3 = (  -5.2543660000,  -0.0824870000,   0.0000000000)
 
   8 primitive cells build up your supercell.
 

 Routine SETGRP: Setting up the symmetry group for a 
 base centered orthorhombic supercell.


 Subroutine GETGRP returns: Found  4 space group operations
 (whereof  2 operations were pure point group operations)
 out of a pool of  8 trial point group operations.


The static configuration has the point symmetry C_2 .
 The point group associated with its full space group is C_2v.


Analysis of symmetry for dynamics (positions and initial velocities):
=====================================================================
 Subroutine PRICEL returns following result:
 
  LATTYP: Found a face centered orthorhombic cell.
 ALAT       =     7.3141414248
 B/A-ratio  =     1.0318982714
 C/A-ratio  =     1.4245067732
  
  Lattice vectors:
  
 A1 = (  -2.6684265000,  -2.6684265000,   5.2095220000)
 A2 = (  -2.5859395000,   2.5859395000,   5.2095220000)
 A3 = (  -5.2543660000,  -0.0824870000,   0.0000000000)
 
   8 primitive cells build up your supercell.
 

 Routine SETGRP: Setting up the symmetry group for a 
 base centered orthorhombic supercell.


 Subroutine GETGRP returns: Found  4 space group operations
 (whereof  2 operations were pure point group operations)
 out of a pool of  8 trial point group operations.


The dynamic configuration has the point symmetry C_2 .
 The point group associated with its full space group is C_2v.


Analysis of structural, dynamic, and magnetic symmetry:
=====================================================================
 Subroutine PRICEL returns following result:
 
  LATTYP: Found a face centered orthorhombic cell.
 ALAT       =     7.3141414248
 B/A-ratio  =     1.0318982714
 C/A-ratio  =     1.4245067732
  
  Lattice vectors:
  
 A1 = (  -2.6684265000,  -2.6684265000,   5.2095220000)
 A2 = (  -2.5859395000,   2.5859395000,   5.2095220000)
 A3 = (  -5.2543660000,  -0.0824870000,   0.0000000000)
 
   8 primitive cells build up your supercell.
 

 Routine SETGRP: Setting up the symmetry group for a 
 base centered orthorhombic supercell.


 Subroutine GETGRP returns: Found  4 space group operations
 (whereof  2 operations were pure point group operations)
 out of a pool of  8 trial point group operations.


The magnetic configuration has the point symmetry C_2 .
 The point group associated with its full space group is C_2v.


 Subroutine INISYM returns: Found  4 space group operations
 (whereof  2 operations are pure point group operations),
 and found     8 'primitive' translations

 
 
 KPOINTS: Automatic mesh                          

Automatic generation of k-mesh.
Space group operators:
 irot       det(A)        alpha          n_x          n_y          n_z        tau_x        tau_y        tau_z
    1     1.000000     0.000000     1.000000     0.000000     0.000000     0.000000     0.000000     0.000000
    2     1.000000   179.999999     0.000000     0.000000     1.000000     0.000000     0.000000     0.000000
    3    -1.000000   180.000000     0.707107     0.707107     0.000000    -0.750000    -0.000000     0.750000
    4    -1.000000   180.000000     0.707107    -0.707107     0.000000    -0.750000    -0.000000     0.750000
 
 Subroutine IBZKPT returns following result:
 ===========================================
 
 Found      6 irreducible k-points:
 
 Following reciprocal coordinates:
            Coordinates               Weight
  0.000000  0.000000  0.000000      1.000000
  0.500000  0.000000  0.000000      2.000000
  0.500000  0.500000  0.000000      1.000000
  0.000000  0.000000  0.500000      1.000000
  0.500000  0.000000  0.500000      2.000000
  0.500000  0.500000  0.500000      1.000000
 
 Following cartesian coordinates:
            Coordinates               Weight
  0.000000  0.000000  0.000000      1.000000
  0.047591 -0.000747  0.000000      2.000000
  0.046844  0.046844  0.000000      1.000000
  0.000000  0.000000  0.047989      1.000000
  0.047591 -0.000747  0.047989      2.000000
  0.046844  0.046844  0.047989      1.000000
 
 TETIRR: Found     12 inequivalent tetrahedra from       48
 
 Subroutine IBZKPT_HF returns following result:
 ==============================================
 
 Found      8 k-points in 1st BZ
 the following      8 k-points will be used (e.g. in the exchange kernel)
 Following reciprocal coordinates:   # in IRBZ
  0.000000  0.000000  0.000000    0.12500000   1 t-inv F
  0.500000  0.000000  0.000000    0.12500000   2 t-inv F
  0.500000  0.500000  0.000000    0.12500000   3 t-inv F
  0.000000  0.000000  0.500000    0.12500000   4 t-inv F
  0.500000  0.000000  0.500000    0.12500000   5 t-inv F
  0.500000  0.500000  0.500000    0.12500000   6 t-inv F
  0.000000 -0.500000  0.000000    0.12500000   2 t-inv F spinflp
  0.000000 -0.500000  0.500000    0.12500000   5 t-inv F spinflp


--------------------------------------------------------------------------------------------------------




 Dimension of arrays:
   k-points           NKPTS =      6   k-points in BZ     NKDIM =      6   number of bands    NBANDS=    512
   number of dos      NEDOS =    301   number of ions     NIONS =     64
   non local maximal  LDIM  =      6   non local SUM 2l+1 LMDIM =     18
   total plane-waves  NPLWV = 829440
   max r-space proj   IRMAX =      1   max aug-charges    IRDMAX=  22913
   dimension x,y,z NGX =    96 NGY =   96 NGZ =   90
   dimension x,y,z NGXF=   192 NGYF=  192 NGZF=  180
   support grid    NGXF=   192 NGYF=  192 NGZF=  180
   ions per type =              32  16  16
   NGX,Y,Z   is equivalent  to a cutoff of  15.19, 15.19, 14.36 a.u.
   NGXF,Y,Z  is equivalent  to a cutoff of  30.37, 30.37, 28.72 a.u.

 SYSTEM =  CuFeS2                                  
 POSCAR =  Fe16 Cu16 S32                           

 Startparameter for this run:
   NWRITE =      2    write-flag & timer
   PREC   = accura    normal or accurate (medium, high low for compatibility)
   ISTART =      0    job   : 0-new  1-cont  2-samecut
   ICHARG =      1    charge: 1-file 2-atom 10-const
   ISPIN  =      2    spin polarized calculation?
   LNONCOLLINEAR =      F non collinear calculations
   LSORBIT =      F    spin-orbit coupling
   INIWAV =      1    electr: 0-lowe 1-rand  2-diag
   LASPH  =      F    aspherical Exc in radial PAW
   METAGGA=      F    non-selfconsistent MetaGGA calc.

 Electronic Relaxation 1
   ENCUT  =  700.0 eV  51.45 Ry    7.17 a.u.  22.67 22.67 22.48*2*pi/ulx,y,z
   ENINI  =  700.0     initial cutoff
   ENAUG  =  758.2 eV  augmentation charge cutoff
   NELM   =    500;   NELMIN=  2; NELMDL=  0     # of ELM steps 
   EDIFF  = 0.1E-07   stopping-criterion for ELM
   LREAL  =      F    real-space projection
   NLSPLINE    = F    spline interpolate recip. space projectors
   LCOMPAT=      F    compatible to vasp.4.4
   GGA_COMPAT  = T    GGA compatible to vasp.4.4-vasp.4.6
   LMAXPAW     = -100 max onsite density
   LMAXMIX     =    4 max onsite mixed and CHGCAR
   VOSKOWN=      0    Vosko Wilk Nusair interpolation
   ROPT   =    0.00000   0.00000   0.00000
 Ionic relaxation
   EDIFFG = -.1E-04   stopping-criterion for IOM
   NSW    =      0    number of steps for IOM
   NBLOCK =      1;   KBLOCK =      1    inner block; outer block 
   IBRION =     -1    ionic relax: 0-MD 1-quasi-New 2-CG
   NFREE  =      0    steps in history (QN), initial steepest desc. (CG)
   ISIF   =      2    stress and relaxation
   IWAVPR =     10    prediction:  0-non 1-charg 2-wave 3-comb
   ISYM   =      2    0-nonsym 1-usesym 2-fastsym
   LCORR  =      T    Harris-Foulkes like correction to forces

   POTIM  = 0.5000    time-step for ionic-motion
   TEIN   =    0.0    initial temperature
   TEBEG  =    0.0;   TEEND  =   0.0 temperature during run
   SMASS  =  -3.00    Nose mass-parameter (am)
   estimated Nose-frequenzy (Omega)   =  0.10E-29 period in steps =****** mass=  -0.252E-26a.u.
   SCALEE = 1.0000    scale energy and forces
   NPACO  =    256;   APACO  = 16.0  distance and # of slots for P.C.
   PSTRESS=    0.0 pullay stress

  Mass of Ions in am
   POMASS =  32.07 63.55 55.85
  Ionic Valenz
   ZVAL   =   6.00 17.00 14.00
  Atomic Wigner-Seitz radii
   RWIGS  =  -1.00 -1.00 -1.00
  virtual crystal weights 
   VCA    =   1.00  1.00  1.00
   NELECT =     688.0000    total number of electrons
   NUPDOWN=      -1.0000    fix difference up-down

 DOS related values:
   EMIN   =  10.00;   EMAX   =-10.00  energy-range for DOS
   EFERMI =   0.00
   ISMEAR =    -5;   SIGMA  =   0.03  broadening in eV -4-tet -1-fermi 0-gaus

 Electronic relaxation 2 (details)
   IALGO  =     38    algorithm
   LDIAG  =      T    sub-space diagonalisation (order eigenvalues)
   LSUBROT=      F    optimize rotation matrix (better conditioning)
   TURBO    =      0    0=normal 1=particle mesh
   IRESTART =      0    0=no restart 2=restart with 2 vectors
   NREBOOT  =      0    no. of reboots
   NMIN     =      0    reboot dimension
   EREF     =   0.00    reference energy to select bands
   IMIX   =      4    mixing-type and parameters
     AMIX     =   0.40;   BMIX     =  1.00
     AMIX_MAG =   1.60;   BMIX_MAG =  1.00
     AMIN     =   0.10
     WC   =   100.;   INIMIX=   1;  MIXPRE=   1;  MAXMIX= -45

 Intra band minimization:
   WEIMIN = 0.0000     energy-eigenvalue tresh-hold
   EBREAK =  0.49E-11  absolut break condition
   DEPER  =   0.30     relativ break condition  

   TIME   =   0.40     timestep for ELM

  volume/ion in A,a.u.               =      17.97       121.29
  Fermi-wavevector in a.u.,A,eV,Ry     =   1.379316  2.606530 25.885262  1.902513
  Thomas-Fermi vector in A             =   2.504297
 
 Write flags
   LWAVE        =      T    write WAVECAR
   LDOWNSAMPLE  =      F    k-point downsampling of WAVECAR
   LCHARG       =      T    write CHGCAR
   LVTOT        =      F    write LOCPOT, total local potential
   LVHAR        =      F    write LOCPOT, Hartree potential only
   LELF         =      F    write electronic localiz. function (ELF)
   LORBIT       =     11    0 simple, 1 ext, 2 COOP (PROOUT), +10 PAW based schemes


 Dipole corrections
   LMONO  =      F    monopole corrections only (constant potential shift)
   LDIPOL =      F    correct potential (dipole corrections)
   IDIPOL =      0    1-x, 2-y, 3-z, 4-all directions 
   EPSILON=  1.0000000 bulk dielectric constant

 LDA+U is selected, type is set to LDAUTYPE =  2
   angular momentum for each species LDAUL =     2    2    2
   U (eV)           for each species LDAUU =   0.0  0.1  4.7
   J (eV)           for each species LDAUJ =   0.0  0.0  0.0
 Exchange correlation treatment:
   GGA     =    PS    GGA type
   LEXCH   =    14    internal setting for exchange type
   VOSKOWN=      0    Vosko Wilk Nusair interpolation
   LHFCALC =     F    Hartree Fock is set to
   LHFONE  =     F    Hartree Fock one center treatment
   AEXX    =    0.0000 exact exchange contribution

 Linear response parameters
   LEPSILON=     F    determine dielectric tensor
   LRPA    =     F    only Hartree local field effects (RPA)
   LNABLA  =     F    use nabla operator in PAW spheres
   LVEL    =     F    velocity operator in full k-point grid
   LINTERFAST=   F  fast interpolation
   KINTER  =     0    interpolate to denser k-point grid
   CSHIFT  =0.1000    complex shift for real part using Kramers Kronig
   OMEGAMAX=  -1.0    maximum frequency
   DEG_THRESHOLD= 0.2000000E-02 threshold for treating states as degnerate
   RTIME   =   -0.100 relaxation time in fs
  (WPLASMAI=    0.000 imaginary part of plasma frequency in eV, 0.658/RTIME)
   DFIELD  = 0.0000000 0.0000000 0.0000000 field for delta impulse in time
 
 Orbital magnetization related:
   ORBITALMAG=     F  switch on orbital magnetization
   LCHIMAG   =     F  perturbation theory with respect to B field
   DQ        =  0.001000  dq finite difference perturbation B field
   LLRAUG    =     F  two centre corrections for induced B field

 PEAD related settings:
   LPEAD      =     T    switch on PEAD
   IPEAD      =     4    finite difference order for dpsi/dk
   LCALCPOL   =     T    calculate macroscopic polarization
   LCALCEPS   =     F    calculate dielectric tensor
   EFIELD_PEAD=    0.0000    0.0000    0.0000
   SKIP_EDOTP =     F
   LRPA       =     F
   SKIP_SCF   =     F


--------------------------------------------------------------------------------------------------------


 Static calculation
 charge density and potential will be updated during run
 spin polarized calculation
 Variant of blocked Davidson
 Davidson routine will perform the subspace rotation
 perform sub-space diagonalisation
    after iterative eigenvector-optimisation
 modified Broyden-mixing scheme, WC =      100.0
 initial mixing is a Kerker type mixing with AMIX =  0.4000 and BMIX =      1.0000
 Hartree-type preconditioning will be used
 using additional bands          168
 reciprocal scheme for non local part
 use partial core corrections
 calculate Harris-corrections to forces 
   (improved forces if not selfconsistent)
 use gradient corrections 
 use of overlap-Matrix (Vanderbilt PP)
 Fermi weights with tetrahedron method with Bloechl corrections


--------------------------------------------------------------------------------------------------------


  energy-cutoff  :      700.00
  volume of cell :     1150.33
      direct lattice vectors                 reciprocal lattice vectors
    10.508732000  0.164974000  0.000000000     0.095182417 -0.001494245  0.000000000
     0.164974000 10.508732000  0.000000000    -0.001494245  0.095182417  0.000000000
     0.000000000  0.000000000 10.419044000     0.000000000  0.000000000  0.095978095

  length of vectors
    10.510026863 10.510026863 10.419044000     0.095194145  0.095194145  0.095978095


 
 k-points in units of 2pi/SCALE and weight: Automatic mesh                          
   0.00000000  0.00000000  0.00000000       0.125
   0.04759121 -0.00074712  0.00000000       0.250
   0.04684409  0.04684409  0.00000000       0.125
   0.00000000  0.00000000  0.04798905       0.125
   0.04759121 -0.00074712  0.04798905       0.250
   0.04684409  0.04684409  0.04798905       0.125
 
 k-points in reciprocal lattice and weights: Automatic mesh                          
   0.00000000  0.00000000  0.00000000       0.125
   0.50000000  0.00000000  0.00000000       0.250
   0.50000000  0.50000000  0.00000000       0.125
   0.00000000  0.00000000  0.50000000       0.125
   0.50000000  0.00000000  0.50000000       0.250
   0.50000000  0.50000000  0.50000000       0.125
 
 position of ions in fractional coordinates (direct lattice) 
   0.12613400  0.12517700  0.12326900
   0.62613400  0.12517700  0.12326900
   0.12613400  0.62517700  0.12326900
   0.62613400  0.62517700  0.12326900
   0.37386600  0.37482300  0.12326900
   0.87386600  0.37482300  0.12326900
   0.37386600  0.87482300  0.12326900
   0.87386600  0.87482300  0.12326900
   0.12482300  0.37386600  0.87326900
   0.62482300  0.37386600  0.87326900
   0.12482300  0.87386600  0.87326900
   0.62482300  0.87386600  0.87326900
   0.37517700  0.12613400  0.87326900
   0.87517700  0.12613400  0.87326900
   0.37517700  0.62613400  0.87326900
   0.87517700  0.62613400  0.87326900
   0.12386600  0.12482300  0.62326900
   0.62386600  0.12482300  0.62326900
   0.12386600  0.62482300  0.62326900
   0.62386600  0.62482300  0.62326900
   0.37613400  0.37517700  0.62326900
   0.87613400  0.37517700  0.62326900
   0.37613400  0.87517700  0.62326900
   0.87613400  0.87517700  0.62326900
   0.37482300  0.12386600  0.37326900
   0.87482300  0.12386600  0.37326900
   0.37482300  0.62386600  0.37326900
   0.87482300  0.62386600  0.37326900
   0.12517700  0.37613400  0.37326900
   0.62517700  0.37613400  0.37326900
   0.12517700  0.87613400  0.37326900
   0.62517700  0.87613400  0.37326900
   0.00000000  0.00000000  0.50150800
   0.50000000  0.00000000  0.50150800
   0.00000000  0.50000000  0.50150800
   0.50000000  0.50000000  0.50150800
   0.25000000  0.00000000  0.25150800
   0.75000000  0.00000000  0.25150800
   0.25000000  0.50000000  0.25150800
   0.75000000  0.50000000  0.25150800
   0.25000000  0.25000000  0.00150800
   0.75000000  0.25000000  0.00150800
   0.25000000  0.75000000  0.00150800
   0.75000000  0.75000000  0.00150800
   0.00000000  0.25000000  0.75150800
   0.50000000  0.25000000  0.75150800
   0.00000000  0.75000000  0.75150800
   0.50000000  0.75000000  0.75150800
   0.00000000  0.00000000  0.00195500
   0.50000000  0.00000000  0.00195500
   0.00000000  0.50000000  0.00195500
   0.50000000  0.50000000  0.00195500
   0.25000000  0.00000000  0.75195500
   0.75000000  0.00000000  0.75195500
   0.25000000  0.50000000  0.75195500
   0.75000000  0.50000000  0.75195500
   0.25000000  0.25000000  0.50195500
   0.75000000  0.25000000  0.50195500
   0.25000000  0.75000000  0.50195500
   0.75000000  0.75000000  0.50195500
   0.00000000  0.25000000  0.25195500
   0.50000000  0.25000000  0.25195500
   0.00000000  0.75000000  0.25195500
   0.50000000  0.75000000  0.25195500
 
 position of ions in cartesian coordinates  (Angst):
   1.34615935  1.33626038  1.28434513
   6.60052535  1.41874738  1.28434513
   1.42864635  6.59062638  1.28434513
   6.68301235  6.67311338  1.28434513
   3.99069365  4.00059262  1.28434513
   9.24505965  4.08307962  1.28434513
   4.07318065  9.25495862  1.28434513
   9.32754665  9.33744562  1.28434513
   1.37340962  3.94945015  9.09862813
   6.62777562  4.03193715  9.09862813
   1.45589662  9.20381615  9.09862813
   6.71026262  9.28630315  9.09862813
   3.96344338  1.38740285  9.09862813
   9.21780938  1.46988985  9.09862813
   4.04593038  6.64176885  9.09862813
   9.30029638  6.72425585  9.09862813
   1.32226715  1.33216612  6.49386713
   6.57663315  1.41465312  6.49386713
   1.40475415  6.58653212  6.49386713
   6.65912015  6.66901912  6.49386713
   4.01458585  4.00468688  6.49386713
   9.26895185  4.08717388  6.49386713
   4.09707285  9.25905288  6.49386713
   9.35143885  9.34153988  6.49386713
   3.95934912  1.36351065  3.88910613
   9.21371512  1.44599765  3.88910613
   4.04183612  6.61787665  3.88910613
   9.29620212  6.70036365  3.88910613
   1.37750388  3.97334235  3.88910613
   6.63186988  4.05582935  3.88910613
   1.45999088  9.22770835  3.88910613
   6.71435688  9.31019535  3.88910613
   0.00000000  0.00000000  5.22523392
   5.25436600  0.08248700  5.22523392
   0.08248700  5.25436600  5.22523392
   5.33685300  5.33685300  5.22523392
   2.62718300  0.04124350  2.62047292
   7.88154900  0.12373050  2.62047292
   2.70967000  5.29560950  2.62047292
   7.96403600  5.37809650  2.62047292
   2.66842650  2.66842650  0.01571192
   7.92279250  2.75091350  0.01571192
   2.75091350  7.92279250  0.01571192
   8.00527950  8.00527950  0.01571192
   0.04124350  2.62718300  7.82999492
   5.29560950  2.70967000  7.82999492
   0.12373050  7.88154900  7.82999492
   5.37809650  7.96403600  7.82999492
   0.00000000  0.00000000  0.02036923
   5.25436600  0.08248700  0.02036923
   0.08248700  5.25436600  0.02036923
   5.33685300  5.33685300  0.02036923
   2.62718300  0.04124350  7.83465223
   7.88154900  0.12373050  7.83465223
   2.70967000  5.29560950  7.83465223
   7.96403600  5.37809650  7.83465223
   2.66842650  2.66842650  5.22989123
   7.92279250  2.75091350  5.22989123
   2.75091350  7.92279250  5.22989123
   8.00527950  8.00527950  5.22989123
   0.04124350  2.62718300  2.62513023
   5.29560950  2.70967000  2.62513023
   0.12373050  7.88154900  2.62513023
   5.37809650  7.96403600  2.62513023
 


--------------------------------------------------------------------------------------------------------


 k-point  1 :   0.0000 0.0000 0.0000  plane waves:   48367
 k-point  2 :   0.5000 0.0000 0.0000  plane waves:   48368
 k-point  3 :   0.5000 0.5000 0.0000  plane waves:   48444
 k-point  4 :   0.0000 0.0000 0.5000  plane waves:   48420
 k-point  5 :   0.5000 0.0000 0.5000  plane waves:   48352
 k-point  6 :   0.5000 0.5000 0.5000  plane waves:   48276

 maximum and minimum number of plane-waves per node :     48444    48276

 maximum number of plane-waves:     48444
 maximum index in each direction: 
   IXMAX=   22   IYMAX=   22   IZMAX=   22
   IXMIN=  -23   IYMIN=  -23   IZMIN=  -22


 serial   3D FFT for wavefunctions
 parallel 3D FFT for charge:
    minimum data exchange during FFTs selected (reduces bandwidth)


 total amount of memory used by VASP MPI-rank0   301249. kBytes
=======================================================================

   base      :      30000. kBytes
   nonl-proj :     175882. kBytes
   fftplans  :       4588. kBytes
   grid      :      69719. kBytes
   one-center:       1990. kBytes
   wavefun   :      19070. kBytes
 
     INWAV:  cpu time    0.0001: real time    0.0002
 Broyden mixing: mesh for mixing (old mesh)
   NGX = 45   NGY = 45   NGZ = 45
  (NGX  =192   NGY  =192   NGZ  =180)
  gives a total of  91125 points

 initial charge density was supplied:
 charge density of overlapping atoms calculated
 number of electron     688.0000000 magnetization       0.0000000
 keeping initial charge density in first step


--------------------------------------------------------------------------------------------------------


 Maximum index for augmentation-charges          899 (set IRDMAX)


--------------------------------------------------------------------------------------------------------


 First call to EWALD:  gamma=   0.169
 Maximum number of real-space cells 3x 3x 3
 Maximum number of reciprocal cells 3x 3x 3

    FEWALD:  cpu time    0.0023: real time    0.0023


--------------------------------------- Iteration      1(   1)  ---------------------------------------


    POTLOK:  cpu time    0.3529: real time    0.3985
    SETDIJ:  cpu time    0.0147: real time    0.0148
     EDDAV:  cpu time   63.5588: real time   64.0805
 BZINTS: Fermi energy: 16.794916;688.000000 electrons
         Band energy:***********;  BLOECHL correction: -0.006914
       DOS:  cpu time    0.0199: real time    0.0200
    --------------------------------------------
      LOOP:  cpu time   63.9462: real time   64.5137

 eigenvalue-minimisations  : 12288
 total energy-change (2. order) : 0.6198115E+04  (-0.5038253E+05)
 number of electron     688.0000000 magnetization       0.0000000
 augmentation part      688.0000000 magnetization       0.0000000

 Free energy of the ion-electron system (eV)
  ---------------------------------------------------
  alpha Z        PSCENC =      2356.85125371
  Ewald energy   TEWEN  =    -62478.24206223
  -Hartree energ DENC   =    -44314.53237687
  -exchange      EXHF   =         0.00000000
  -V(xc)+E(xc)   XCENC  =      3320.18009374
  PAW double counting   =     94592.23312189   -98164.79192727
  entropy T*S    EENTRO =         0.00000000
  eigenvalues    EBANDS =     -3133.64865901
  atomic energy  EATOM  =    114020.06510763
  Solvation  Ediel_sol  =         0.00000000
  ---------------------------------------------------
  free energy    TOTEN  =      6198.11455159 eV

  energy without entropy =     6198.11455159  energy(sigma->0) =     6198.11455159


--------------------------------------------------------------------------------------------------------




--------------------------------------- Iteration      1(   2)  ---------------------------------------


     EDDAV:  cpu time   67.8475: real time   68.3615
 BZINTS: Fermi energy:  6.597759;688.000000 electrons
         Band energy:***********;  BLOECHL correction:  0.000000
       DOS:  cpu time    0.0034: real time    0.0035
    --------------------------------------------
      LOOP:  cpu time   67.8510: real time   68.3650

 eigenvalue-minimisations  : 12544
 total energy-change (2. order) :-0.6281459E+04  (-0.6150613E+04)
 number of electron     688.0000000 magnetization       0.0000000
 augmentation part      688.0000000 magnetization       0.0000000

 Free energy of the ion-electron system (eV)
  ---------------------------------------------------
  alpha Z        PSCENC =      2356.85125371
  Ewald energy   TEWEN  =    -62478.24206223
  -Hartree energ DENC   =    -44314.53237687
  -exchange      EXHF   =         0.00000000
  -V(xc)+E(xc)   XCENC  =      3320.18009374
  PAW double counting   =     94592.23312189   -98164.79192727
  entropy T*S    EENTRO =         0.00000000
  eigenvalues    EBANDS =     -9415.10805702
  atomic energy  EATOM  =    114020.06510763
  Solvation  Ediel_sol  =         0.00000000
  ---------------------------------------------------
  free energy    TOTEN  =       -83.34484642 eV

  energy without entropy =      -83.34484642  energy(sigma->0) =      -83.34484642


--------------------------------------------------------------------------------------------------------




--------------------------------------- Iteration      1(   3)  ---------------------------------------


     EDDAV:  cpu time  132.4976: real time  133.3808
 BZINTS: Fermi energy:  6.164285;688.000000 electrons
         Band energy:***********;  BLOECHL correction:  0.000000
       DOS:  cpu time    0.0037: real time    0.0037
    --------------------------------------------
      LOOP:  cpu time  132.5013: real time  133.3845

 eigenvalue-minimisations  : 18176
 total energy-change (2. order) :-0.2889296E+03  (-0.2875004E+03)
 number of electron     688.0000000 magnetization       0.0000000
 augmentation part      688.0000000 magnetization       0.0000000

 Free energy of the ion-electron system (eV)
  ---------------------------------------------------
  alpha Z        PSCENC =      2356.85125371
  Ewald energy   TEWEN  =    -62478.24206223
  -Hartree energ DENC   =    -44314.53237687
  -exchange      EXHF   =         0.00000000
  -V(xc)+E(xc)   XCENC  =      3320.18009374
  PAW double counting   =     94592.23312189   -98164.79192727
  entropy T*S    EENTRO =         0.00000000
  eigenvalues    EBANDS =     -9704.03761803
  atomic energy  EATOM  =    114020.06510763
  Solvation  Ediel_sol  =         0.00000000
  ---------------------------------------------------
  free energy    TOTEN  =      -372.27440743 eV

  energy without entropy =     -372.27440743  energy(sigma->0) =     -372.27440743


--------------------------------------------------------------------------------------------------------




--------------------------------------- Iteration      1(   4)  ---------------------------------------


     EDDAV:  cpu time   66.8306: real time   67.3393
 BZINTS: Fermi energy:  6.073879;688.000000 electrons
         Band energy:***********;  BLOECHL correction:  0.000000
       DOS:  cpu time    0.0037: real time    0.0037
    --------------------------------------------
      LOOP:  cpu time   66.8342: real time   67.3430

 eigenvalue-minimisations  : 12544
 total energy-change (2. order) :-0.3976777E+01  (-0.3976563E+01)
 number of electron     688.0000000 magnetization       0.0000000
 augmentation part      688.0000000 magnetization       0.0000000

 Free energy of the ion-electron system (eV)
  ---------------------------------------------------
  alpha Z        PSCENC =      2356.85125371
  Ewald energy   TEWEN  =    -62478.24206223
  -Hartree energ DENC   =    -44314.53237687
  -exchange      EXHF   =         0.00000000
  -V(xc)+E(xc)   XCENC  =      3320.18009374
  PAW double counting   =     94592.23312189   -98164.79192727
  entropy T*S    EENTRO =         0.00000000
  eigenvalues    EBANDS =     -9708.01439497
  atomic energy  EATOM  =    114020.06510763
  Solvation  Ediel_sol  =         0.00000000
  ---------------------------------------------------
  free energy    TOTEN  =      -376.25118437 eV

  energy without entropy =     -376.25118437  energy(sigma->0) =     -376.25118437


--------------------------------------------------------------------------------------------------------




--------------------------------------- Iteration      1(   5)  ---------------------------------------


     EDDAV:  cpu time  132.3306: real time  133.2112
 BZINTS: Fermi energy:  6.063629;688.000000 electrons
         Band energy:***********;  BLOECHL correction:  0.000000
       DOS:  cpu time    0.0037: real time    0.0037
    CHARGE:  cpu time    1.1823: real time    1.1908
    MIXING:  cpu time    0.0085: real time    0.0086
    --------------------------------------------
      LOOP:  cpu time  133.5251: real time  134.4143

 eigenvalue-minimisations  : 17920
 total energy-change (2. order) :-0.1036538E+00  (-0.1036528E+00)
 number of electron     688.0000422 magnetization       0.0000000
 augmentation part      261.0266694 magnetization       0.0000000

 Broyden mixing:
  rms(total) = 0.75009E+01    rms(broyden)= 0.75008E+01
  rms(prec ) = 0.89803E+01
  weight for this iteration     100.00

 Free energy of the ion-electron system (eV)
  ---------------------------------------------------
  alpha Z        PSCENC =      2356.85125371
  Ewald energy   TEWEN  =    -62478.24206223
  -Hartree energ DENC   =    -44314.53237687
  -exchange      EXHF   =         0.00000000
  -V(xc)+E(xc)   XCENC  =      3320.18009374
  PAW double counting   =     94592.23312189   -98164.79192727
  entropy T*S    EENTRO =         0.00000000
  eigenvalues    EBANDS =     -9708.11804873
  atomic energy  EATOM  =    114020.06510763
  Solvation  Ediel_sol  =         0.00000000
  ---------------------------------------------------
  free energy    TOTEN  =      -376.35483813 eV

  energy without entropy =     -376.35483813  energy(sigma->0) =     -376.35483813


--------------------------------------------------------------------------------------------------------




--------------------------------------- Iteration      1(   6)  ---------------------------------------


    POTLOK:  cpu time    0.1372: real time    0.1381
    SETDIJ:  cpu time    0.0131: real time    0.0132
     EDDAV:  cpu time   67.3338: real time   67.8390
 BZINTS: Fermi energy:  4.289414;688.000000 electrons
         Band energy:***********;  BLOECHL correction:  0.000000
       DOS:  cpu time    0.0042: real time    0.0042
    CHARGE:  cpu time    1.1804: real time    1.1889
    MIXING:  cpu time    0.0025: real time    0.0082
    --------------------------------------------
      LOOP:  cpu time   68.6711: real time   69.1915

 eigenvalue-minimisations  : 12544
 total energy-change (2. order) : 0.4150882E+02  (-0.5904005E+02)
 number of electron     688.0000458 magnetization      -0.0000000
 augmentation part      296.2625757 magnetization      -0.0000000

 Broyden mixing:
  rms(total) = 0.99894E+01    rms(broyden)= 0.99894E+01
  rms(prec ) = 0.10438E+02
  weight for this iteration     100.00

 eigenvalues of (default mixing * dielectric matrix)
  average eigenvalue GAMMA=   0.1682
  0.1682

 Free energy of the ion-electron system (eV)
  ---------------------------------------------------
  alpha Z        PSCENC =      2356.85125371
  Ewald energy   TEWEN  =    -62478.24206223
  -Hartree energ DENC   =    -42358.17132087
  -exchange      EXHF   =         0.00000000
  -V(xc)+E(xc)   XCENC  =      3267.58129166
  PAW double counting   =     96418.47468163   -99777.76805468
  entropy T*S    EENTRO =         0.00000000
  eigenvalues    EBANDS =    -11783.63691901
  atomic energy  EATOM  =    114020.06510763
  Solvation  Ediel_sol  =         0.00000000
  ---------------------------------------------------
  free energy    TOTEN  =      -334.84602216 eV

  energy without entropy =     -334.84602216  energy(sigma->0) =     -334.84602216


--------------------------------------------------------------------------------------------------------




--------------------------------------- Iteration      1(   7)  ---------------------------------------


    POTLOK:  cpu time    0.1370: real time    0.1378
    SETDIJ:  cpu time    0.0131: real time    0.0132
     EDDAV:  cpu time   70.5810: real time   71.1102
 BZINTS: Fermi energy:  4.585601;688.000000 electrons
         Band energy:***********;  BLOECHL correction:  0.000000
       DOS:  cpu time    0.0033: real time    0.0033
    CHARGE:  cpu time    1.1801: real time    1.1883
    MIXING:  cpu time    0.0019: real time    0.0030
    --------------------------------------------
      LOOP:  cpu time   71.9164: real time   72.4559

 eigenvalue-minimisations  : 12800
 total energy-change (2. order) : 0.5078374E+01  (-0.1114363E+02)
 number of electron     688.0000446 magnetization      -0.0000000
 augmentation part      286.0476590 magnetization      -0.0000000

 Broyden mixing:
  rms(total) = 0.43660E+01    rms(broyden)= 0.43660E+01
  rms(prec ) = 0.44406E+01
  weight for this iteration     100.00

 eigenvalues of (default mixing * dielectric matrix)
  average eigenvalue GAMMA=   0.6169
  0.7652  0.4686

 Free energy of the ion-electron system (eV)
  ---------------------------------------------------
  alpha Z        PSCENC =      2356.85125371
  Ewald energy   TEWEN  =    -62478.24206223
  -Hartree energ DENC   =    -42841.10160264
  -exchange      EXHF   =         0.00000000
  -V(xc)+E(xc)   XCENC  =      3279.01479753
  PAW double counting   =     99834.56390555  -103350.83564479
  entropy T*S    EENTRO =         0.00000000
  eigenvalues    EBANDS =    -11150.08340257
  atomic energy  EATOM  =    114020.06510763
  Solvation  Ediel_sol  =         0.00000000
  ---------------------------------------------------
  free energy    TOTEN  =      -329.76764781 eV

  energy without entropy =     -329.76764781  energy(sigma->0) =     -329.76764781


--------------------------------------------------------------------------------------------------------




--------------------------------------- Iteration      1(   8)  ---------------------------------------


    POTLOK:  cpu time    0.1353: real time    0.1383
    SETDIJ:  cpu time    0.0130: real time    0.0131
     EDDAV:  cpu time  109.6937: real time  110.4405
 BZINTS: Fermi energy:  5.104803;688.000000 electrons
         Band energy:***********;  BLOECHL correction:  0.000000
       DOS:  cpu time    0.0033: real time    0.0033
    CHARGE:  cpu time    1.1815: real time    1.1899
    MIXING:  cpu time    0.0016: real time    0.0016
    --------------------------------------------
      LOOP:  cpu time  111.0284: real time  111.7866

 eigenvalue-minimisations  : 16128
 total energy-change (2. order) : 0.4569432E-01  (-0.3567447E+01)
 number of electron     688.0000441 magnetization      -0.0000000
 augmentation part      281.4825530 magnetization      -0.0000000

 Broyden mixing:
  rms(total) = 0.32141E+01    rms(broyden)= 0.32141E+01
  rms(prec ) = 0.34761E+01
  weight for this iteration     100.00

 eigenvalues of (default mixing * dielectric matrix)
  average eigenvalue GAMMA=   0.8773
  1.5601  0.6207  0.4511

 Free energy of the ion-electron system (eV)
  ---------------------------------------------------
  alpha Z        PSCENC =      2356.85125371
  Ewald energy   TEWEN  =    -62478.24206223
  -Hartree energ DENC   =    -43098.66069736
  -exchange      EXHF   =         0.00000000
  -V(xc)+E(xc)   XCENC  =      3291.25476726
  PAW double counting   =    105315.44648109  -108931.29386567
  entropy T*S    EENTRO =         0.00000000
  eigenvalues    EBANDS =    -10805.14293792
  atomic energy  EATOM  =    114020.06510763
  Solvation  Ediel_sol  =         0.00000000
  ---------------------------------------------------
  free energy    TOTEN  =      -329.72195349 eV

  energy without entropy =     -329.72195349  energy(sigma->0) =     -329.72195349


--------------------------------------------------------------------------------------------------------




--------------------------------------- Iteration      1(   9)  ---------------------------------------


    POTLOK:  cpu time    0.1394: real time    0.1403
    SETDIJ:  cpu time    0.0131: real time    0.0132
     EDDAV:  cpu time   95.9149: real time   96.5928
 BZINTS: Fermi energy:  4.576751;688.000000 electrons
         Band energy:***********;  BLOECHL correction:  0.000000
       DOS:  cpu time    0.0033: real time    0.0033
    CHARGE:  cpu time    1.1826: real time    1.1911
    MIXING:  cpu time    0.0019: real time    0.0031
    --------------------------------------------
      LOOP:  cpu time   97.2552: real time   97.9439

 eigenvalue-minimisations  : 15360
 total energy-change (2. order) :-0.1846347E+01  (-0.9993383E+01)
 number of electron     688.0000442 magnetization      -0.0000000
 augmentation part      282.1315760 magnetization      -0.0000000

 Broyden mixing:
  rms(total) = 0.23506E+01    rms(broyden)= 0.23505E+01
  rms(prec ) = 0.27964E+01
  weight for this iteration     100.00

 eigenvalues of (default mixing * dielectric matrix)
  average eigenvalue GAMMA=   0.9811
  2.3965  0.5969  0.5969  0.3343

 Free energy of the ion-electron system (eV)
  ---------------------------------------------------
  alpha Z        PSCENC =      2356.85125371
  Ewald energy   TEWEN  =    -62478.24206223
  -Hartree energ DENC   =    -42884.35015590
  -exchange      EXHF   =         0.00000000
  -V(xc)+E(xc)   XCENC  =      3284.04018719
  PAW double counting   =    109777.32871027  -113430.05827721
  entropy T*S    EENTRO =         0.00000000
  eigenvalues    EBANDS =    -10977.20306394
  atomic energy  EATOM  =    114020.06510763
  Solvation  Ediel_sol  =         0.00000000
  ---------------------------------------------------
  free energy    TOTEN  =      -331.56830048 eV

  energy without entropy =     -331.56830048  energy(sigma->0) =     -331.56830048


--------------------------------------------------------------------------------------------------------




--------------------------------------- Iteration      1(  10)  ---------------------------------------


    POTLOK:  cpu time    0.1389: real time    0.1398
    SETDIJ:  cpu time    0.0128: real time    0.0129
     EDDAV:  cpu time  115.1145: real time  115.9056
 BZINTS: Fermi energy:  4.949145;688.000000 electrons
         Band energy:***********;  BLOECHL correction:  0.000000
       DOS:  cpu time    0.0037: real time    0.0037
    CHARGE:  cpu time    1.1834: real time    1.1920
    MIXING:  cpu time    0.0016: real time    0.0016
    --------------------------------------------
      LOOP:  cpu time  116.4548: real time  117.2555

 eigenvalue-minimisations  : 16640
 total energy-change (2. order) : 0.3673655E+01  (-0.2150169E+01)
 number of electron     688.0000441 magnetization      -0.0000000
 augmentation part      282.3967106 magnetization      -0.0000000

 Broyden mixing:
  rms(total) = 0.27587E+00    rms(broyden)= 0.27581E+00
  rms(prec ) = 0.30252E+00
  weight for this iteration     100.00

 eigenvalues of (default mixing * dielectric matrix)
  average eigenvalue GAMMA=   0.9222
  2.3617  0.7730  0.5755  0.5755  0.3250

 Free energy of the ion-electron system (eV)
  ---------------------------------------------------
  alpha Z        PSCENC =      2356.85125371
  Ewald energy   TEWEN  =    -62478.24206223
  -Hartree energ DENC   =    -42915.35436004
  -exchange      EXHF   =         0.00000000
  -V(xc)+E(xc)   XCENC  =      3287.37259203
  PAW double counting   =    113297.77702797  -116995.55157374
  entropy T*S    EENTRO =         0.00000000
  eigenvalues    EBANDS =    -10900.81263080
  atomic energy  EATOM  =    114020.06510763
  Solvation  Ediel_sol  =         0.00000000
  ---------------------------------------------------
  free energy    TOTEN  =      -327.89464547 eV

  energy without entropy =     -327.89464547  energy(sigma->0) =     -327.89464547


--------------------------------------------------------------------------------------------------------




--------------------------------------- Iteration      1(  11)  ---------------------------------------


    POTLOK:  cpu time    0.1370: real time    0.1379
    SETDIJ:  cpu time    0.0130: real time    0.0130
     EDDAV:  cpu time  109.7194: real time  110.4765
 BZINTS: Fermi energy:  4.962519;688.000000 electrons
         Band energy:***********;  BLOECHL correction:  0.000000
       DOS:  cpu time    0.0037: real time    0.0037
    CHARGE:  cpu time    1.1837: real time    1.1921
    MIXING:  cpu time    0.0019: real time    0.0019
    --------------------------------------------
      LOOP:  cpu time  111.0588: real time  111.8253

 eigenvalue-minimisations  : 16640
 total energy-change (2. order) :-0.1209887E+00  (-0.1229877E+00)
 number of electron     688.0000441 magnetization      -0.0000000
 augmentation part      282.3586141 magnetization      -0.0000000

 Broyden mixing:
  rms(total) = 0.35313E+00    rms(broyden)= 0.35311E+00
  rms(prec ) = 0.38863E+00
  weight for this iteration     100.00

 eigenvalues of (default mixing * dielectric matrix)
  average eigenvalue GAMMA=   0.9036
  2.2537  0.7361  0.7361  0.7748  0.5816  0.3394

 Free energy of the ion-electron system (eV)
  ---------------------------------------------------
  alpha Z        PSCENC =      2356.85125371
  Ewald energy   TEWEN  =    -62478.24206223
  -Hartree energ DENC   =    -42933.21811485
  -exchange      EXHF   =         0.00000000
  -V(xc)+E(xc)   XCENC  =      3287.10289390
  PAW double counting   =    113086.38678659  -116784.10324065
  entropy T*S    EENTRO =         0.00000000
  eigenvalues    EBANDS =    -10882.85825829
  atomic energy  EATOM  =    114020.06510763
  Solvation  Ediel_sol  =         0.00000000
  ---------------------------------------------------
  free energy    TOTEN  =      -328.01563419 eV

  energy without entropy =     -328.01563419  energy(sigma->0) =     -328.01563419


--------------------------------------------------------------------------------------------------------




--------------------------------------- Iteration      1(  12)  ---------------------------------------


    POTLOK:  cpu time    0.1385: real time    0.1394
    SETDIJ:  cpu time    0.0131: real time    0.0132
     EDDAV:  cpu time  115.8157: real time  116.6110
 BZINTS: Fermi energy:  4.945811;688.000000 electrons
         Band energy:***********;  BLOECHL correction:  0.000000
       DOS:  cpu time    0.0038: real time    0.0038
    CHARGE:  cpu time    1.1814: real time    1.1899
    MIXING:  cpu time    0.0018: real time    0.0018
    --------------------------------------------
      LOOP:  cpu time  117.1542: real time  117.9591

 eigenvalue-minimisations  : 16640
 total energy-change (2. order) : 0.1104051E-01  (-0.4935626E-01)
 number of electron     688.0000441 magnetization      -0.0000000
 augmentation part      282.2470057 magnetization      -0.0000000

 Broyden mixing:
  rms(total) = 0.13265E+00    rms(broyden)= 0.13265E+00
  rms(prec ) = 0.14835E+00
  weight for this iteration     100.00

 eigenvalues of (default mixing * dielectric matrix)
  average eigenvalue GAMMA=   0.9430
  2.2781  1.0814  1.0814  0.6217  0.6217  0.5770  0.3392

 Free energy of the ion-electron system (eV)
  ---------------------------------------------------
  alpha Z        PSCENC =      2356.85125371
  Ewald energy   TEWEN  =    -62478.24206223
  -Hartree energ DENC   =    -42932.40224185
  -exchange      EXHF   =         0.00000000
  -V(xc)+E(xc)   XCENC  =      3286.61086242
  PAW double counting   =    112697.25393460  -116391.92813994
  entropy T*S    EENTRO =         0.00000000
  eigenvalues    EBANDS =    -10886.21330801
  atomic energy  EATOM  =    114020.06510763
  Solvation  Ediel_sol  =         0.00000000
  ---------------------------------------------------
  free energy    TOTEN  =      -328.00459367 eV

  energy without entropy =     -328.00459367  energy(sigma->0) =     -328.00459367


--------------------------------------------------------------------------------------------------------




--------------------------------------- Iteration      1(  13)  ---------------------------------------


    POTLOK:  cpu time    0.1371: real time    0.1380
    SETDIJ:  cpu time    0.0132: real time    0.0132
     EDDAV:  cpu time   88.9104: real time   89.5396
 BZINTS: Fermi energy:  4.949612;688.000000 electrons
         Band energy:***********;  BLOECHL correction:  0.000000
       DOS:  cpu time    0.0037: real time    0.0038
    CHARGE:  cpu time    1.1816: real time    1.1899
    MIXING:  cpu time    0.0019: real time    0.0019
    --------------------------------------------
      LOOP:  cpu time   90.2479: real time   90.8864

 eigenvalue-minimisations  : 14336
 total energy-change (2. order) :-0.4305991E-02  (-0.4929362E-02)
 number of electron     688.0000441 magnetization      -0.0000000
 augmentation part      282.2596904 magnetization      -0.0000000

 Broyden mixing:
  rms(total) = 0.91333E-01    rms(broyden)= 0.91332E-01
  rms(prec ) = 0.93224E-01
  weight for this iteration     100.00

 eigenvalues of (default mixing * dielectric matrix)
  average eigenvalue GAMMA=   1.1278
  2.5480  2.5480  0.3393  0.8446  0.8446  0.6601  0.6601  0.5776

 Free energy of the ion-electron system (eV)
  ---------------------------------------------------
  alpha Z        PSCENC =      2356.85125371
  Ewald energy   TEWEN  =    -62478.24206223
  -Hartree energ DENC   =    -42938.35953384
  -exchange      EXHF   =         0.00000000
  -V(xc)+E(xc)   XCENC  =      3286.68422024
  PAW double counting   =    112448.61268776  -116143.16303776
  entropy T*S    EENTRO =         0.00000000
  eigenvalues    EBANDS =    -10880.45753517
  atomic energy  EATOM  =    114020.06510763
  Solvation  Ediel_sol  =         0.00000000
  ---------------------------------------------------
  free energy    TOTEN  =      -328.00889967 eV

  energy without entropy =     -328.00889967  energy(sigma->0) =     -328.00889967


--------------------------------------------------------------------------------------------------------




--------------------------------------- Iteration      1(  14)  ---------------------------------------


    POTLOK:  cpu time    0.1341: real time    0.1375
    SETDIJ:  cpu time    0.0128: real time    0.0129
     EDDAV:  cpu time  116.9356: real time  117.7216
 BZINTS: Fermi energy:  4.952806;688.000000 electrons
         Band energy:***********;  BLOECHL correction:  0.000000
       DOS:  cpu time    0.0037: real time    0.0037
    CHARGE:  cpu time    1.1838: real time    1.1911
    MIXING:  cpu time    0.0019: real time    0.0020
    --------------------------------------------
      LOOP:  cpu time  118.2720: real time  119.0688

 eigenvalue-minimisations  : 16640
 total energy-change (2. order) :-0.9336313E-02  (-0.4920383E-02)
 number of electron     688.0000441 magnetization      -0.0000000
 augmentation part      282.2179519 magnetization      -0.0000000

 Broyden mixing:
  rms(total) = 0.39449E-01    rms(broyden)= 0.39443E-01
  rms(prec ) = 0.43861E-01
  weight for this iteration     100.00

 eigenvalues of (default mixing * dielectric matrix)
  average eigenvalue GAMMA=   1.0533
  2.3642  2.3642  0.9435  0.9435  0.3392  0.6453  0.6453  0.5669  0.6675

 Free energy of the ion-electron system (eV)
  ---------------------------------------------------
  alpha Z        PSCENC =      2356.85125371
  Ewald energy   TEWEN  =    -62478.24206223
  -Hartree energ DENC   =    -42946.68131750
  -exchange      EXHF   =         0.00000000
  -V(xc)+E(xc)   XCENC  =      3286.49789325
  PAW double counting   =    112169.27693095  -115863.26264877
  entropy T*S    EENTRO =         0.00000000
  eigenvalues    EBANDS =    -10872.52339302
  atomic energy  EATOM  =    114020.06510763
  Solvation  Ediel_sol  =         0.00000000
  ---------------------------------------------------
  free energy    TOTEN  =      -328.01823598 eV

  energy without entropy =     -328.01823598  energy(sigma->0) =     -328.01823598


--------------------------------------------------------------------------------------------------------




--------------------------------------- Iteration      1(  15)  ---------------------------------------


    POTLOK:  cpu time    0.1378: real time    0.1386
    SETDIJ:  cpu time    0.0131: real time    0.0131
     EDDAV:  cpu time   79.8148: real time   80.3839
 BZINTS: Fermi energy:  4.951308;688.000000 electrons
         Band energy:***********;  BLOECHL correction:  0.000000
       DOS:  cpu time    0.0038: real time    0.0038
    CHARGE:  cpu time    1.1807: real time    1.1891
    MIXING:  cpu time    0.0020: real time    0.0020
    --------------------------------------------
      LOOP:  cpu time   81.1522: real time   81.7306

 eigenvalue-minimisations  : 13312
 total energy-change (2. order) : 0.2884258E-03  (-0.5141517E-03)
 number of electron     688.0000441 magnetization      -0.0000000
 augmentation part      282.2203451 magnetization      -0.0000000

 Broyden mixing:
  rms(total) = 0.16357E-01    rms(broyden)= 0.16356E-01
  rms(prec ) = 0.17012E-01
  weight for this iteration     100.00

 eigenvalues of (default mixing * dielectric matrix)
  average eigenvalue GAMMA=   0.9776
  2.3194  2.3194  0.9458  0.9458  0.6409  0.6409  0.6719  0.5565  0.3392  0.3964

 Free energy of the ion-electron system (eV)
  ---------------------------------------------------
  alpha Z        PSCENC =      2356.85125371
  Ewald energy   TEWEN  =    -62478.24206223
  -Hartree energ DENC   =    -42945.21564198
  -exchange      EXHF   =         0.00000000
  -V(xc)+E(xc)   XCENC  =      3286.47329122
  PAW double counting   =    112261.34844185  -115955.60466172
  entropy T*S    EENTRO =         0.00000000
  eigenvalues    EBANDS =    -10873.69367603
  atomic energy  EATOM  =    114020.06510763
  Solvation  Ediel_sol  =         0.00000000
  ---------------------------------------------------
  free energy    TOTEN  =      -328.01794755 eV

  energy without entropy =     -328.01794755  energy(sigma->0) =     -328.01794755


--------------------------------------------------------------------------------------------------------




--------------------------------------- Iteration      1(  16)  ---------------------------------------


    POTLOK:  cpu time    0.1384: real time    0.1393
    SETDIJ:  cpu time    0.0131: real time    0.0131
     EDDAV:  cpu time  124.9811: real time  125.8033
 BZINTS: Fermi energy:  4.951293;688.000000 electrons
         Band energy:***********;  BLOECHL correction:  0.000000
       DOS:  cpu time    0.0038: real time    0.0038
    CHARGE:  cpu time    1.1869: real time    1.1953
    MIXING:  cpu time    0.0022: real time    0.0029
    --------------------------------------------
      LOOP:  cpu time  126.3254: real time  127.1578

 eigenvalue-minimisations  : 16896
 total energy-change (2. order) :-0.1044506E-03  (-0.4078592E-04)
 number of electron     688.0000441 magnetization       0.0000000
 augmentation part      282.2225588 magnetization       0.0000000

 Broyden mixing:
  rms(total) = 0.12116E-01    rms(broyden)= 0.12116E-01
  rms(prec ) = 0.12620E-01
  weight for this iteration     100.00

 eigenvalues of (default mixing * dielectric matrix)
  average eigenvalue GAMMA=   1.1018
  2.4445  1.8817  1.8817  1.3787  0.3392  0.8265  0.8265  0.6594  0.6594  0.5732
  0.6491

 Free energy of the ion-electron system (eV)
  ---------------------------------------------------
  alpha Z        PSCENC =      2356.85125371
  Ewald energy   TEWEN  =    -62478.24206223
  -Hartree energ DENC   =    -42945.37327568
  -exchange      EXHF   =         0.00000000
  -V(xc)+E(xc)   XCENC  =      3286.48482140
  PAW double counting   =    112269.71537328  -115963.91228944
  entropy T*S    EENTRO =         0.00000000
  eigenvalues    EBANDS =    -10873.60698067
  atomic energy  EATOM  =    114020.06510763
  Solvation  Ediel_sol  =         0.00000000
  ---------------------------------------------------
  free energy    TOTEN  =      -328.01805200 eV

  energy without entropy =     -328.01805200  energy(sigma->0) =     -328.01805200


--------------------------------------------------------------------------------------------------------




--------------------------------------- Iteration      1(  17)  ---------------------------------------


    POTLOK:  cpu time    0.1396: real time    0.1405
    SETDIJ:  cpu time    0.0129: real time    0.0130
     EDDAV:  cpu time   90.7358: real time   91.3800
 BZINTS: Fermi energy:  4.952159;688.000000 electrons
         Band energy:***********;  BLOECHL correction:  0.000000
       DOS:  cpu time    0.0038: real time    0.0038
    CHARGE:  cpu time    1.1841: real time    1.1925
    MIXING:  cpu time    0.0021: real time    0.0022
    --------------------------------------------
      LOOP:  cpu time   92.0784: real time   92.7320

 eigenvalue-minimisations  : 14336
 total energy-change (2. order) :-0.3948868E-03  (-0.1517083E-03)
 number of electron     688.0000440 magnetization       0.0000000
 augmentation part      282.2124061 magnetization       0.0000000

 Broyden mixing:
  rms(total) = 0.92584E-02    rms(broyden)= 0.92578E-02
  rms(prec ) = 0.95083E-02
  weight for this iteration     100.00

 eigenvalues of (default mixing * dielectric matrix)
  average eigenvalue GAMMA=   1.1381
  3.0444  2.1750  1.5462  1.5462  0.9267  0.9267  0.3392  0.6526  0.6526  0.6652
  0.5914  0.5914

 Free energy of the ion-electron system (eV)
  ---------------------------------------------------
  alpha Z        PSCENC =      2356.85125371
  Ewald energy   TEWEN  =    -62478.24206223
  -Hartree energ DENC   =    -42946.97773624
  -exchange      EXHF   =         0.00000000
  -V(xc)+E(xc)   XCENC  =      3286.52707259
  PAW double counting   =    112271.69850556  -115965.78043877
  entropy T*S    EENTRO =         0.00000000
  eigenvalues    EBANDS =    -10872.16014914
  atomic energy  EATOM  =    114020.06510763
  Solvation  Ediel_sol  =         0.00000000
  ---------------------------------------------------
  free energy    TOTEN  =      -328.01844689 eV

  energy without entropy =     -328.01844689  energy(sigma->0) =     -328.01844689


--------------------------------------------------------------------------------------------------------




--------------------------------------- Iteration      1(  18)  ---------------------------------------


    POTLOK:  cpu time    0.1379: real time    0.1389
    SETDIJ:  cpu time    0.0131: real time    0.0131
     EDDAV:  cpu time  107.0689: real time  107.8066
 BZINTS: Fermi energy:  4.952206;688.000000 electrons
         Band energy:***********;  BLOECHL correction:  0.000000
       DOS:  cpu time    0.0045: real time    0.0045
    CHARGE:  cpu time    1.1816: real time    1.1901
    MIXING:  cpu time    0.0024: real time    0.0024
    --------------------------------------------
      LOOP:  cpu time  108.4084: real time  109.1556

 eigenvalue-minimisations  : 15360
 total energy-change (2. order) :-0.5150879E-04  (-0.1450884E-04)
 number of electron     688.0000440 magnetization       0.0000000
 augmentation part      282.2196241 magnetization       0.0000000

 Broyden mixing:
  rms(total) = 0.50844E-02    rms(broyden)= 0.50843E-02
  rms(prec ) = 0.55857E-02
  weight for this iteration     100.00

 eigenvalues of (default mixing * dielectric matrix)
  average eigenvalue GAMMA=   1.1347
  3.2723  2.2044  1.8767  1.1344  1.1344  0.3392  0.7656  0.7656  0.7654  0.6559
  0.6559  0.5905  0.5905

 Free energy of the ion-electron system (eV)
  ---------------------------------------------------
  alpha Z        PSCENC =      2356.85125371
  Ewald energy   TEWEN  =    -62478.24206223
  -Hartree energ DENC   =    -42946.89193729
  -exchange      EXHF   =         0.00000000
  -V(xc)+E(xc)   XCENC  =      3286.53666482
  PAW double counting   =    112273.78226751  -115967.79259832
  entropy T*S    EENTRO =         0.00000000
  eigenvalues    EBANDS =    -10872.32719422
  atomic energy  EATOM  =    114020.06510763
  Solvation  Ediel_sol  =         0.00000000
  ---------------------------------------------------
  free energy    TOTEN  =      -328.01849840 eV

  energy without entropy =     -328.01849840  energy(sigma->0) =     -328.01849840


--------------------------------------------------------------------------------------------------------




--------------------------------------- Iteration      1(  19)  ---------------------------------------


    POTLOK:  cpu time    0.1385: real time    0.1393
    SETDIJ:  cpu time    0.0128: real time    0.0129
     EDDAV:  cpu time  117.6142: real time  118.4011
 BZINTS: Fermi energy:  4.952151;688.000000 electrons
         Band energy:***********;  BLOECHL correction:  0.000000
       DOS:  cpu time    0.0039: real time    0.0039
    CHARGE:  cpu time    1.1993: real time    1.2079
    MIXING:  cpu time    0.0024: real time    0.0024
    --------------------------------------------
      LOOP:  cpu time  118.9710: real time  119.7674

 eigenvalue-minimisations  : 16384
 total energy-change (2. order) :-0.4153801E-05  (-0.3760302E-05)
 number of electron     688.0000440 magnetization       0.0000000
 augmentation part      282.2202011 magnetization       0.0000000

 Broyden mixing:
  rms(total) = 0.29593E-02    rms(broyden)= 0.29593E-02
  rms(prec ) = 0.32144E-02
  weight for this iteration     100.00

 eigenvalues of (default mixing * dielectric matrix)
  average eigenvalue GAMMA=   1.1204
  3.2625  2.1494  2.1494  1.0595  1.0595  0.9074  0.9074  0.3392  0.7820  0.6482
[...]
   -.421E+02 0.238E+00 0.975E+01   0.429E+02 -.228E+00 -.985E+01   -.864E+00 -.950E-02 0.916E-01   -.638E-05 0.749E-07 -.265E-06
   -.421E+02 0.238E+00 0.975E+01   0.429E+02 -.228E+00 -.985E+01   -.864E+00 -.950E-02 0.916E-01   -.638E-05 0.749E-07 -.265E-06
   -.421E+02 0.238E+00 0.975E+01   0.429E+02 -.228E+00 -.985E+01   -.864E+00 -.950E-02 0.916E-01   -.638E-05 0.749E-07 -.265E-06
   -.421E+02 0.238E+00 0.975E+01   0.429E+02 -.228E+00 -.985E+01   -.864E+00 -.950E-02 0.916E-01   -.638E-05 0.749E-07 -.265E-06
   0.421E+02 -.238E+00 0.975E+01   -.429E+02 0.228E+00 -.985E+01   0.864E+00 0.950E-02 0.916E-01   0.638E-05 -.749E-07 -.265E-06
   0.421E+02 -.238E+00 0.975E+01   -.429E+02 0.228E+00 -.985E+01   0.864E+00 0.950E-02 0.916E-01   0.638E-05 -.749E-07 -.265E-06
   0.421E+02 -.238E+00 0.975E+01   -.429E+02 0.228E+00 -.985E+01   0.864E+00 0.950E-02 0.916E-01   0.638E-05 -.749E-07 -.265E-06
   0.421E+02 -.238E+00 0.975E+01   -.429E+02 0.228E+00 -.985E+01   0.864E+00 0.950E-02 0.916E-01   0.638E-05 -.749E-07 -.265E-06
   0.238E+00 -.421E+02 0.975E+01   -.228E+00 0.429E+02 -.985E+01   -.950E-02 -.864E+00 0.916E-01   0.749E-07 -.638E-05 -.265E-06
   0.238E+00 -.421E+02 0.975E+01   -.228E+00 0.429E+02 -.985E+01   -.950E-02 -.864E+00 0.916E-01   0.749E-07 -.638E-05 -.265E-06
   0.238E+00 -.421E+02 0.975E+01   -.228E+00 0.429E+02 -.985E+01   -.950E-02 -.864E+00 0.916E-01   0.749E-07 -.638E-05 -.265E-06
   0.238E+00 -.421E+02 0.975E+01   -.228E+00 0.429E+02 -.985E+01   -.950E-02 -.864E+00 0.916E-01   0.749E-07 -.638E-05 -.265E-06
   -.238E+00 0.421E+02 0.975E+01   0.228E+00 -.429E+02 -.985E+01   0.950E-02 0.864E+00 0.916E-01   -.749E-07 0.638E-05 -.265E-06
   -.238E+00 0.421E+02 0.975E+01   0.228E+00 -.429E+02 -.985E+01   0.950E-02 0.864E+00 0.916E-01   -.749E-07 0.638E-05 -.265E-06
   -.238E+00 0.421E+02 0.975E+01   0.228E+00 -.429E+02 -.985E+01   0.950E-02 0.864E+00 0.916E-01   -.749E-07 0.638E-05 -.265E-06
   -.238E+00 0.421E+02 0.975E+01   0.228E+00 -.429E+02 -.985E+01   0.950E-02 0.864E+00 0.916E-01   -.749E-07 0.638E-05 -.265E-06
   -.225E-06 0.218E-07 -.114E+02   0.480E-13 -.426E-13 0.110E+02   -.166E-25 -.129E-25 0.463E+00   0.425E-12 0.418E-13 0.772E-05
   -.225E-06 0.218E-07 -.114E+02   0.231E-13 -.284E-13 0.110E+02   0.445E-25 -.258E-25 0.463E+00   -.644E-12 -.890E-13 0.772E-05
   -.225E-06 0.218E-07 -.114E+02   0.195E-13 -.142E-13 0.110E+02   0.808E-26 -.323E-26 0.463E+00   0.371E-12 -.247E-13 0.772E-05
   -.225E-06 0.218E-07 -.114E+02   0.515E-13 -.853E-13 0.110E+02   -.394E-25 -.646E-26 0.463E+00   -.671E-12 0.136E-12 0.772E-05
   0.218E-07 -.225E-06 -.114E+02   0.284E-13 0.284E-13 0.110E+02   -.107E-25 0.000E+00 0.463E+00   -.187E-12 0.302E-13 0.772E-05
   0.218E-07 -.225E-06 -.114E+02   0.568E-13 0.284E-13 0.110E+02   -.127E-25 -.129E-25 0.463E+00   -.184E-13 0.665E-13 0.772E-05
   0.218E-07 -.225E-06 -.114E+02   0.568E-13 0.853E-13 0.110E+02   -.113E-25 0.452E-25 0.463E+00   -.858E-13 0.895E-13 0.772E-05
   0.218E-07 -.224E-06 -.114E+02   0.284E-13 0.284E-13 0.110E+02   0.149E-25 -.467E-25 0.463E+00   0.349E-14 -.119E-12 0.772E-05
   -.225E-06 0.218E-07 -.114E+02   -.711E-14 -.742E-13 0.110E+02   0.165E-26 -.218E-25 0.463E+00   -.341E-12 0.205E-13 0.772E-05
   -.225E-06 0.218E-07 -.114E+02   0.497E-13 -.884E-13 0.110E+02   -.221E-25 -.727E-26 0.463E+00   -.788E-13 -.984E-13 0.772E-05
   -.225E-06 0.218E-07 -.114E+02   0.284E-13 -.395E-13 0.110E+02   0.150E-25 -.162E-25 0.463E+00   -.250E-12 0.375E-13 0.772E-05
   -.225E-06 0.218E-07 -.114E+02   0.284E-13 -.253E-13 0.110E+02   -.428E-25 0.000E+00 0.463E+00   -.222E-12 0.278E-14 0.772E-05
   0.218E-07 -.225E-06 -.114E+02   0.466E-13 0.727E-13 0.110E+02   0.135E-25 -.517E-25 0.463E+00   0.384E-12 -.252E-13 0.772E-05
   0.218E-07 -.225E-06 -.114E+02   0.206E-13 0.726E-13 0.110E+02   0.139E-25 0.517E-25 0.463E+00   -.417E-12 -.538E-13 0.772E-05
   0.218E-07 -.225E-06 -.114E+02   0.608E-13 0.785E-13 0.110E+02   0.177E-26 0.226E-25 0.463E+00   0.546E-12 -.282E-13 0.772E-05
   0.218E-07 -.225E-06 -.114E+02   0.348E-13 0.785E-13 0.110E+02   -.252E-25 -.590E-25 0.463E+00   -.506E-12 0.866E-13 0.772E-05
   0.406E-07 -.741E-07 -.928E+01   -.175E-12 0.853E-13 0.873E+01   0.662E-25 -.129E-25 0.554E+00   0.348E-12 0.252E-12 0.472E-06
   0.406E-07 -.741E-07 -.928E+01   -.157E-12 0.853E-13 0.873E+01   0.109E-25 0.582E-25 0.554E+00   -.170E-12 0.159E-12 0.472E-06
   0.406E-07 -.741E-07 -.928E+01   -.160E-12 0.924E-13 0.873E+01   0.360E-25 -.743E-25 0.554E+00   0.360E-12 0.246E-13 0.472E-06
   0.406E-07 -.741E-07 -.928E+01   -.157E-12 0.853E-13 0.873E+01   -.578E-25 0.000E+00 0.554E+00   -.244E-12 0.941E-13 0.472E-06
   -.741E-07 0.406E-07 -.928E+01   0.224E-12 0.711E-14 0.873E+01   -.145E-25 0.258E-25 0.554E+00   -.908E-13 0.867E-13 0.472E-06
   -.741E-07 0.406E-07 -.928E+01   0.256E-12 -.497E-13 0.873E+01   0.207E-25 0.258E-25 0.554E+00   -.145E-13 0.112E-12 0.472E-06
   -.741E-07 0.406E-07 -.928E+01   0.284E-12 0.142E-13 0.873E+01   0.404E-26 -.258E-25 0.554E+00   -.119E-12 0.113E-12 0.472E-06
   -.741E-07 0.406E-07 -.928E+01   0.291E-12 -.497E-13 0.873E+01   0.677E-26 -.129E-25 0.554E+00   -.768E-14 -.147E-13 0.472E-06
   0.406E-07 -.740E-07 -.928E+01   -.426E-13 0.183E-12 0.873E+01   0.127E-24 -.129E-25 0.554E+00   -.673E-13 0.332E-13 0.472E-06
   0.406E-07 -.740E-07 -.928E+01   -.711E-13 0.183E-12 0.873E+01   -.394E-25 -.565E-25 0.554E+00   0.153E-12 0.449E-13 0.472E-06
   0.406E-07 -.741E-07 -.928E+01   -.284E-13 0.122E-12 0.873E+01   -.158E-25 0.775E-25 0.554E+00   0.719E-13 0.131E-12 0.472E-06
   0.406E-07 -.741E-07 -.928E+01   -.284E-13 0.186E-12 0.873E+01   0.145E-25 0.194E-25 0.554E+00   -.855E-14 0.140E-12 0.472E-06
   -.741E-07 0.406E-07 -.928E+01   0.352E-12 0.916E-13 0.873E+01   -.253E-25 0.145E-25 0.554E+00   0.241E-12 0.717E-13 0.472E-06
   -.741E-07 0.406E-07 -.928E+01   0.354E-12 0.916E-13 0.873E+01   -.384E-25 0.000E+00 0.554E+00   -.311E-12 0.479E-13 0.472E-06
   -.741E-07 0.406E-07 -.928E+01   0.314E-12 0.879E-13 0.873E+01   -.139E-25 -.258E-25 0.554E+00   0.391E-12 0.116E-12 0.472E-06
   -.741E-07 0.406E-07 -.928E+01   0.302E-12 0.951E-13 0.873E+01   0.444E-26 0.258E-25 0.554E+00   -.397E-12 0.413E-13 0.472E-06
 -----------------------------------------------------------------------------------------------
   -.165E-05 -.165E-05 -.192E+02   -.931E-13 0.346E-12 -.178E-13   0.224E-15 0.666E-15 0.192E+02   -.529E-11 0.888E-13 0.123E-03
 
 
 POSITION                                       TOTAL-FORCE (eV/Angst)
 -----------------------------------------------------------------------------------
      1.34616      1.33626      1.28435         0.002171     -0.000778     -0.003342
      6.60053      1.41875      1.28435         0.002171     -0.000778     -0.003342
      1.42865      6.59063      1.28435         0.002171     -0.000778     -0.003342
      6.68301      6.67311      1.28435         0.002171     -0.000778     -0.003342
      3.99069      4.00059      1.28435        -0.002171      0.000778     -0.003342
      9.24506      4.08308      1.28435        -0.002171      0.000778     -0.003342
      4.07318      9.25496      1.28435        -0.002171      0.000778     -0.003342
      9.32755      9.33745      1.28435        -0.002171      0.000778     -0.003342
      1.37341      3.94945      9.09863         0.000778     -0.002171     -0.003342
      6.62778      4.03194      9.09863         0.000778     -0.002171     -0.003342
      1.45590      9.20382      9.09863         0.000778     -0.002171     -0.003342
      6.71026      9.28630      9.09863         0.000778     -0.002171     -0.003342
      3.96344      1.38740      9.09863        -0.000778      0.002171     -0.003342
      9.21781      1.46989      9.09863        -0.000778      0.002171     -0.003342
      4.04593      6.64177      9.09863        -0.000778      0.002171     -0.003342
      9.30030      6.72426      9.09863        -0.000778      0.002171     -0.003342
      1.32227      1.33217      6.49387        -0.002171      0.000778     -0.003342
      6.57663      1.41465      6.49387        -0.002171      0.000778     -0.003342
      1.40475      6.58653      6.49387        -0.002171      0.000778     -0.003342
      6.65912      6.66902      6.49387        -0.002171      0.000778     -0.003342
      4.01459      4.00469      6.49387         0.002171     -0.000778     -0.003342
      9.26895      4.08717      6.49387         0.002171     -0.000778     -0.003342
      4.09707      9.25905      6.49387         0.002171     -0.000778     -0.003342
      9.35144      9.34154      6.49387         0.002171     -0.000778     -0.003342
      3.95935      1.36351      3.88911         0.000778     -0.002171     -0.003342
      9.21372      1.44600      3.88911         0.000778     -0.002171     -0.003342
      4.04184      6.61788      3.88911         0.000778     -0.002171     -0.003342
      9.29620      6.70036      3.88911         0.000778     -0.002171     -0.003342
      1.37750      3.97334      3.88911        -0.000778      0.002171     -0.003342
      6.63187      4.05583      3.88911        -0.000778      0.002171     -0.003342
      1.45999      9.22771      3.88911        -0.000778      0.002171     -0.003342
      6.71436      9.31020      3.88911        -0.000778      0.002171     -0.003342
      0.00000      0.00000      5.22523        -0.000000      0.000000      0.000633
      5.25437      0.08249      5.22523        -0.000000      0.000000      0.000633
      0.08249      5.25437      5.22523        -0.000000      0.000000      0.000633
      5.33685      5.33685      5.22523        -0.000000      0.000000      0.000633
      2.62718      0.04124      2.62047        -0.000000      0.000000      0.000633
      7.88155      0.12373      2.62047        -0.000000      0.000000      0.000633
      2.70967      5.29561      2.62047        -0.000000      0.000000      0.000633
      7.96404      5.37810      2.62047        -0.000000      0.000000      0.000633
      2.66843      2.66843      0.01571        -0.000000      0.000000      0.000633
      7.92279      2.75091      0.01571        -0.000000      0.000000      0.000633
      2.75091      7.92279      0.01571        -0.000000      0.000000      0.000633
      8.00528      8.00528      0.01571        -0.000000      0.000000      0.000633
      0.04124      2.62718      7.82999        -0.000000      0.000000      0.000633
      5.29561      2.70967      7.82999        -0.000000      0.000000      0.000633
      0.12373      7.88155      7.82999        -0.000000      0.000000      0.000633
      5.37810      7.96404      7.82999        -0.000000      0.000000      0.000633
      0.00000      0.00000      0.02037        -0.000000      0.000000      0.006050
      5.25437      0.08249      0.02037        -0.000000      0.000000      0.006050
      0.08249      5.25437      0.02037        -0.000000      0.000000      0.006050
      5.33685      5.33685      0.02037        -0.000000      0.000000      0.006050
      2.62718      0.04124      7.83465        -0.000000      0.000000      0.006050
      7.88155      0.12373      7.83465        -0.000000      0.000000      0.006050
      2.70967      5.29561      7.83465        -0.000000      0.000000      0.006050
      7.96404      5.37810      7.83465        -0.000000      0.000000      0.006050
      2.66843      2.66843      5.22989        -0.000000      0.000000      0.006050
      7.92279      2.75091      5.22989        -0.000000      0.000000      0.006050
      2.75091      7.92279      5.22989        -0.000000      0.000000      0.006050
      8.00528      8.00528      5.22989        -0.000000      0.000000      0.006050
      0.04124      2.62718      2.62513        -0.000000      0.000000      0.006050
      5.29561      2.70967      2.62513        -0.000000      0.000000      0.006050
      0.12373      7.88155      2.62513        -0.000000      0.000000      0.006050
      5.37810      7.96404      2.62513        -0.000000      0.000000      0.006050
 -----------------------------------------------------------------------------------
    total drift:                               -0.000002     -0.000002     -0.032759


--------------------------------------------------------------------------------------------------------



  FREE ENERGIE OF THE ION-ELECTRON SYSTEM (eV)
  ---------------------------------------------------
  free  energy   TOTEN  =      -328.01850385 eV

  energy  without entropy=     -328.01850385  energy(sigma->0) =     -328.01850385
 


--------------------------------------------------------------------------------------------------------


    POTLOK:  cpu time    0.1503: real time    0.1510


--------------------------------------------------------------------------------------------------------


 writing wavefunctions
     LOOP+:  cpu time 3013.9397: real time 3035.1501
    4ORBIT:  cpu time    0.0000: real time    0.0000
 


 total charge     
 
# of ion       s       p       d       tot
------------------------------------------
    1        1.314   2.410   0.000   3.724
    2        1.314   2.410   0.000   3.724
    3        1.314   2.410   0.000   3.724
    4        1.314   2.410   0.000   3.724
    5        1.314   2.410   0.000   3.724
    6        1.314   2.410   0.000   3.724
    7        1.314   2.410   0.000   3.724
    8        1.314   2.410   0.000   3.724
    9        1.314   2.410   0.000   3.724
   10        1.314   2.410   0.000   3.724
   11        1.314   2.410   0.000   3.724
   12        1.314   2.410   0.000   3.724
   13        1.314   2.410   0.000   3.724
   14        1.314   2.410   0.000   3.724
   15        1.314   2.410   0.000   3.724
   16        1.314   2.410   0.000   3.724
   17        1.314   2.410   0.000   3.724
   18        1.314   2.410   0.000   3.724
   19        1.314   2.410   0.000   3.724
   20        1.314   2.410   0.000   3.724
   21        1.314   2.410   0.000   3.724
   22        1.314   2.410   0.000   3.724
   23        1.314   2.410   0.000   3.724
   24        1.314   2.410   0.000   3.724
   25        1.314   2.410   0.000   3.724
   26        1.314   2.410   0.000   3.724
   27        1.314   2.410   0.000   3.724
   28        1.314   2.410   0.000   3.724
   29        1.314   2.410   0.000   3.724
   30        1.314   2.410   0.000   3.724
   31        1.314   2.410   0.000   3.724
   32        1.314   2.410   0.000   3.724
   33        0.260   6.202   8.916  15.378
   34        0.260   6.202   8.916  15.378
   35        0.260   6.202   8.916  15.378
   36        0.260   6.202   8.916  15.378
   37        0.260   6.202   8.917  15.378
   38        0.260   6.202   8.917  15.378
   39        0.260   6.202   8.917  15.378
   40        0.260   6.202   8.917  15.378
   41        0.260   6.202   8.916  15.378
   42        0.260   6.202   8.916  15.378
   43        0.260   6.202   8.916  15.378
   44        0.260   6.202   8.916  15.378
   45        0.260   6.202   8.917  15.378
   46        0.260   6.202   8.917  15.378
   47        0.260   6.202   8.917  15.378
   48        0.260   6.202   8.917  15.378
   49        0.350   6.351   5.820  12.521
   50        0.350   6.351   5.820  12.521
   51        0.350   6.351   5.820  12.521
   52        0.350   6.351   5.820  12.521
   53        0.350   6.351   5.820  12.521
   54        0.350   6.351   5.820  12.521
   55        0.350   6.351   5.820  12.521
   56        0.350   6.351   5.820  12.521
   57        0.350   6.351   5.820  12.521
   58        0.350   6.351   5.820  12.521
   59        0.350   6.351   5.820  12.521
   60        0.350   6.351   5.820  12.521
   61        0.350   6.351   5.820  12.521
   62        0.350   6.351   5.820  12.521
   63        0.350   6.351   5.820  12.521
   64        0.350   6.351   5.820  12.521
--------------------------------------------------
tot         51.789 277.972 235.786 565.547
 


 magnetization (x)
 
# of ion       s       p       d       tot
------------------------------------------
    1       -0.000  -0.008   0.000  -0.008
    2       -0.000  -0.008   0.000  -0.008
    3       -0.000  -0.008   0.000  -0.008
    4       -0.000  -0.008   0.000  -0.008
    5       -0.000  -0.008   0.000  -0.008
    6       -0.000  -0.008   0.000  -0.008
    7       -0.000  -0.008   0.000  -0.008
    8       -0.000  -0.008   0.000  -0.008
    9        0.000   0.008   0.000   0.008
   10        0.000   0.008   0.000   0.008
   11        0.000   0.008   0.000   0.008
   12        0.000   0.008   0.000   0.008
   13        0.000   0.008   0.000   0.008
   14        0.000   0.008   0.000   0.008
   15        0.000   0.008   0.000   0.008
   16        0.000   0.008   0.000   0.008
   17       -0.000  -0.008   0.000  -0.008
   18       -0.000  -0.008   0.000  -0.008
   19       -0.000  -0.008   0.000  -0.008
   20       -0.000  -0.008   0.000  -0.008
   21       -0.000  -0.008   0.000  -0.008
   22       -0.000  -0.008   0.000  -0.008
   23       -0.000  -0.008   0.000  -0.008
   24       -0.000  -0.008   0.000  -0.008
   25        0.000   0.008   0.000   0.008
   26        0.000   0.008   0.000   0.008
   27        0.000   0.008   0.000   0.008
   28        0.000   0.008   0.000   0.008
   29        0.000   0.008   0.000   0.008
   30        0.000   0.008   0.000   0.008
   31        0.000   0.008   0.000   0.008
   32        0.000   0.008   0.000   0.008
   33        0.000   0.000  -0.000   0.000
   34        0.000   0.000  -0.000   0.000
   35        0.000   0.000  -0.000   0.000
   36        0.000   0.000  -0.000   0.000
   37       -0.000  -0.000   0.000  -0.000
   38       -0.000  -0.000   0.000  -0.000
   39       -0.000  -0.000   0.000  -0.000
   40       -0.000  -0.000   0.000  -0.000
   41        0.000   0.000  -0.000   0.000
   42        0.000   0.000  -0.000   0.000
   43        0.000   0.000  -0.000   0.000
   44        0.000   0.000  -0.000   0.000
   45       -0.000  -0.000   0.000  -0.000
   46       -0.000  -0.000   0.000  -0.000
   47       -0.000  -0.000   0.000  -0.000
   48       -0.000  -0.000   0.000  -0.000
   49        0.020   0.054   3.670   3.744
   50        0.020   0.054   3.670   3.744
   51        0.020   0.054   3.670   3.744
   52        0.020   0.054   3.670   3.744
   53       -0.020  -0.054  -3.670  -3.744
   54       -0.020  -0.054  -3.670  -3.744
   55       -0.020  -0.054  -3.670  -3.744
   56       -0.020  -0.054  -3.670  -3.744
   57        0.020   0.054   3.670   3.744
   58        0.020   0.054   3.670   3.744
   59        0.020   0.054   3.670   3.744
   60        0.020   0.054   3.670   3.744
   61       -0.020  -0.054  -3.670  -3.744
   62       -0.020  -0.054  -3.670  -3.744
   63       -0.020  -0.054  -3.670  -3.744
   64       -0.020  -0.054  -3.670  -3.744
--------------------------------------------------
tot         -0.001   0.001  -0.000  -0.000
 
 BZINTS: Fermi energy:  4.951990;688.000000 electrons
         Band energy:***********;  BLOECHL correction:  0.000000

 total amount of memory used by VASP MPI-rank0   301249. kBytes
=======================================================================

   base      :      30000. kBytes
   nonl-proj :     175882. kBytes
   fftplans  :       4588. kBytes
   grid      :      69719. kBytes
   one-center:       1990. kBytes
   wavefun   :      19070. kBytes
 
  
  
 General timing and accounting informations for this job:
 ========================================================
  
                  Total CPU time used (sec):     3058.262
                            User time (sec):     3047.994
                          System time (sec):       10.268
                         Elapsed time (sec):     3080.531
  
                   Maximum memory used (kb):      669316.
                   Average memory used (kb):           0.
  
                          Minor page faults:       616181
                          Major page faults:         5703
                 Voluntary context switches:         7209
