       N       E                     dE             d eps       ncg     rms          rms(c)
DAV:   1     0.604383058521E+04    0.60438E+04   -0.51603E+05 12288   0.197E+03
DAV:   2    -0.832748696536E+02   -0.61271E+04   -0.60169E+04 13824   0.445E+02
DAV:   3    -0.323960556393E+03   -0.24069E+03   -0.23993E+03 16384   0.959E+01
DAV:   4    -0.327356324287E+03   -0.33958E+01   -0.33956E+01 15360   0.116E+01
DAV:   5    -0.327459232346E+03   -0.10291E+00   -0.10291E+00 15360   0.195E+00    0.252E-01
DAV:   6    -0.327464322743E+03   -0.50904E-02   -0.51081E-02 17408   0.437E-01    0.967E-02
DAV:   7    -0.327464621834E+03   -0.29909E-03   -0.34829E-03 15104   0.145E-01    0.891E-02
DAV:   8    -0.327464631985E+03   -0.10151E-04   -0.38360E-04 17152   0.550E-02    0.754E-02
DAV:   9    -0.327464632735E+03   -0.75049E-06   -0.20410E-05 14592   0.111E-02    0.669E-02
DAV:  10    -0.327464632562E+03    0.17315E-06   -0.14532E-06 20224   0.257E-03    0.559E-02
DAV:  11    -0.327464631855E+03    0.70693E-06   -0.22319E-06 13056   0.383E-03    0.205E-02
DAV:  12    -0.327464631543E+03    0.31228E-06   -0.17085E-06 19968   0.281E-03    0.513E-03
DAV:  13    -0.327464631573E+03   -0.30297E-07   -0.10779E-07 12800   0.545E-04    0.488E-03
DAV:  14    -0.327464631632E+03   -0.58499E-07   -0.14252E-07 13824   0.505E-04    0.244E-03
DAV:  15    -0.327464631648E+03   -0.16036E-07   -0.26483E-08 11264   0.231E-04    0.191E-03
DAV:  16    -0.327464631669E+03   -0.20838E-07   -0.32145E-09 12288   0.114E-04    0.142E-03
DAV:  17    -0.327464631701E+03   -0.32494E-07   -0.91208E-09  9728   0.135E-04    0.362E-04
DAV:  18    -0.327464631702E+03   -0.13533E-08    0.31184E-10 10752   0.463E-05
   1 F= -.32746463E+03 E0= -.32746463E+03  d E =0.000000E+00  mag=     0.0000
