 vasp.5.4.4.18Apr17-6-g9f103f2a35 (build Oct 30 2023 17:30:16) complex          
  
 executed on             LinuxIFC date 2024.06.29  18:38:23
 running on  256 total cores
 distrk:  each k-point on  256 cores,    1 groups
 distr:  one band on NCORES_PER_BAND=   1 cores,  256 groups


--------------------------------------------------------------------------------------------------------


 INCAR:
 POTCAR:    PAW_PBE S 06Sep2000                   
 POTCAR:     PAW_PBE Cu_pv 06Sep2000              
 POTCAR:     PAW_PBE Fe_pv 02Aug2007              

 ----------------------------------------------------------------------------- 
|                                                                             |
|           W    W    AA    RRRRR   N    N  II  N    N   GGGG   !!!           |
|           W    W   A  A   R    R  NN   N  II  NN   N  G    G  !!!           |
|           W    W  A    A  R    R  N N  N  II  N N  N  G       !!!           |
|           W WW W  AAAAAA  RRRRR   N  N N  II  N  N N  G  GGG   !            |
|           WW  WW  A    A  R   R   N   NN  II  N   NN  G    G                |
|           W    W  A    A  R    R  N    N  II  N    N   GGGG   !!!           |
|                                                                             |
|      For optimal performance we recommend to set                            |
|        NCORE= 4 - approx SQRT( number of cores)                             |
|      NCORE specifies how many cores store one orbital (NPAR=cpu/NCORE).     |
|      This setting can  greatly improve the performance of VASP for DFT.     |
|      The default,   NCORE=1            might be grossly inefficient         |
|      on modern multi-core architectures or massively parallel machines.     |
|      Do your own testing !!!!                                               |
|      Unfortunately you need to use the default for GW and RPA calculations. |
|      (for HF NCORE is supported but not extensively tested yet)             |
|                                                                             |
 ----------------------------------------------------------------------------- 

 POTCAR:    PAW_PBE S 06Sep2000                   
   SHA256 =  0fc7481fb0695f01bdc6462160264c5c84044ae9ec85a907d398b887a2bc3132 S/
   COPYR  = (c) Copyright 06Sep2000 Georg Kresse                                
   COPYR  = This file is part of the software VASP. Any use, copying, and all ot
   COPYR  = If you do not have a valid VASP license, you may not use, copy or di
   VRHFIN =S : s2p4                                                             
   LEXCH  = PE                                                                  
   EATOM  =   276.8230 eV,   20.3459 Ry                                         
                                                                                
   TITEL  = PAW_PBE S 06Sep2000                                                 
   LULTRA =        F    use ultrasoft PP ?                                      
   IUNSCR =        1    unscreen: 0-lin 1-nonlin 2-no                           
   RPACOR =    1.500    partial core radius                                     
   POMASS =   32.066; ZVAL   =    6.000    mass and valenz                      
   RCORE  =    1.900    outmost cutoff radius                                   
   RWIGS  =    2.200; RWIGS  =    1.164    wigner-seitz radius (au A)           
   ENMAX  =  258.689; ENMIN  =  194.016 eV                                      
   ICORE  =        2    local potential                                         
   LCOR   =        T    correct aug charges                                     
   LPAW   =        T    paw PP                                                  
   EAUG   =  335.092                                                            
   DEXC   =    0.000                                                            
   RMAX   =    1.942    core radius for proj-oper                               
   RAUG   =    1.300    factor for augmentation sphere                          
   RDEP   =    1.954    radius for radial grids                                 
   RDEPT  =    1.744    core radius for aug-charge                              
                                                                                
   Atomic configuration                                                         
    6 entries                                                                   
     n  l   j            E        occ.                                          
     1  0  0.50     -2405.8406   2.0000                                         
     2  0  0.50      -211.7007   2.0000                                         
     2  1  1.50      -156.4958   6.0000                                         
     3  0  0.50       -17.2562   2.0000                                         
     3  1  0.50        -7.0085   4.0000                                         
     3  2  1.50        -6.8029   0.0000                                         
   Description                                                                  
     l       E           TYP  RCUT    TYP  RCUT                                 
     0    -17.2561641     23  1.900                                             
     0    -15.8743224     23  1.900                                             
     1     -7.0085400     23  1.900                                             
     1     -2.7779785     23  1.900                                             
     2     -6.8029130     23  1.900                                             
  local pseudopotential read in
  partial core-charges read in
  partial kinetic energy density read in
  atomic valenz-charges read in
  non local Contribution for L=           0  read in
    real space projection operators read in
  non local Contribution for L=           0  read in
    real space projection operators read in
  non local Contribution for L=           1  read in
    real space projection operators read in
  non local Contribution for L=           1  read in
    real space projection operators read in
    PAW grid and wavefunctions read in
 
   number of l-projection  operators is LMAX  =           4
   number of lm-projection operators is LMMAX =           8
 
 POTCAR:     PAW_PBE Cu_pv 06Sep2000              
   SHA256 =  cb7b504e2ea725fe1f25c85a9ac77d4012ce94cd394135b722c4e25ec297f1cb Cu
   COPYR  = (c) Copyright 06Sep2000 Georg Kresse                                
   COPYR  = This file is part of the software VASP. Any use, copying, and all ot
   COPYR  = If you do not have a valid VASP license, you may not use, copy or di
   VRHFIN =Cu: d10 p1                                                           
   LEXCH  = PE                                                                  
   EATOM  =  4120.1201 eV,  302.8203 Ry                                         
                                                                                
   TITEL  = PAW_PBE Cu_pv 06Sep2000                                             
   LULTRA =        F    use ultrasoft PP ?                                      
   IUNSCR =        1    unscreen: 0-lin 1-nonlin 2-no                           
   RPACOR =    1.500    partial core radius                                     
   POMASS =   63.546; ZVAL   =   17.000    mass and valenz                      
   RCORE  =    2.000    outmost cutoff radius                                   
   RWIGS  =    2.000; RWIGS  =    1.058    wigner-seitz radius (au A)           
   ENMAX  =  368.648; ENMIN  =  276.486 eV                                      
   RCLOC  =    1.304    cutoff for local pot                                    
   LCOR   =        T    correct aug charges                                     
   LPAW   =        T    paw PP                                                  
   EAUG   =  758.233                                                            
   DEXC   =    0.000                                                            
   RMAX   =    2.046    core radius for proj-oper                               
   RAUG   =    1.300    factor for augmentation sphere                          
   RDEP   =    2.025    radius for radial grids                                 
   RDEPT  =    1.558    core radius for aug-charge                              
                                                                                
   Atomic configuration                                                         
    8 entries                                                                   
     n  l   j            E        occ.                                          
     1  0  0.50     -8850.2467   2.0000                                         
     2  0  0.50     -1062.3498   2.0000                                         
     2  1  1.50      -916.8226   6.0000                                         
     3  0  0.50      -114.6929   2.0000                                         
     3  1  1.50       -72.1325   6.0000                                         
     3  2  2.50        -5.0394  10.0000                                         
     4  0  0.50        -4.6097   1.0000                                         
     4  3  2.50        -1.3606   0.0000                                         
   Description                                                                  
     l       E           TYP  RCUT    TYP  RCUT                                 
     1    -72.1324777     23  1.700                                             
     1     -1.3605826     23  1.700                                             
     2     -5.0393776     23  2.000                                             
     2     -6.3999602     23  2.000                                             
     0     -4.6097062     23  1.800                                             
     0     14.1620818     23  1.800                                             
  local pseudopotential read in
  partial core-charges read in
  partial kinetic energy density read in
  atomic valenz-charges read in
  non local Contribution for L=           1  read in
    real space projection operators read in
  non local Contribution for L=           1  read in
    real space projection operators read in
  non local Contribution for L=           2  read in
    real space projection operators read in
  non local Contribution for L=           2  read in
    real space projection operators read in
  non local Contribution for L=           0  read in
    real space projection operators read in
  non local Contribution for L=           0  read in
    real space projection operators read in
    PAW grid and wavefunctions read in
 
   number of l-projection  operators is LMAX  =           6
   number of lm-projection operators is LMMAX =          18
 
 POTCAR:     PAW_PBE Fe_pv 02Aug2007              
   SHA256 =  5d22e414b1f82158bf2c7ecb8b97b28fd0923e48cadc1c3bf74d524558f5dd32 Fe
   COPYR  = (c) Copyright 02Aug2007 Georg Kresse                                
   COPYR  = This file is part of the software VASP. Any use, copying, and all ot
   COPYR  = If you do not have a valid VASP license, you may not use, copy or di
   VRHFIN =Fe:  3pd7s1                                                          
   LEXCH  = PE                                                                  
   EATOM  =  2457.4239 eV,  180.6156 Ry                                         
                                                                                
   TITEL  = PAW_PBE Fe_pv 02Aug2007                                             
   LULTRA =        F    use ultrasoft PP ?                                      
   IUNSCR =        1    unscreen: 0-lin 1-nonlin 2-no                           
   RPACOR =    1.750    partial core radius                                     
   POMASS =   55.847; ZVAL   =   14.000    mass and valenz                      
   RCORE  =    2.200    outmost cutoff radius                                   
   RWIGS  =    2.200; RWIGS  =    1.164    wigner-seitz radius (au A)           
   ENMAX  =  293.238; ENMIN  =  219.928 eV                                      
   ICORE  =        3    local potential                                         
   LCOR   =        T    correct aug charges                                     
   LPAW   =        T    paw PP                                                  
   EAUG   =  578.342                                                            
   DEXC   =    0.000                                                            
   RMAX   =    2.249    core radius for proj-oper                               
   RAUG   =    1.300    factor for augmentation sphere                          
   RDEP   =    2.296    radius for radial grids                                 
   RDEPT  =    1.766    core radius for aug-charge                              
                                                                                
   Atomic configuration                                                         
    8 entries                                                                   
     n  l   j            E        occ.                                          
     1  0  0.50     -6993.8440   2.0000                                         
     2  0  0.50      -814.6047   2.0000                                         
     2  1  1.50      -693.3689   6.0000                                         
     3  0  0.50       -89.4732   2.0000                                         
     3  1  1.50       -55.6373   6.0000                                         
     3  2  2.50        -3.8151   7.0000                                         
     4  0  0.50        -4.2551   1.0000                                         
     4  3  2.50        -1.3606   0.0000                                         
   Description                                                                  
     l       E           TYP  RCUT    TYP  RCUT                                 
     1    -55.6372668     23  2.000                                             
     1     -5.4423304     23  2.000                                             
     2     -3.8151096     23  2.200                                             
     2     -5.1756922     23  2.200                                             
     0     -4.2550951     23  2.200                                             
     0     27.2116520     23  2.200                                             
     3     -1.3605826     23  2.200                                             
  local pseudopotential read in
  partial core-charges read in
  partial kinetic energy density read in
  atomic valenz-charges read in
  non local Contribution for L=           1  read in
    real space projection operators read in
  non local Contribution for L=           1  read in
    real space projection operators read in
  non local Contribution for L=           2  read in
    real space projection operators read in
  non local Contribution for L=           2  read in
    real space projection operators read in
  non local Contribution for L=           0  read in
    real space projection operators read in
  non local Contribution for L=           0  read in
    real space projection operators read in
    PAW grid and wavefunctions read in
 
   number of l-projection  operators is LMAX  =           6
   number of lm-projection operators is LMMAX =          18
 

 ----------------------------------------------------------------------------- 
|                                                                             |
|  ADVICE TO THIS USER RUNNING 'VASP/VAMP'   (HEAR YOUR MASTER'S VOICE ...):  |
|                                                                             |
|      You have a (more or less) 'large supercell' and for larger cells       |
|      it might be more efficient to use real space projection opertators     |
|      So try LREAL= Auto  in the INCAR   file.                               |
|      Mind:          For very  accurate calculation you might also keep the  |
|      reciprocal projection scheme          (i.e. LREAL=.FALSE.)             |
|                                                                             |
 ----------------------------------------------------------------------------- 


 ----------------------------------------------------------------------------- 
|                                                                             |
|  ADVICE TO THIS USER RUNNING 'VASP/VAMP'   (HEAR YOUR MASTER'S VOICE ...):  |
|                                                                             |
|      You enforced a specific xc-type in the INCAR file,                     |
|      a different type was found on the POTCAR file                          |
|          I HOPE YOU KNOW, WHAT YOU ARE  DOING                               |
|                                                                             |
 ----------------------------------------------------------------------------- 

  PAW_PBE S 06Sep2000                   :
 energy of atom  1       EATOM= -276.8230
 kinetic energy error for atom=    0.0007 (will be added to EATOM!!)
   PAW_PBE Cu_pv 06Sep2000              :
 energy of atom  2       EATOM=-4120.1201
 kinetic energy error for atom=    0.0094 (will be added to EATOM!!)
   PAW_PBE Fe_pv 02Aug2007              :
 energy of atom  3       EATOM=-2457.4239
 kinetic energy error for atom=    0.0025 (will be added to EATOM!!)
 
 
 POSCAR: Fe16 Cu16 S32                           
  positions in direct lattice
  velocities in cartesian coordinates
 exchange correlation table for  LEXCH =       14
   RHO(1)=    0.500       N(1)  =     2000
   RHO(2)=  100.500       N(2)  =     4000
 


--------------------------------------------------------------------------------------------------------


 ion  position               nearest neighbor table
   1  0.126  0.125  0.121-  37 2.26  61 2.27  41 2.27  49 2.29
   2  0.626  0.125  0.121-  38 2.26  62 2.27  42 2.27  50 2.29
   3  0.126  0.625  0.121-  39 2.26  63 2.27  43 2.27  51 2.29
   4  0.626  0.625  0.121-  40 2.26  64 2.27  44 2.27  52 2.29
   5  0.374  0.375  0.121-  39 2.26  62 2.27  41 2.27  52 2.29
   6  0.874  0.375  0.121-  40 2.26  61 2.27  42 2.27  51 2.29
   7  0.374  0.875  0.121-  37 2.26  64 2.27  43 2.27  50 2.29
   8  0.874  0.875  0.121-  38 2.26  63 2.27  44 2.27  49 2.29
   9  0.125  0.374  0.871-  41 2.26  51 2.27  45 2.27  55 2.29
  10  0.625  0.374  0.871-  42 2.26  52 2.27  46 2.27  56 2.29
  11  0.125  0.874  0.871-  43 2.26  49 2.27  47 2.27  53 2.29
  12  0.625  0.874  0.871-  44 2.26  50 2.27  48 2.27  54 2.29
  13  0.375  0.126  0.871-  41 2.26  50 2.27  46 2.27  53 2.29
  14  0.875  0.126  0.871-  42 2.26  49 2.27  45 2.27  54 2.29
  15  0.375  0.626  0.871-  43 2.26  52 2.27  48 2.27  55 2.29
  16  0.875  0.626  0.871-  44 2.26  51 2.27  47 2.27  56 2.29
  17  0.124  0.125  0.621-  45 2.26  53 2.27  33 2.27  57 2.29
  18  0.624  0.125  0.621-  46 2.26  54 2.27  34 2.27  58 2.29
  19  0.124  0.625  0.621-  47 2.26  55 2.27  35 2.27  59 2.29
  20  0.624  0.625  0.621-  48 2.26  56 2.27  36 2.27  60 2.29
  21  0.376  0.375  0.621-  46 2.26  55 2.27  36 2.27  57 2.29
  22  0.876  0.375  0.621-  45 2.26  56 2.27  35 2.27  58 2.29
  23  0.376  0.875  0.621-  48 2.26  53 2.27  34 2.27  59 2.29
  24  0.876  0.875  0.621-  47 2.26  54 2.27  33 2.27  60 2.29
  25  0.375  0.124  0.371-  34 2.26  57 2.27  37 2.27  62 2.29
  26  0.875  0.124  0.371-  33 2.26  58 2.27  38 2.27  61 2.29
  27  0.375  0.624  0.371-  36 2.26  59 2.27  39 2.27  64 2.29
  28  0.875  0.624  0.371-  35 2.26  60 2.27  40 2.27  63 2.29
  29  0.125  0.376  0.371-  35 2.26  57 2.27  39 2.27  61 2.29
  30  0.625  0.376  0.371-  36 2.26  58 2.27  40 2.27  62 2.29
  31  0.125  0.876  0.371-  33 2.26  59 2.27  37 2.27  63 2.29
  32  0.625  0.876  0.371-  34 2.26  60 2.27  38 2.27  64 2.29
  33  0.000  0.000  0.504-  26 2.26  31 2.26  17 2.27  24 2.27
  34  0.500  0.000  0.504-  25 2.26  32 2.26  18 2.27  23 2.27
  35  0.000  0.500  0.504-  28 2.26  29 2.26  19 2.27  22 2.27
  36  0.500  0.500  0.504-  27 2.26  30 2.26  20 2.27  21 2.27
  37  0.250  0.000  0.254-   1 2.26   7 2.26  25 2.27  31 2.27
  38  0.750  0.000  0.254-   2 2.26   8 2.26  26 2.27  32 2.27
  39  0.250  0.500  0.254-   3 2.26   5 2.26  27 2.27  29 2.27
  40  0.750  0.500  0.254-   4 2.26   6 2.26  28 2.27  30 2.27
  41  0.250  0.250  0.004-   9 2.26  13 2.26   1 2.27   5 2.27
  42  0.750  0.250  0.004-  10 2.26  14 2.26   2 2.27   6 2.27
  43  0.250  0.750  0.004-  11 2.26  15 2.26   3 2.27   7 2.27
  44  0.750  0.750  0.004-  12 2.26  16 2.26   4 2.27   8 2.27
  45  0.000  0.250  0.754-  17 2.26  22 2.26   9 2.27  14 2.27
  46  0.500  0.250  0.754-  18 2.26  21 2.26  10 2.27  13 2.27
  47  0.000  0.750  0.754-  19 2.26  24 2.26  11 2.27  16 2.27
  48  0.500  0.750  0.754-  20 2.26  23 2.26  12 2.27  15 2.27
  49  0.000  0.000  0.005-  11 2.27  14 2.27   1 2.29   8 2.29
  50  0.500  0.000  0.005-  12 2.27  13 2.27   2 2.29   7 2.29
  51  0.000  0.500  0.005-   9 2.27  16 2.27   3 2.29   6 2.29
  52  0.500  0.500  0.005-  10 2.27  15 2.27   4 2.29   5 2.29
  53  0.250  0.000  0.755-  17 2.27  23 2.27  11 2.29  13 2.29
  54  0.750  0.000  0.755-  18 2.27  24 2.27  12 2.29  14 2.29
  55  0.250  0.500  0.755-  19 2.27  21 2.27   9 2.29  15 2.29
  56  0.750  0.500  0.755-  20 2.27  22 2.27  10 2.29  16 2.29
  57  0.250  0.250  0.505-  25 2.27  29 2.27  17 2.29  21 2.29
  58  0.750  0.250  0.505-  26 2.27  30 2.27  18 2.29  22 2.29
  59  0.250  0.750  0.505-  27 2.27  31 2.27  19 2.29  23 2.29
  60  0.750  0.750  0.505-  28 2.27  32 2.27  20 2.29  24 2.29
  61  0.000  0.250  0.255-   1 2.27   6 2.27  26 2.29  29 2.29
  62  0.500  0.250  0.255-   2 2.27   5 2.27  25 2.29  30 2.29
  63  0.000  0.750  0.255-   3 2.27   8 2.27  28 2.29  31 2.29
  64  0.500  0.750  0.255-   4 2.27   7 2.27  27 2.29  32 2.29
 
  LATTYP: Found a base centered orthorhombic cell.
 ALAT       =    14.2630395696
 B/A-ratio  =     1.0817879782
 C/A-ratio  =     0.7314060197
  
  Lattice vectors:
  
 A1 = (  10.4979280000,   0.4124360000,   0.0000000000)
 A2 = (  -0.4124360000, -10.4979280000,   0.0000000000)
 A3 = (   0.0000000000,   0.0000000000, -10.4320730000)


Analysis of symmetry for initial positions (statically):
=====================================================================
 Subroutine PRICEL returns following result:
 
  LATTYP: Found a face centered orthorhombic cell.
 ALAT       =     7.1315197848
 B/A-ratio  =     1.0817879782
 C/A-ratio  =     1.4628120393
  
  Lattice vectors:
  
 A1 = (  -2.7275910000,  -2.7275910000,   5.2160365000)
 A2 = (  -2.5213730000,   2.5213730000,   5.2160365000)
 A3 = (  -5.2489640000,  -0.2062180000,  -0.0000000000)
 
   8 primitive cells build up your supercell.
 

 Routine SETGRP: Setting up the symmetry group for a 
 base centered orthorhombic supercell.


 Subroutine GETGRP returns: Found  4 space group operations
 (whereof  2 operations were pure point group operations)
 out of a pool of  8 trial point group operations.


The static configuration has the point symmetry C_2 .
 The point group associated with its full space group is C_2v.


Analysis of symmetry for dynamics (positions and initial velocities):
=====================================================================
 Subroutine PRICEL returns following result:
 
  LATTYP: Found a face centered orthorhombic cell.
 ALAT       =     7.1315197848
 B/A-ratio  =     1.0817879782
 C/A-ratio  =     1.4628120393
  
  Lattice vectors:
  
 A1 = (  -2.7275910000,  -2.7275910000,   5.2160365000)
 A2 = (  -2.5213730000,   2.5213730000,   5.2160365000)
 A3 = (  -5.2489640000,  -0.2062180000,  -0.0000000000)
 
   8 primitive cells build up your supercell.
 

 Routine SETGRP: Setting up the symmetry group for a 
 base centered orthorhombic supercell.


 Subroutine GETGRP returns: Found  4 space group operations
 (whereof  2 operations were pure point group operations)
 out of a pool of  8 trial point group operations.


The dynamic configuration has the point symmetry C_2 .
 The point group associated with its full space group is C_2v.


Analysis of structural, dynamic, and magnetic symmetry:
=====================================================================
 Subroutine PRICEL returns following result:
 
  LATTYP: Found a face centered orthorhombic cell.
 ALAT       =     7.1315197848
 B/A-ratio  =     1.0817879782
 C/A-ratio  =     1.4628120393
  
  Lattice vectors:
  
 A1 = (  -2.7275910000,  -2.7275910000,   5.2160365000)
 A2 = (  -2.5213730000,   2.5213730000,   5.2160365000)
 A3 = (  -5.2489640000,  -0.2062180000,  -0.0000000000)
 
   8 primitive cells build up your supercell.
 

 Routine SETGRP: Setting up the symmetry group for a 
 base centered orthorhombic supercell.


 Subroutine GETGRP returns: Found  4 space group operations
 (whereof  2 operations were pure point group operations)
 out of a pool of  8 trial point group operations.


The magnetic configuration has the point symmetry C_2 .
 The point group associated with its full space group is C_2v.


 Subroutine INISYM returns: Found  4 space group operations
 (whereof  2 operations are pure point group operations),
 and found     8 'primitive' translations

 
 
 KPOINTS: Automatic mesh                          

Automatic generation of k-mesh.
Space group operators:
 irot       det(A)        alpha          n_x          n_y          n_z        tau_x        tau_y        tau_z
    1     1.000000     0.000000     1.000000     0.000000     0.000000     0.000000     0.000000     0.000000
    2     1.000000   180.000000     0.000000     0.000000     1.000000     0.000000     0.000000     0.000000
    3    -1.000000   180.000000     0.707107     0.707107     0.000000    -0.750000    -0.000000     0.750000
    4    -1.000000   180.000000     0.707107    -0.707107     0.000000    -0.750000    -0.000000     0.750000
 
 Subroutine IBZKPT returns following result:
 ===========================================
 
 Found      6 irreducible k-points:
 
 Following reciprocal coordinates:
            Coordinates               Weight
  0.000000  0.000000  0.000000      1.000000
  0.500000  0.000000  0.000000      2.000000
  0.500000  0.500000  0.000000      1.000000
  0.000000  0.000000  0.500000      1.000000
  0.500000  0.000000  0.500000      2.000000
  0.500000  0.500000  0.500000      1.000000
 
 Following cartesian coordinates:
            Coordinates               Weight
  0.000000  0.000000  0.000000      1.000000
  0.047702 -0.001874  0.000000      2.000000
  0.045828  0.045828  0.000000      1.000000
  0.000000  0.000000  0.047929      1.000000
  0.047702 -0.001874  0.047929      2.000000
  0.045828  0.045828  0.047929      1.000000
 
 TETIRR: Found     12 inequivalent tetrahedra from       48
 
 Subroutine IBZKPT_HF returns following result:
 ==============================================
 
 Found      8 k-points in 1st BZ
 the following      8 k-points will be used (e.g. in the exchange kernel)
 Following reciprocal coordinates:   # in IRBZ
  0.000000  0.000000  0.000000    0.12500000   1 t-inv F
  0.500000  0.000000  0.000000    0.12500000   2 t-inv F
  0.500000  0.500000  0.000000    0.12500000   3 t-inv F
  0.000000  0.000000  0.500000    0.12500000   4 t-inv F
  0.500000  0.000000  0.500000    0.12500000   5 t-inv F
  0.500000  0.500000  0.500000    0.12500000   6 t-inv F
  0.000000 -0.500000  0.000000    0.12500000   2 t-inv F spinflp
  0.000000 -0.500000  0.500000    0.12500000   5 t-inv F spinflp


--------------------------------------------------------------------------------------------------------




 Dimension of arrays:
   k-points           NKPTS =      6   k-points in BZ     NKDIM =      6   number of bands    NBANDS=    512
   number of dos      NEDOS =    301   number of ions     NIONS =     64
   non local maximal  LDIM  =      6   non local SUM 2l+1 LMDIM =     18
   total plane-waves  NPLWV = 829440
   max r-space proj   IRMAX =      1   max aug-charges    IRDMAX=  22961
   dimension x,y,z NGX =    96 NGY =   96 NGZ =   90
   dimension x,y,z NGXF=   192 NGYF=  192 NGZF=  180
   support grid    NGXF=   192 NGYF=  192 NGZF=  180
   ions per type =              32  16  16
   NGX,Y,Z   is equivalent  to a cutoff of  15.19, 15.19, 14.34 a.u.
   NGXF,Y,Z  is equivalent  to a cutoff of  30.38, 30.38, 28.68 a.u.

 SYSTEM =  CuFeS2                                  
 POSCAR =  Fe16 Cu16 S32                           

 Startparameter for this run:
   NWRITE =      2    write-flag & timer
   PREC   = accura    normal or accurate (medium, high low for compatibility)
   ISTART =      0    job   : 0-new  1-cont  2-samecut
   ICHARG =      1    charge: 1-file 2-atom 10-const
   ISPIN  =      2    spin polarized calculation?
   LNONCOLLINEAR =      F non collinear calculations
   LSORBIT =      F    spin-orbit coupling
   INIWAV =      1    electr: 0-lowe 1-rand  2-diag
   LASPH  =      F    aspherical Exc in radial PAW
   METAGGA=      F    non-selfconsistent MetaGGA calc.

 Electronic Relaxation 1
   ENCUT  =  700.0 eV  51.45 Ry    7.17 a.u.  22.66 22.66 22.50*2*pi/ulx,y,z
   ENINI  =  700.0     initial cutoff
   ENAUG  =  758.2 eV  augmentation charge cutoff
   NELM   =    500;   NELMIN=  2; NELMDL=  0     # of ELM steps 
   EDIFF  = 0.1E-07   stopping-criterion for ELM
   LREAL  =      F    real-space projection
   NLSPLINE    = F    spline interpolate recip. space projectors
   LCOMPAT=      F    compatible to vasp.4.4
   GGA_COMPAT  = T    GGA compatible to vasp.4.4-vasp.4.6
   LMAXPAW     = -100 max onsite density
   LMAXMIX     =    4 max onsite mixed and CHGCAR
   VOSKOWN=      0    Vosko Wilk Nusair interpolation
   ROPT   =    0.00000   0.00000   0.00000
 Ionic relaxation
   EDIFFG = -.1E-04   stopping-criterion for IOM
   NSW    =      0    number of steps for IOM
   NBLOCK =      1;   KBLOCK =      1    inner block; outer block 
   IBRION =     -1    ionic relax: 0-MD 1-quasi-New 2-CG
   NFREE  =      0    steps in history (QN), initial steepest desc. (CG)
   ISIF   =      2    stress and relaxation
   IWAVPR =     10    prediction:  0-non 1-charg 2-wave 3-comb
   ISYM   =      2    0-nonsym 1-usesym 2-fastsym
   LCORR  =      T    Harris-Foulkes like correction to forces

   POTIM  = 0.5000    time-step for ionic-motion
   TEIN   =    0.0    initial temperature
   TEBEG  =    0.0;   TEEND  =   0.0 temperature during run
   SMASS  =  -3.00    Nose mass-parameter (am)
   estimated Nose-frequenzy (Omega)   =  0.10E-29 period in steps =****** mass=  -0.252E-26a.u.
   SCALEE = 1.0000    scale energy and forces
   NPACO  =    256;   APACO  = 16.0  distance and # of slots for P.C.
   PSTRESS=    0.0 pullay stress

  Mass of Ions in am
   POMASS =  32.07 63.55 55.85
  Ionic Valenz
   ZVAL   =   6.00 17.00 14.00
  Atomic Wigner-Seitz radii
   RWIGS  =  -1.00 -1.00 -1.00
  virtual crystal weights 
   VCA    =   1.00  1.00  1.00
   NELECT =     688.0000    total number of electrons
   NUPDOWN=      -1.0000    fix difference up-down

 DOS related values:
   EMIN   =  10.00;   EMAX   =-10.00  energy-range for DOS
   EFERMI =   0.00
   ISMEAR =    -5;   SIGMA  =   0.03  broadening in eV -4-tet -1-fermi 0-gaus

 Electronic relaxation 2 (details)
   IALGO  =     38    algorithm
   LDIAG  =      T    sub-space diagonalisation (order eigenvalues)
   LSUBROT=      F    optimize rotation matrix (better conditioning)
   TURBO    =      0    0=normal 1=particle mesh
   IRESTART =      0    0=no restart 2=restart with 2 vectors
   NREBOOT  =      0    no. of reboots
   NMIN     =      0    reboot dimension
   EREF     =   0.00    reference energy to select bands
   IMIX   =      4    mixing-type and parameters
     AMIX     =   0.40;   BMIX     =  1.00
     AMIX_MAG =   1.60;   BMIX_MAG =  1.00
     AMIN     =   0.10
     WC   =   100.;   INIMIX=   1;  MIXPRE=   1;  MAXMIX= -45

 Intra band minimization:
   WEIMIN = 0.0000     energy-eigenvalue tresh-hold
   EBREAK =  0.49E-11  absolut break condition
   DEPER  =   0.30     relativ break condition  

   TIME   =   0.40     timestep for ELM

  volume/ion in A,a.u.               =      17.94       121.04
  Fermi-wavevector in a.u.,A,eV,Ry     =   1.380285  2.608360 25.921626  1.905186
  Thomas-Fermi vector in A             =   2.505176
 
 Write flags
   LWAVE        =      T    write WAVECAR
   LDOWNSAMPLE  =      F    k-point downsampling of WAVECAR
   LCHARG       =      T    write CHGCAR
   LVTOT        =      F    write LOCPOT, total local potential
   LVHAR        =      F    write LOCPOT, Hartree potential only
   LELF         =      F    write electronic localiz. function (ELF)
   LORBIT       =     11    0 simple, 1 ext, 2 COOP (PROOUT), +10 PAW based schemes


 Dipole corrections
   LMONO  =      F    monopole corrections only (constant potential shift)
   LDIPOL =      F    correct potential (dipole corrections)
   IDIPOL =      0    1-x, 2-y, 3-z, 4-all directions 
   EPSILON=  1.0000000 bulk dielectric constant

 LDA+U is selected, type is set to LDAUTYPE =  2
   angular momentum for each species LDAUL =     2    2    2
   U (eV)           for each species LDAUU =   0.0  0.1  4.7
   J (eV)           for each species LDAUJ =   0.0  0.0  0.0
 Exchange correlation treatment:
   GGA     =    PS    GGA type
   LEXCH   =    14    internal setting for exchange type
   VOSKOWN=      0    Vosko Wilk Nusair interpolation
   LHFCALC =     F    Hartree Fock is set to
   LHFONE  =     F    Hartree Fock one center treatment
   AEXX    =    0.0000 exact exchange contribution

 Linear response parameters
   LEPSILON=     F    determine dielectric tensor
   LRPA    =     F    only Hartree local field effects (RPA)
   LNABLA  =     F    use nabla operator in PAW spheres
   LVEL    =     F    velocity operator in full k-point grid
   LINTERFAST=   F  fast interpolation
   KINTER  =     0    interpolate to denser k-point grid
   CSHIFT  =0.1000    complex shift for real part using Kramers Kronig
   OMEGAMAX=  -1.0    maximum frequency
   DEG_THRESHOLD= 0.2000000E-02 threshold for treating states as degnerate
   RTIME   =   -0.100 relaxation time in fs
  (WPLASMAI=    0.000 imaginary part of plasma frequency in eV, 0.658/RTIME)
   DFIELD  = 0.0000000 0.0000000 0.0000000 field for delta impulse in time
 
 Orbital magnetization related:
   ORBITALMAG=     F  switch on orbital magnetization
   LCHIMAG   =     F  perturbation theory with respect to B field
   DQ        =  0.001000  dq finite difference perturbation B field
   LLRAUG    =     F  two centre corrections for induced B field

 PEAD related settings:
   LPEAD      =     T    switch on PEAD
   IPEAD      =     4    finite difference order for dpsi/dk
   LCALCPOL   =     T    calculate macroscopic polarization
   LCALCEPS   =     F    calculate dielectric tensor
   EFIELD_PEAD=    0.0000    0.0000    0.0000
   SKIP_EDOTP =     F
   LRPA       =     F
   SKIP_SCF   =     F


--------------------------------------------------------------------------------------------------------


 Static calculation
 charge density and potential will be updated during run
 spin polarized calculation
 Variant of blocked Davidson
 Davidson routine will perform the subspace rotation
 perform sub-space diagonalisation
    after iterative eigenvector-optimisation
 modified Broyden-mixing scheme, WC =      100.0
 initial mixing is a Kerker type mixing with AMIX =  0.4000 and BMIX =      1.0000
 Hartree-type preconditioning will be used
 using additional bands          168
 reciprocal scheme for non local part
 use partial core corrections
 calculate Harris-corrections to forces 
   (improved forces if not selfconsistent)
 use gradient corrections 
 use of overlap-Matrix (Vanderbilt PP)
 Fermi weights with tetrahedron method with Bloechl corrections


--------------------------------------------------------------------------------------------------------


  energy-cutoff  :      700.00
  volume of cell :     1147.91
      direct lattice vectors                 reciprocal lattice vectors
    10.497928000  0.412436000  0.000000000     0.095404149 -0.003748178  0.000000000
     0.412436000 10.497928000  0.000000000    -0.003748178  0.095404149  0.000000000
     0.000000000  0.000000000 10.432073000     0.000000000  0.000000000  0.095858225

  length of vectors
    10.506026639 10.506026639 10.432073000     0.095477748  0.095477748  0.095858225


 
 k-points in units of 2pi/SCALE and weight: Automatic mesh                          
   0.00000000  0.00000000  0.00000000       0.125
   0.04770207 -0.00187409  0.00000000       0.250
   0.04582799  0.04582799  0.00000000       0.125
   0.00000000  0.00000000  0.04792911       0.125
   0.04770207 -0.00187409  0.04792911       0.250
   0.04582799  0.04582799  0.04792911       0.125
 
 k-points in reciprocal lattice and weights: Automatic mesh                          
   0.00000000  0.00000000  0.00000000       0.125
   0.50000000  0.00000000  0.00000000       0.250
   0.50000000  0.50000000  0.00000000       0.125
   0.00000000  0.00000000  0.50000000       0.125
   0.50000000  0.00000000  0.50000000       0.250
   0.50000000  0.50000000  0.50000000       0.125
 
 position of ions in fractional coordinates (direct lattice) 
   0.12610900  0.12545700  0.12064900
   0.62610900  0.12545700  0.12064900
   0.12610900  0.62545700  0.12064900
   0.62610900  0.62545700  0.12064900
   0.37389100  0.37454300  0.12064900
   0.87389100  0.37454300  0.12064900
   0.37389100  0.87454300  0.12064900
   0.87389100  0.87454300  0.12064900
   0.12454300  0.37389100  0.87064900
   0.62454300  0.37389100  0.87064900
   0.12454300  0.87389100  0.87064900
   0.62454300  0.87389100  0.87064900
   0.37545700  0.12610900  0.87064900
   0.87545700  0.12610900  0.87064900
   0.37545700  0.62610900  0.87064900
   0.87545700  0.62610900  0.87064900
   0.12389100  0.12454300  0.62064900
   0.62389100  0.12454300  0.62064900
   0.12389100  0.62454300  0.62064900
   0.62389100  0.62454300  0.62064900
   0.37610900  0.37545700  0.62064900
   0.87610900  0.37545700  0.62064900
   0.37610900  0.87545700  0.62064900
   0.87610900  0.87545700  0.62064900
   0.37454300  0.12389100  0.37064900
   0.87454300  0.12389100  0.37064900
   0.37454300  0.62389100  0.37064900
   0.87454300  0.62389100  0.37064900
   0.12545700  0.37610900  0.37064900
   0.62545700  0.37610900  0.37064900
   0.12545700  0.87610900  0.37064900
   0.62545700  0.87610900  0.37064900
   0.00000000  0.00000000  0.50377500
   0.50000000  0.00000000  0.50377500
   0.00000000  0.50000000  0.50377500
   0.50000000  0.50000000  0.50377500
   0.25000000  0.00000000  0.25377500
   0.75000000  0.00000000  0.25377500
   0.25000000  0.50000000  0.25377500
   0.75000000  0.50000000  0.25377500
   0.25000000  0.25000000  0.00377500
   0.75000000  0.25000000  0.00377500
   0.25000000  0.75000000  0.00377500
   0.75000000  0.75000000  0.00377500
   0.00000000  0.25000000  0.75377500
   0.50000000  0.25000000  0.75377500
   0.00000000  0.75000000  0.75377500
   0.50000000  0.75000000  0.75377500
   0.00000000  0.00000000  0.00492800
   0.50000000  0.00000000  0.00492800
   0.00000000  0.50000000  0.00492800
   0.50000000  0.50000000  0.00492800
   0.25000000  0.00000000  0.75492800
   0.75000000  0.00000000  0.75492800
   0.25000000  0.50000000  0.75492800
   0.75000000  0.50000000  0.75492800
   0.25000000  0.25000000  0.50492800
   0.75000000  0.25000000  0.50492800
   0.25000000  0.75000000  0.50492800
   0.75000000  0.75000000  0.50492800
   0.00000000  0.25000000  0.25492800
   0.50000000  0.25000000  0.25492800
   0.00000000  0.75000000  0.25492800
   0.50000000  0.75000000  0.25492800
 
 position of ions in cartesian coordinates  (Angst):
   1.37562619  1.36905044  1.25861918
   6.62459019  1.57526844  1.25861918
   1.58184419  6.61801444  1.25861918
   6.83080819  6.82423244  1.25861918
   4.07955581  4.08613156  1.25861918
   9.32851981  4.29234956  1.25861918
   4.28577381  9.33509556  1.25861918
   9.53473781  9.54131356  1.25861918
   1.46164956  3.97644681  9.08267393
   6.71061356  4.18266481  9.08267393
   1.66786756  9.22541081  9.08267393
   6.91683156  9.43162881  9.08267393
   3.99353244  1.47873519  9.08267393
   9.24249644  1.68495319  9.08267393
   4.19975044  6.72769919  9.08267393
   9.44871444  6.93391719  9.08267393
   1.35196481  1.35854056  6.47465568
   6.60092881  1.56475856  6.47465568
   1.55818281  6.60750456  6.47465568
   6.80714681  6.81372256  6.47465568
   4.10321719  4.09664144  6.47465568
   9.35218119  4.30285944  6.47465568
   4.30943519  9.34560544  6.47465568
   9.55839919  9.55182344  6.47465568
   3.98302256  1.45507381  3.86663743
   9.23198656  1.66129181  3.86663743
   4.18924056  6.70403781  3.86663743
   9.43820456  6.91025581  3.86663743
   1.47215944  4.00010819  3.86663743
   6.72112344  4.20632619  3.86663743
   1.67837744  9.24907219  3.86663743
   6.92734144  9.45529019  3.86663743
   0.00000000  0.00000000  5.25541758
   5.24896400  0.20621800  5.25541758
   0.20621800  5.24896400  5.25541758
   5.45518200  5.45518200  5.25541758
   2.62448200  0.10310900  2.64739933
   7.87344600  0.30932700  2.64739933
   2.83070000  5.35207300  2.64739933
   8.07966400  5.55829100  2.64739933
   2.72759100  2.72759100  0.03938108
   7.97655500  2.93380900  0.03938108
   2.93380900  7.97655500  0.03938108
   8.18277300  8.18277300  0.03938108
   0.10310900  2.62448200  7.86343583
   5.35207300  2.83070000  7.86343583
   0.30932700  7.87344600  7.86343583
   5.55829100  8.07966400  7.86343583
   0.00000000  0.00000000  0.05140926
   5.24896400  0.20621800  0.05140926
   0.20621800  5.24896400  0.05140926
   5.45518200  5.45518200  0.05140926
   2.62448200  0.10310900  7.87546401
   7.87344600  0.30932700  7.87546401
   2.83070000  5.35207300  7.87546401
   8.07966400  5.55829100  7.87546401
   2.72759100  2.72759100  5.26744576
   7.97655500  2.93380900  5.26744576
   2.93380900  7.97655500  5.26744576
   8.18277300  8.18277300  5.26744576
   0.10310900  2.62448200  2.65942751
   5.35207300  2.83070000  2.65942751
   0.30932700  7.87344600  2.65942751
   5.55829100  8.07966400  2.65942751
 


--------------------------------------------------------------------------------------------------------


 k-point  1 :   0.0000 0.0000 0.0000  plane waves:   48267
 k-point  2 :   0.5000 0.0000 0.0000  plane waves:   48298
 k-point  3 :   0.5000 0.5000 0.0000  plane waves:   48344
 k-point  4 :   0.0000 0.0000 0.5000  plane waves:   48238
 k-point  5 :   0.5000 0.0000 0.5000  plane waves:   48248
 k-point  6 :   0.5000 0.5000 0.5000  plane waves:   48164

 maximum and minimum number of plane-waves per node :     48344    48164

 maximum number of plane-waves:     48344
 maximum index in each direction: 
   IXMAX=   22   IYMAX=   22   IZMAX=   22
   IXMIN=  -23   IYMIN=  -23   IZMIN=  -23


 serial   3D FFT for wavefunctions
 parallel 3D FFT for charge:
    minimum data exchange during FFTs selected (reduces bandwidth)


 total amount of memory used by VASP MPI-rank0   300225. kBytes
=======================================================================

   base      :      30000. kBytes
   nonl-proj :     174956. kBytes
   fftplans  :       4588. kBytes
   grid      :      69719. kBytes
   one-center:       1990. kBytes
   wavefun   :      18972. kBytes
 
     INWAV:  cpu time    0.0001: real time    0.0003
 Broyden mixing: mesh for mixing (old mesh)
   NGX = 45   NGY = 45   NGZ = 45
  (NGX  =192   NGY  =192   NGZ  =180)
  gives a total of  91125 points

 initial charge density was supplied:
 number of electron     688.0000359 magnetization       0.0000000
 keeping initial charge density in first step


--------------------------------------------------------------------------------------------------------


 Maximum index for augmentation-charges          897 (set IRDMAX)


--------------------------------------------------------------------------------------------------------


 First call to EWALD:  gamma=   0.169
 Maximum number of real-space cells 3x 3x 3
 Maximum number of reciprocal cells 3x 3x 3

    FEWALD:  cpu time    0.0022: real time    0.0027


--------------------------------------- Iteration      1(   1)  ---------------------------------------


    POTLOK:  cpu time    0.3252: real time    0.3788
    SETDIJ:  cpu time    0.0146: real time    0.0147
     EDDAV:  cpu time   62.6400: real time   63.1598
 BZINTS: Fermi energy: 15.006100;688.000000 electrons
         Band energy:***********;  BLOECHL correction: -0.016787
       DOS:  cpu time    0.0197: real time    0.0198
    --------------------------------------------
      LOOP:  cpu time   62.9996: real time   63.5732

 eigenvalue-minimisations  : 12288
 total energy-change (2. order) : 0.6043831E+04  (-0.5160252E+05)
 number of electron     688.0000359 magnetization       0.0000000
 augmentation part      688.0000359 magnetization       0.0000000

 Free energy of the ion-electron system (eV)
  ---------------------------------------------------
  alpha Z        PSCENC =      2361.81940776
  Ewald energy   TEWEN  =    -62546.86054444
  -Hartree energ DENC   =    -42902.07336136
  -exchange      EXHF   =         0.00000000
  -V(xc)+E(xc)   XCENC  =      3286.48932816
  PAW double counting   =    112230.57959756  -115923.74988229
  entropy T*S    EENTRO =         0.00000000
  eigenvalues    EBANDS =     -4482.43906781
  atomic energy  EATOM  =    114020.06510763
  Solvation  Ediel_sol  =         0.00000000
  ---------------------------------------------------
  free energy    TOTEN  =      6043.83058521 eV

  energy without entropy =     6043.83058521  energy(sigma->0) =     6043.83058521


--------------------------------------------------------------------------------------------------------




--------------------------------------- Iteration      1(   2)  ---------------------------------------


     EDDAV:  cpu time   76.3954: real time   76.9562
 BZINTS: Fermi energy:  5.653106;688.000000 electrons
         Band energy:***********;  BLOECHL correction:  0.000000
       DOS:  cpu time    0.0036: real time    0.0036
    --------------------------------------------
      LOOP:  cpu time   76.3991: real time   76.9599

 eigenvalue-minimisations  : 13824
 total energy-change (2. order) :-0.6127105E+04  (-0.6016913E+04)
 number of electron     688.0000359 magnetization       0.0000000
 augmentation part      688.0000359 magnetization       0.0000000

 Free energy of the ion-electron system (eV)
  ---------------------------------------------------
  alpha Z        PSCENC =      2361.81940776
  Ewald energy   TEWEN  =    -62546.86054444
  -Hartree energ DENC   =    -42902.07336136
  -exchange      EXHF   =         0.00000000
  -V(xc)+E(xc)   XCENC  =      3286.48932816
  PAW double counting   =    112230.57959756  -115923.74988229
  entropy T*S    EENTRO =         0.00000000
  eigenvalues    EBANDS =    -10609.54452267
  atomic energy  EATOM  =    114020.06510763
  Solvation  Ediel_sol  =         0.00000000
  ---------------------------------------------------
  free energy    TOTEN  =       -83.27486965 eV

  energy without entropy =      -83.27486965  energy(sigma->0) =      -83.27486965


--------------------------------------------------------------------------------------------------------




--------------------------------------- Iteration      1(   3)  ---------------------------------------


     EDDAV:  cpu time  108.4828: real time  109.2266
 BZINTS: Fermi energy:  5.006123;688.000000 electrons
         Band energy:***********;  BLOECHL correction:  0.000000
       DOS:  cpu time    0.0028: real time    0.0028
    --------------------------------------------
      LOOP:  cpu time  108.4856: real time  109.2294

 eigenvalue-minimisations  : 16384
 total energy-change (2. order) :-0.2406857E+03  (-0.2399270E+03)
 number of electron     688.0000359 magnetization       0.0000000
 augmentation part      688.0000359 magnetization       0.0000000

 Free energy of the ion-electron system (eV)
  ---------------------------------------------------
  alpha Z        PSCENC =      2361.81940776
  Ewald energy   TEWEN  =    -62546.86054444
  -Hartree energ DENC   =    -42902.07336136
  -exchange      EXHF   =         0.00000000
  -V(xc)+E(xc)   XCENC  =      3286.48932816
  PAW double counting   =    112230.57959756  -115923.74988229
  entropy T*S    EENTRO =         0.00000000
  eigenvalues    EBANDS =    -10850.23020941
  atomic energy  EATOM  =    114020.06510763
  Solvation  Ediel_sol  =         0.00000000
  ---------------------------------------------------
  free energy    TOTEN  =      -323.96055639 eV

  energy without entropy =     -323.96055639  energy(sigma->0) =     -323.96055639


--------------------------------------------------------------------------------------------------------




--------------------------------------- Iteration      1(   4)  ---------------------------------------


     EDDAV:  cpu time   99.7883: real time  100.4763
 BZINTS: Fermi energy:  4.995715;688.000000 electrons
         Band energy:***********;  BLOECHL correction:  0.000000
       DOS:  cpu time    0.0032: real time    0.0033
    --------------------------------------------
      LOOP:  cpu time   99.7915: real time  100.4796

 eigenvalue-minimisations  : 15360
 total energy-change (2. order) :-0.3395768E+01  (-0.3395577E+01)
 number of electron     688.0000359 magnetization       0.0000000
 augmentation part      688.0000359 magnetization       0.0000000

 Free energy of the ion-electron system (eV)
  ---------------------------------------------------
  alpha Z        PSCENC =      2361.81940776
  Ewald energy   TEWEN  =    -62546.86054444
  -Hartree energ DENC   =    -42902.07336136
  -exchange      EXHF   =         0.00000000
  -V(xc)+E(xc)   XCENC  =      3286.48932816
  PAW double counting   =    112230.57959756  -115923.74988229
  entropy T*S    EENTRO =         0.00000000
  eigenvalues    EBANDS =    -10853.62597731
  atomic energy  EATOM  =    114020.06510763
  Solvation  Ediel_sol  =         0.00000000
  ---------------------------------------------------
  free energy    TOTEN  =      -327.35632429 eV

  energy without entropy =     -327.35632429  energy(sigma->0) =     -327.35632429


--------------------------------------------------------------------------------------------------------




--------------------------------------- Iteration      1(   5)  ---------------------------------------


     EDDAV:  cpu time  101.1757: real time  101.8679
 BZINTS: Fermi energy:  4.980116;688.000000 electrons
         Band energy:***********;  BLOECHL correction:  0.000000
       DOS:  cpu time    0.0032: real time    0.0032
    CHARGE:  cpu time    1.1822: real time    1.1903
    MIXING:  cpu time    0.0025: real time    0.0026
    --------------------------------------------
      LOOP:  cpu time  102.3636: real time  103.0641

 eigenvalue-minimisations  : 15360
 total energy-change (2. order) :-0.1029081E+00  (-0.1029077E+00)
 number of electron     688.0000359 magnetization       0.0000000
 augmentation part      282.2463216 magnetization       0.0000000

 Broyden mixing:
  rms(total) = 0.25153E-01    rms(broyden)= 0.25149E-01
  rms(prec ) = 0.25215E-01
  weight for this iteration     100.00

 Free energy of the ion-electron system (eV)
  ---------------------------------------------------
  alpha Z        PSCENC =      2361.81940776
  Ewald energy   TEWEN  =    -62546.86054444
  -Hartree energ DENC   =    -42902.07336136
  -exchange      EXHF   =         0.00000000
  -V(xc)+E(xc)   XCENC  =      3286.48932816
  PAW double counting   =    112230.57959756  -115923.74988229
  entropy T*S    EENTRO =         0.00000000
  eigenvalues    EBANDS =    -10853.72888537
  atomic energy  EATOM  =    114020.06510763
  Solvation  Ediel_sol  =         0.00000000
  ---------------------------------------------------
  free energy    TOTEN  =      -327.45923235 eV

  energy without entropy =     -327.45923235  energy(sigma->0) =     -327.45923235


--------------------------------------------------------------------------------------------------------




--------------------------------------- Iteration      1(   6)  ---------------------------------------


    POTLOK:  cpu time    0.1179: real time    0.1226
    SETDIJ:  cpu time    0.0126: real time    0.0127
     EDDAV:  cpu time  126.4847: real time  127.3161
 BZINTS: Fermi energy:  4.974141;688.000000 electrons
         Band energy:***********;  BLOECHL correction:  0.000000
       DOS:  cpu time    0.0032: real time    0.0032
    CHARGE:  cpu time    1.4407: real time    1.4490
    MIXING:  cpu time    0.0023: real time    0.0093
    --------------------------------------------
      LOOP:  cpu time  128.0614: real time  128.9129

 eigenvalue-minimisations  : 17408
 total energy-change (2. order) :-0.5090397E-02  (-0.5108134E-02)
 number of electron     688.0000359 magnetization       0.0000000
 augmentation part      282.2208344 magnetization       0.0000000

 Broyden mixing:
  rms(total) = 0.96717E-02    rms(broyden)= 0.96688E-02
  rms(prec ) = 0.10125E-01
  weight for this iteration     100.00

 eigenvalues of (default mixing * dielectric matrix)
  average eigenvalue GAMMA=   0.7265
  0.7265

 Free energy of the ion-electron system (eV)
  ---------------------------------------------------
  alpha Z        PSCENC =      2361.81940776
  Ewald energy   TEWEN  =    -62546.86054444
  -Hartree energ DENC   =    -42902.62160735
  -exchange      EXHF   =         0.00000000
  -V(xc)+E(xc)   XCENC  =      3286.51455381
  PAW double counting   =    112250.86393173  -115944.22226802
  entropy T*S    EENTRO =         0.00000000
  eigenvalues    EBANDS =    -10853.02290386
  atomic energy  EATOM  =    114020.06510763
  Solvation  Ediel_sol  =         0.00000000
  ---------------------------------------------------
  free energy    TOTEN  =      -327.46432274 eV

  energy without entropy =     -327.46432274  energy(sigma->0) =     -327.46432274


--------------------------------------------------------------------------------------------------------




--------------------------------------- Iteration      1(   7)  ---------------------------------------


    POTLOK:  cpu time    0.1359: real time    0.1370
    SETDIJ:  cpu time    0.0164: real time    0.0165
     EDDAV:  cpu time  102.1374: real time  102.8280
 BZINTS: Fermi energy:  4.963105;688.000000 electrons
         Band energy:***********;  BLOECHL correction:  0.000000
       DOS:  cpu time    0.0032: real time    0.0032
    CHARGE:  cpu time    1.1778: real time    1.1850
    MIXING:  cpu time    0.0016: real time    0.0031
    --------------------------------------------
      LOOP:  cpu time  103.4723: real time  104.1728

 eigenvalue-minimisations  : 15104
 total energy-change (2. order) :-0.2990912E-03  (-0.3482909E-03)
 number of electron     688.0000359 magnetization       0.0000000
 augmentation part      282.2341451 magnetization       0.0000000

 Broyden mixing:
  rms(total) = 0.89100E-02    rms(broyden)= 0.89091E-02
  rms(prec ) = 0.94306E-02
  weight for this iteration     100.00

 eigenvalues of (default mixing * dielectric matrix)
  average eigenvalue GAMMA=   0.5234
  0.5234  0.5234

 Free energy of the ion-electron system (eV)
  ---------------------------------------------------
  alpha Z        PSCENC =      2361.81940776
  Ewald energy   TEWEN  =    -62546.86054444
  -Hartree energ DENC   =    -42901.68280795
  -exchange      EXHF   =         0.00000000
  -V(xc)+E(xc)   XCENC  =      3286.48325258
  PAW double counting   =    112243.71011743  -115936.90693187
  entropy T*S    EENTRO =         0.00000000
  eigenvalues    EBANDS =    -10854.09222297
  atomic energy  EATOM  =    114020.06510763
  Solvation  Ediel_sol  =         0.00000000
  ---------------------------------------------------
  free energy    TOTEN  =      -327.46462183 eV

  energy without entropy =     -327.46462183  energy(sigma->0) =     -327.46462183


--------------------------------------------------------------------------------------------------------




--------------------------------------- Iteration      1(   8)  ---------------------------------------


    POTLOK:  cpu time    0.1213: real time    0.1223
    SETDIJ:  cpu time    0.0129: real time    0.0130
     EDDAV:  cpu time  124.5733: real time  125.3897
 BZINTS: Fermi energy:  5.014766;688.000000 electrons
         Band energy:***********;  BLOECHL correction:  0.000000
       DOS:  cpu time    0.0028: real time    0.0028
    CHARGE:  cpu time    1.1911: real time    1.1982
    MIXING:  cpu time    0.0020: real time    0.0028
    --------------------------------------------
      LOOP:  cpu time  125.9034: real time  126.7288

 eigenvalue-minimisations  : 17152
 total energy-change (2. order) :-0.1015092E-04  (-0.3836031E-04)
 number of electron     688.0000359 magnetization       0.0000000
 augmentation part      282.2321728 magnetization       0.0000000

 Broyden mixing:
  rms(total) = 0.75394E-02    rms(broyden)= 0.75391E-02
  rms(prec ) = 0.76011E-02
  weight for this iteration     100.00

 eigenvalues of (default mixing * dielectric matrix)
  average eigenvalue GAMMA=   0.4302
  0.5155  0.5155  0.2595

 Free energy of the ion-electron system (eV)
  ---------------------------------------------------
  alpha Z        PSCENC =      2361.81940776
  Ewald energy   TEWEN  =    -62546.86054444
  -Hartree energ DENC   =    -42901.98791249
  -exchange      EXHF   =         0.00000000
  -V(xc)+E(xc)   XCENC  =      3286.49467178
  PAW double counting   =    112242.47283595  -115935.69794988
  entropy T*S    EENTRO =         0.00000000
  eigenvalues    EBANDS =    -10853.77024829
  atomic energy  EATOM  =    114020.06510763
  Solvation  Ediel_sol  =         0.00000000
  ---------------------------------------------------
  free energy    TOTEN  =      -327.46463198 eV

  energy without entropy =     -327.46463198  energy(sigma->0) =     -327.46463198


--------------------------------------------------------------------------------------------------------




--------------------------------------- Iteration      1(   9)  ---------------------------------------


    POTLOK:  cpu time    0.1294: real time    0.1304
    SETDIJ:  cpu time    0.0143: real time    0.0143
     EDDAV:  cpu time   92.4914: real time   93.1251
 BZINTS: Fermi energy:  5.005004;688.000000 electrons
         Band energy:***********;  BLOECHL correction:  0.000000
       DOS:  cpu time    0.0028: real time    0.0028
    CHARGE:  cpu time    1.1815: real time    1.1887
    MIXING:  cpu time    0.0014: real time    0.0014
    --------------------------------------------
      LOOP:  cpu time   93.8207: real time   94.4627

 eigenvalue-minimisations  : 14592
 total energy-change (2. order) :-0.7504859E-06  (-0.2041046E-05)
 number of electron     688.0000359 magnetization       0.0000000
 augmentation part      282.2309934 magnetization       0.0000000

 Broyden mixing:
  rms(total) = 0.66943E-02    rms(broyden)= 0.66943E-02
  rms(prec ) = 0.67132E-02
  weight for this iteration     100.00

 eigenvalues of (default mixing * dielectric matrix)
  average eigenvalue GAMMA=   0.5165
  0.6840  0.6840  0.3490  0.3490

 Free energy of the ion-electron system (eV)
  ---------------------------------------------------
  alpha Z        PSCENC =      2361.81940776
  Ewald energy   TEWEN  =    -62546.86054444
  -Hartree energ DENC   =    -42902.04344262
  -exchange      EXHF   =         0.00000000
  -V(xc)+E(xc)   XCENC  =      3286.49441457
  PAW double counting   =    112241.48748035  -115934.71791486
  entropy T*S    EENTRO =         0.00000000
  eigenvalues    EBANDS =    -10853.70914112
  atomic energy  EATOM  =    114020.06510763
  Solvation  Ediel_sol  =         0.00000000
  ---------------------------------------------------
  free energy    TOTEN  =      -327.46463274 eV

  energy without entropy =     -327.46463274  energy(sigma->0) =     -327.46463274


--------------------------------------------------------------------------------------------------------




--------------------------------------- Iteration      1(  10)  ---------------------------------------


    POTLOK:  cpu time    0.1207: real time    0.1217
    SETDIJ:  cpu time    0.0126: real time    0.0126
     EDDAV:  cpu time  159.0200: real time  160.0365
 BZINTS: Fermi energy:  4.992062;688.000000 electrons
         Band energy:***********;  BLOECHL correction:  0.000000
       DOS:  cpu time    0.0028: real time    0.0028
    CHARGE:  cpu time    1.1790: real time    1.1863
    MIXING:  cpu time    0.0014: real time    0.0014
    --------------------------------------------
      LOOP:  cpu time  160.3364: real time  161.3614

 eigenvalue-minimisations  : 20224
 total energy-change (2. order) : 0.1731532E-06  (-0.1453218E-06)
 number of electron     688.0000359 magnetization       0.0000000
 augmentation part      282.2306405 magnetization       0.0000000

 Broyden mixing:
  rms(total) = 0.55893E-02    rms(broyden)= 0.55893E-02
  rms(prec ) = 0.56052E-02
  weight for this iteration     100.00

 eigenvalues of (default mixing * dielectric matrix)
  average eigenvalue GAMMA=   0.7922
  1.3281  1.3281  0.4803  0.4803  0.3444

 Free energy of the ion-electron system (eV)
  ---------------------------------------------------
  alpha Z        PSCENC =      2361.81940776
  Ewald energy   TEWEN  =    -62546.86054444
  -Hartree energ DENC   =    -42902.07822364
  -exchange      EXHF   =         0.00000000
  -V(xc)+E(xc)   XCENC  =      3286.49421643
  PAW double counting   =    112239.67031827  -115932.89335343
  entropy T*S    EENTRO =         0.00000000
  eigenvalues    EBANDS =    -10853.68156114
  atomic energy  EATOM  =    114020.06510763
  Solvation  Ediel_sol  =         0.00000000
  ---------------------------------------------------
  free energy    TOTEN  =      -327.46463256 eV

  energy without entropy =     -327.46463256  energy(sigma->0) =     -327.46463256


--------------------------------------------------------------------------------------------------------




--------------------------------------- Iteration      1(  11)  ---------------------------------------


    POTLOK:  cpu time    0.1216: real time    0.1225
    SETDIJ:  cpu time    0.0127: real time    0.0127
     EDDAV:  cpu time   75.6717: real time   76.2184
 BZINTS: Fermi energy:  4.987162;688.000000 electrons
         Band energy:***********;  BLOECHL correction:  0.000000
       DOS:  cpu time    0.0028: real time    0.0028
    CHARGE:  cpu time    1.1786: real time    1.1867
    MIXING:  cpu time    0.0014: real time    0.0014
    --------------------------------------------
      LOOP:  cpu time   76.9887: real time   77.5445

 eigenvalue-minimisations  : 13056
 total energy-change (2. order) : 0.7069320E-06  (-0.2231899E-06)
 number of electron     688.0000359 magnetization       0.0000000
 augmentation part      282.2314961 magnetization       0.0000000

 Broyden mixing:
  rms(total) = 0.20536E-02    rms(broyden)= 0.20536E-02
  rms(prec ) = 0.20663E-02
  weight for this iteration     100.00

 eigenvalues of (default mixing * dielectric matrix)
  average eigenvalue GAMMA=   0.9304
  2.1530  1.0782  0.8341  0.3350  0.5911  0.5911

 Free energy of the ion-electron system (eV)
  ---------------------------------------------------
  alpha Z        PSCENC =      2361.81940776
  Ewald energy   TEWEN  =    -62546.86054444
  -Hartree energ DENC   =    -42902.09808128
  -exchange      EXHF   =         0.00000000
  -V(xc)+E(xc)   XCENC  =      3286.49260096
  PAW double counting   =    112233.87734660  -115927.06282217
  entropy T*S    EENTRO =         0.00000000
  eigenvalues    EBANDS =    -10853.69764690
  atomic energy  EATOM  =    114020.06510763
  Solvation  Ediel_sol  =         0.00000000
  ---------------------------------------------------
  free energy    TOTEN  =      -327.46463186 eV

  energy without entropy =     -327.46463186  energy(sigma->0) =     -327.46463186


--------------------------------------------------------------------------------------------------------




--------------------------------------- Iteration      1(  12)  ---------------------------------------


    POTLOK:  cpu time    0.1205: real time    0.1230
    SETDIJ:  cpu time    0.0128: real time    0.0128
     EDDAV:  cpu time  148.3353: real time  149.2963
 BZINTS: Fermi energy:  4.985850;688.000000 electrons
         Band energy:***********;  BLOECHL correction:  0.000000
       DOS:  cpu time    0.0031: real time    0.0031
    CHARGE:  cpu time    1.1803: real time    1.1872
    MIXING:  cpu time    0.0018: real time    0.0018
    --------------------------------------------
      LOOP:  cpu time  149.6537: real time  150.6242

 eigenvalue-minimisations  : 19968
 total energy-change (2. order) : 0.3122841E-06  (-0.1708478E-06)
 number of electron     688.0000359 magnetization       0.0000000
 augmentation part      282.2325342 magnetization       0.0000000

 Broyden mixing:
  rms(total) = 0.51259E-03    rms(broyden)= 0.51258E-03
  rms(prec ) = 0.52352E-03
  weight for this iteration     100.00

 eigenvalues of (default mixing * dielectric matrix)
  average eigenvalue GAMMA=   0.9530
  2.5000  1.0046  1.0046  0.6516  0.6516  0.5219  0.3370

 Free energy of the ion-electron system (eV)
  ---------------------------------------------------
  alpha Z        PSCENC =      2361.81940776
  Ewald energy   TEWEN  =    -62546.86054444
  -Hartree energ DENC   =    -42902.09850024
  -exchange      EXHF   =         0.00000000
  -V(xc)+E(xc)   XCENC  =      3286.49151998
  PAW double counting   =    112229.60178744  -115922.76129728
  entropy T*S    EENTRO =         0.00000000
  eigenvalues    EBANDS =    -10853.72211239
  atomic energy  EATOM  =    114020.06510763
  Solvation  Ediel_sol  =         0.00000000
  ---------------------------------------------------
  free energy    TOTEN  =      -327.46463154 eV

  energy without entropy =     -327.46463154  energy(sigma->0) =     -327.46463154


--------------------------------------------------------------------------------------------------------




--------------------------------------- Iteration      1(  13)  ---------------------------------------


    POTLOK:  cpu time    0.1182: real time    0.1234
    SETDIJ:  cpu time    0.0128: real time    0.0129
     EDDAV:  cpu time   73.4436: real time   73.9739
 BZINTS: Fermi energy:  4.985351;688.000000 electrons
         Band energy:***********;  BLOECHL correction:  0.000000
       DOS:  cpu time    0.0027: real time    0.0027
    CHARGE:  cpu time    1.1797: real time    1.1865
    MIXING:  cpu time    0.0018: real time    0.0018
    --------------------------------------------
      LOOP:  cpu time   74.7589: real time   75.3013

 eigenvalue-minimisations  : 12800
 total energy-change (2. order) :-0.3029709E-07  (-0.1077934E-07)
 number of electron     688.0000359 magnetization       0.0000000
 augmentation part      282.2324955 magnetization       0.0000000

 Broyden mixing:
  rms(total) = 0.48831E-03    rms(broyden)= 0.48831E-03
  rms(prec ) = 0.49343E-03
  weight for this iteration     100.00

 eigenvalues of (default mixing * dielectric matrix)
  average eigenvalue GAMMA=   1.0846
  2.9752  1.4138  1.4138  0.3364  0.7217  0.7217  0.5471  0.5471

 Free energy of the ion-electron system (eV)
  ---------------------------------------------------
  alpha Z        PSCENC =      2361.81940776
  Ewald energy   TEWEN  =    -62546.86054444
  -Hartree energ DENC   =    -42902.09832981
  -exchange      EXHF   =         0.00000000
  -V(xc)+E(xc)   XCENC  =      3286.49155847
  PAW double counting   =    112229.57995437  -115922.74027796
  entropy T*S    EENTRO =         0.00000000
  eigenvalues    EBANDS =    -10853.72150759
  atomic energy  EATOM  =    114020.06510763
  Solvation  Ediel_sol  =         0.00000000
  ---------------------------------------------------
  free energy    TOTEN  =      -327.46463157 eV

  energy without entropy =     -327.46463157  energy(sigma->0) =     -327.46463157


--------------------------------------------------------------------------------------------------------




--------------------------------------- Iteration      1(  14)  ---------------------------------------


    POTLOK:  cpu time    0.1183: real time    0.1217
    SETDIJ:  cpu time    0.0126: real time    0.0127
     EDDAV:  cpu time  106.2938: real time  106.9806
 BZINTS: Fermi energy:  4.984439;688.000000 electrons
         Band energy:***********;  BLOECHL correction:  0.000000
       DOS:  cpu time    0.0028: real time    0.0028
    CHARGE:  cpu time    1.1803: real time    1.1870
    MIXING:  cpu time    0.0017: real time    0.0017
    --------------------------------------------
      LOOP:  cpu time  107.6095: real time  108.3065

 eigenvalue-minimisations  : 13824
 total energy-change (2. order) :-0.5849870E-07  (-0.1425166E-07)
 number of electron     688.0000359 magnetization       0.0000000
 augmentation part      282.2325022 magnetization       0.0000000

 Broyden mixing:
  rms(total) = 0.24432E-03    rms(broyden)= 0.24432E-03
  rms(prec ) = 0.24596E-03
  weight for this iteration     100.00

 eigenvalues of (default mixing * dielectric matrix)
  average eigenvalue GAMMA=   1.1453
  3.4278  1.5622  1.5622  0.8522  0.8522  0.3364  0.5907  0.5907  0.5332

 Free energy of the ion-electron system (eV)
  ---------------------------------------------------
  alpha Z        PSCENC =      2361.81940776
  Ewald energy   TEWEN  =    -62546.86054444
  -Hartree energ DENC   =    -42902.09255313
  -exchange      EXHF   =         0.00000000
  -V(xc)+E(xc)   XCENC  =      3286.49160862
  PAW double counting   =    112229.94823602  -115923.11211560
  entropy T*S    EENTRO =         0.00000000
  eigenvalues    EBANDS =    -10853.72377848
  atomic energy  EATOM  =    114020.06510763
  Solvation  Ediel_sol  =         0.00000000
  ---------------------------------------------------
  free energy    TOTEN  =      -327.46463163 eV

  energy without entropy =     -327.46463163  energy(sigma->0) =     -327.46463163


--------------------------------------------------------------------------------------------------------




--------------------------------------- Iteration      1(  15)  ---------------------------------------


    POTLOK:  cpu time    0.1192: real time    0.1224
    SETDIJ:  cpu time    0.0129: real time    0.0130
     EDDAV:  cpu time   66.0664: real time   66.5439
 BZINTS: Fermi energy:  4.984134;688.000000 electrons
         Band energy:***********;  BLOECHL correction:  0.000000
       DOS:  cpu time    0.0028: real time    0.0028
    CHARGE:  cpu time    1.1805: real time    1.1874
    MIXING:  cpu time    0.0019: real time    0.0019
    --------------------------------------------
      LOOP:  cpu time   67.3837: real time   67.8713

 eigenvalue-minimisations  : 11264
 total energy-change (2. order) :-0.1603621E-07  (-0.2648292E-08)
 number of electron     688.0000359 magnetization       0.0000000
 augmentation part      282.2324779 magnetization       0.0000000

 Broyden mixing:
  rms(total) = 0.19130E-03    rms(broyden)= 0.19130E-03
  rms(prec ) = 0.19222E-03
  weight for this iteration     100.00

 eigenvalues of (default mixing * dielectric matrix)
  average eigenvalue GAMMA=   1.1320
  3.4542  1.6277  1.6277  0.9340  0.9340  0.3364  0.6496  0.6496  0.5532  0.5532

 Free energy of the ion-electron system (eV)
  ---------------------------------------------------
  alpha Z        PSCENC =      2361.81940776
  Ewald energy   TEWEN  =    -62546.86054444
  -Hartree energ DENC   =    -42902.09165858
  -exchange      EXHF   =         0.00000000
  -V(xc)+E(xc)   XCENC  =      3286.49158236
  PAW double counting   =    112230.01286712  -115923.17743802
  entropy T*S    EENTRO =         0.00000000
  eigenvalues    EBANDS =    -10853.72395547
  atomic energy  EATOM  =    114020.06510763
  Solvation  Ediel_sol  =         0.00000000
  ---------------------------------------------------
  free energy    TOTEN  =      -327.46463165 eV

  energy without entropy =     -327.46463165  energy(sigma->0) =     -327.46463165


--------------------------------------------------------------------------------------------------------




--------------------------------------- Iteration      1(  16)  ---------------------------------------


    POTLOK:  cpu time    0.1186: real time    0.1213
    SETDIJ:  cpu time    0.0126: real time    0.0126
     EDDAV:  cpu time   96.0068: real time   96.6270
 BZINTS: Fermi energy:  4.983964;688.000000 electrons
         Band energy:***********;  BLOECHL correction:  0.000000
       DOS:  cpu time    0.0028: real time    0.0028
    CHARGE:  cpu time    1.1776: real time    1.1851
    MIXING:  cpu time    0.0021: real time    0.0028
    --------------------------------------------
      LOOP:  cpu time   97.3204: real time   97.9516

 eigenvalue-minimisations  : 12288
 total energy-change (2. order) :-0.2083834E-07  (-0.3214495E-09)
 number of electron     688.0000359 magnetization       0.0000000
 augmentation part      282.2324422 magnetization       0.0000000

 Broyden mixing:
  rms(total) = 0.14193E-03    rms(broyden)= 0.14193E-03
  rms(prec ) = 0.14234E-03
  weight for this iteration     100.00

 eigenvalues of (default mixing * dielectric matrix)
  average eigenvalue GAMMA=   1.2708
  3.9297  2.0785  2.0785  1.1872  1.1872  0.3364  0.7034  0.7034  0.6132  0.6132
  0.5485

 Free energy of the ion-electron system (eV)
  ---------------------------------------------------
  alpha Z        PSCENC =      2361.81940776
  Ewald energy   TEWEN  =    -62546.86054444
  -Hartree energ DENC   =    -42902.09289846
  -exchange      EXHF   =         0.00000000
  -V(xc)+E(xc)   XCENC  =      3286.49163606
  PAW double counting   =    112230.06724345  -115923.23228051
  entropy T*S    EENTRO =         0.00000000
  eigenvalues    EBANDS =    -10853.72230315
  atomic energy  EATOM  =    114020.06510763
  Solvation  Ediel_sol  =         0.00000000
  ---------------------------------------------------
  free energy    TOTEN  =      -327.46463167 eV

  energy without entropy =     -327.46463167  energy(sigma->0) =     -327.46463167


--------------------------------------------------------------------------------------------------------




--------------------------------------- Iteration      1(  17)  ---------------------------------------


    POTLOK:  cpu time    0.1222: real time    0.1233
    SETDIJ:  cpu time    0.0125: real time    0.0126
     EDDAV:  cpu time   63.8684: real time   64.3158
 BZINTS: Fermi energy:  4.983872;688.000000 electrons
         Band energy:***********;  BLOECHL correction:  0.000000
       DOS:  cpu time    0.0028: real time    0.0028
    CHARGE:  cpu time    1.1776: real time    1.1845
    MIXING:  cpu time    0.0019: real time    0.0019
    --------------------------------------------
      LOOP:  cpu time   65.1854: real time   65.6410

 eigenvalue-minimisations  :  9728
 total energy-change (2. order) :-0.3249443E-07  (-0.9120783E-09)
 number of electron     688.0000359 magnetization       0.0000000
 augmentation part      282.2324053 magnetization       0.0000000

 Broyden mixing:
  rms(total) = 0.36204E-04    rms(broyden)= 0.36203E-04
  rms(prec ) = 0.36338E-04
  weight for this iteration     100.00

 eigenvalues of (default mixing * dielectric matrix)
  average eigenvalue GAMMA=   1.2538
  4.1480  1.9874  1.9874  1.2753  1.2753  0.3364  0.8122  0.8122  0.6244  0.6244
  0.5547  0.6075

 Free energy of the ion-electron system (eV)
  ---------------------------------------------------
  alpha Z        PSCENC =      2361.81940776
  Ewald energy   TEWEN  =    -62546.86054444
  -Hartree energ DENC   =    -42902.09314404
  -exchange      EXHF   =         0.00000000
  -V(xc)+E(xc)   XCENC  =      3286.49170139
  PAW double counting   =    112230.21074965  -115923.37679271
  entropy T*S    EENTRO =         0.00000000
  eigenvalues    EBANDS =    -10853.72111693
  atomic energy  EATOM  =    114020.06510763
  Solvation  Ediel_sol  =         0.00000000
  ---------------------------------------------------
  free energy    TOTEN  =      -327.46463170 eV

  energy without entropy =     -327.46463170  energy(sigma->0) =     -327.46463170


--------------------------------------------------------------------------------------------------------




--------------------------------------- Iteration      1(  18)  ---------------------------------------


    POTLOK:  cpu time    0.1211: real time    0.1220
    SETDIJ:  cpu time    0.0127: real time    0.0128
     EDDAV:  cpu time   76.0284: real time   76.5447
 BZINTS: Fermi energy:  4.983844;688.000000 electrons
         Band energy:***********;  BLOECHL correction:  0.000000
       DOS:  cpu time    0.0028: real time    0.0028
    --------------------------------------------
      LOOP:  cpu time   76.1650: real time   76.6822

 eigenvalue-minimisations  : 10752
 total energy-change (2. order) :-0.1353328E-08  ( 0.3118362E-10)
 number of electron     688.0000359 magnetization       0.0000000
 augmentation part      282.2324053 magnetization       0.0000000

 Free energy of the ion-electron system (eV)
  ---------------------------------------------------
  alpha Z        PSCENC =      2361.81940776
  Ewald energy   TEWEN  =    -62546.86054444
  -Hartree energ DENC   =    -42902.09260589
  -exchange      EXHF   =         0.00000000
  -V(xc)+E(xc)   XCENC  =      3286.49169646
  PAW double counting   =    112230.25037688  -115923.41657159
  entropy T*S    EENTRO =         0.00000000
  eigenvalues    EBANDS =    -10853.72149851
  atomic energy  EATOM  =    114020.06510763
  Solvation  Ediel_sol  =         0.00000000
  ---------------------------------------------------
  free energy    TOTEN  =      -327.46463170 eV

  energy without entropy =     -327.46463170  energy(sigma->0) =     -327.46463170


--------------------------------------------------------------------------------------------------------




 average (electrostatic) potential at core
  the test charge radii are     0.9698  0.8297  0.9500
  (the norm of the test charge is              1.0000)
       1 -86.5913       2 -86.5913       3 -86.5913       4 -86.5913       5 -86.5913
       6 -86.5913       7 -86.5913       8 -86.5913       9 -86.5913      10 -86.5913
      11 -86.5913      12 -86.5913      13 -86.5913      14 -86.5913      15 -86.5913
      16 -86.5913      17 -86.5913      18 -86.5913      19 -86.5913      20 -86.5913
      21 -86.5913      22 -86.5913      23 -86.5913      24 -86.5913      25 -86.5913
      26 -86.5913      27 -86.5913      28 -86.5913      29 -86.5913      30 -86.5913
      31 -86.5913      32 -86.5913      33 -80.6772      34 -80.6772      35 -80.6772
      36 -80.6772      37 -80.6772      38 -80.6772      39 -80.6772      40 -80.6772
      41 -80.6772      42 -80.6772      43 -80.6772      44 -80.6772      45 -80.6772
      46 -80.6772      47 -80.6772      48 -80.6772      49 -80.1897      50 -80.1897
      51 -80.1897      52 -80.1897      53 -80.1897      54 -80.1897      55 -80.1897
      56 -80.1897      57 -80.1897      58 -80.1897      59 -80.1897      60 -80.1897
      61 -80.1897      62 -80.1897      63 -80.1897      64 -80.1897
 
 
 
 E-fermi :   4.9838     XC(G=0): -10.4832     alpha+bet :-10.5717


 spin component 1

 k-point     1 :       0.0000    0.0000    0.0000
  band No.  band energies     occupation 
      1     -64.2896      1.00000
      2     -64.2896      1.00000
      3     -64.2895      1.00000
      4     -64.2895      1.00000
      5     -64.2895      1.00000
      6     -64.2895      1.00000
      7     -64.2895      1.00000
[...]
   -.419E+02 0.609E+00 0.241E+02   0.428E+02 -.580E+00 -.243E+02   -.848E+00 -.278E-01 0.239E+00   -.403E-05 0.515E-06 0.126E-05
   -.419E+02 0.609E+00 0.241E+02   0.428E+02 -.580E+00 -.243E+02   -.848E+00 -.278E-01 0.239E+00   -.403E-05 0.515E-06 0.126E-05
   -.419E+02 0.609E+00 0.241E+02   0.428E+02 -.580E+00 -.243E+02   -.848E+00 -.278E-01 0.239E+00   -.403E-05 0.515E-06 0.126E-05
   -.419E+02 0.609E+00 0.241E+02   0.428E+02 -.580E+00 -.243E+02   -.848E+00 -.278E-01 0.239E+00   -.403E-05 0.515E-06 0.126E-05
   0.419E+02 -.609E+00 0.241E+02   -.428E+02 0.580E+00 -.243E+02   0.848E+00 0.278E-01 0.239E+00   0.403E-05 -.515E-06 0.126E-05
   0.419E+02 -.609E+00 0.241E+02   -.428E+02 0.580E+00 -.243E+02   0.848E+00 0.278E-01 0.239E+00   0.403E-05 -.515E-06 0.126E-05
   0.419E+02 -.609E+00 0.241E+02   -.428E+02 0.580E+00 -.243E+02   0.848E+00 0.278E-01 0.239E+00   0.403E-05 -.515E-06 0.126E-05
   0.419E+02 -.609E+00 0.241E+02   -.428E+02 0.580E+00 -.243E+02   0.848E+00 0.278E-01 0.239E+00   0.403E-05 -.515E-06 0.126E-05
   0.609E+00 -.419E+02 0.241E+02   -.580E+00 0.428E+02 -.243E+02   -.278E-01 -.848E+00 0.239E+00   0.515E-06 -.403E-05 0.126E-05
   0.609E+00 -.419E+02 0.241E+02   -.580E+00 0.428E+02 -.243E+02   -.278E-01 -.848E+00 0.239E+00   0.515E-06 -.403E-05 0.126E-05
   0.609E+00 -.419E+02 0.241E+02   -.580E+00 0.428E+02 -.243E+02   -.278E-01 -.848E+00 0.239E+00   0.515E-06 -.403E-05 0.126E-05
   0.609E+00 -.419E+02 0.241E+02   -.580E+00 0.428E+02 -.243E+02   -.278E-01 -.848E+00 0.239E+00   0.515E-06 -.403E-05 0.126E-05
   -.609E+00 0.419E+02 0.241E+02   0.580E+00 -.428E+02 -.243E+02   0.278E-01 0.848E+00 0.239E+00   -.515E-06 0.403E-05 0.126E-05
   -.609E+00 0.419E+02 0.241E+02   0.580E+00 -.428E+02 -.243E+02   0.278E-01 0.848E+00 0.239E+00   -.515E-06 0.403E-05 0.126E-05
   -.609E+00 0.419E+02 0.241E+02   0.580E+00 -.428E+02 -.243E+02   0.278E-01 0.848E+00 0.239E+00   -.515E-06 0.403E-05 0.126E-05
   -.609E+00 0.419E+02 0.241E+02   0.580E+00 -.428E+02 -.243E+02   0.278E-01 0.848E+00 0.239E+00   -.515E-06 0.403E-05 0.126E-05
   -.108E-06 -.667E-07 -.283E+02   -.178E-14 -.306E-12 0.271E+02   0.315E-25 -.129E-25 0.114E+01   0.238E-11 -.142E-11 -.378E-05
   -.108E-06 -.667E-07 -.283E+02   -.178E-14 -.369E-12 0.271E+02   -.574E-25 -.775E-25 0.114E+01   -.295E-11 -.133E-11 -.378E-05
   -.108E-06 -.666E-07 -.283E+02   -.178E-14 -.320E-12 0.271E+02   -.727E-26 -.258E-25 0.114E+01   0.172E-11 0.146E-11 -.378E-05
   -.108E-06 -.667E-07 -.283E+02   -.586E-13 -.313E-12 0.271E+02   0.654E-25 0.000E+00 0.114E+01   -.251E-11 0.160E-11 -.378E-05
   -.666E-07 -.108E-06 -.283E+02   -.171E-12 -.284E-12 0.271E+02   0.359E-25 -.129E-25 0.114E+01   -.109E-11 -.529E-12 -.378E-05
   -.666E-07 -.108E-06 -.283E+02   -.114E-12 -.284E-12 0.271E+02   0.626E-25 0.258E-25 0.114E+01   0.549E-12 -.106E-11 -.378E-05
   -.666E-07 -.108E-06 -.283E+02   -.199E-12 -.284E-12 0.271E+02   0.343E-26 0.582E-25 0.114E+01   -.192E-11 0.914E-12 -.378E-05
   -.666E-07 -.108E-06 -.283E+02   -.171E-12 -.341E-12 0.271E+02   0.469E-25 0.388E-25 0.114E+01   0.116E-11 0.151E-11 -.378E-05
   -.108E-06 -.667E-07 -.283E+02   -.142E-13 -.152E-12 0.271E+02   -.578E-25 0.646E-26 0.114E+01   -.505E-12 -.294E-13 -.378E-05
   -.108E-06 -.667E-07 -.283E+02   -.142E-13 -.879E-13 0.271E+02   -.598E-25 -.517E-25 0.114E+01   -.366E-12 0.121E-12 -.378E-05
   -.108E-06 -.666E-07 -.283E+02   -.284E-13 -.213E-13 0.271E+02   -.105E-25 0.000E+00 0.114E+01   -.750E-12 -.314E-13 -.378E-05
   -.108E-06 -.666E-07 -.283E+02   -.284E-13 -.853E-13 0.271E+02   0.147E-25 0.323E-25 0.114E+01   -.143E-12 0.237E-12 -.378E-05
   -.667E-07 -.108E-06 -.283E+02   -.252E-12 -.951E-14 0.271E+02   -.359E-25 0.142E-24 0.114E+01   0.276E-12 0.956E-12 -.378E-05
   -.666E-07 -.108E-06 -.283E+02   -.164E-12 -.963E-14 0.271E+02   -.812E-25 0.000E+00 0.114E+01   -.834E-12 0.687E-13 -.378E-05
   -.667E-07 -.108E-06 -.283E+02   -.145E-12 -.727E-14 0.271E+02   -.178E-25 -.905E-25 0.114E+01   -.850E-12 -.539E-12 -.378E-05
   -.666E-07 -.108E-06 -.283E+02   -.200E-12 -.642E-13 0.271E+02   0.166E-25 0.517E-25 0.114E+01   0.396E-12 0.444E-12 -.378E-05
   -.112E-07 0.101E-07 -.229E+02   0.124E-13 -.107E-13 0.216E+02   0.176E-25 -.323E-25 0.135E+01   -.233E-11 -.110E-11 -.116E-05
   -.112E-07 0.101E-07 -.229E+02   -.302E-13 -.142E-13 0.216E+02   0.142E-24 -.116E-24 0.135E+01   0.213E-11 -.896E-12 -.116E-05
   -.112E-07 0.101E-07 -.229E+02   -.231E-13 -.604E-13 0.216E+02   0.969E-25 0.258E-25 0.135E+01   -.225E-11 0.113E-11 -.116E-05
   -.112E-07 0.101E-07 -.229E+02   -.373E-13 -.568E-13 0.216E+02   -.852E-25 -.646E-25 0.135E+01   0.190E-11 0.914E-12 -.116E-05
   0.101E-07 -.112E-07 -.229E+02   0.355E-14 0.711E-13 0.216E+02   0.743E-25 0.258E-25 0.135E+01   0.114E-11 -.107E-11 -.116E-05
   0.101E-07 -.112E-07 -.229E+02   -.711E-14 0.142E-13 0.216E+02   -.178E-25 0.000E+00 0.135E+01   -.160E-11 -.186E-11 -.116E-05
   0.101E-07 -.112E-07 -.229E+02   -.320E-13 0.995E-13 0.216E+02   0.315E-25 0.116E-24 0.135E+01   0.256E-12 0.675E-12 -.116E-05
   0.101E-07 -.112E-07 -.229E+02   -.142E-13 0.156E-12 0.216E+02   0.307E-25 -.116E-24 0.135E+01   -.100E-11 0.177E-11 -.116E-05
   -.112E-07 0.101E-07 -.229E+02   0.213E-13 -.111E-12 0.216E+02   -.420E-25 0.000E+00 0.135E+01   0.217E-13 0.451E-12 -.116E-05
   -.112E-07 0.101E-07 -.229E+02   -.711E-14 -.107E-12 0.216E+02   -.137E-24 -.129E-25 0.135E+01   -.453E-12 0.815E-12 -.116E-05
   -.112E-07 0.101E-07 -.229E+02   0.000E+00 -.933E-13 0.216E+02   -.137E-24 0.000E+00 0.135E+01   0.666E-13 -.475E-12 -.116E-05
   -.112E-07 0.100E-07 -.229E+02   0.284E-13 -.968E-13 0.216E+02   -.284E-24 -.194E-25 0.135E+01   -.364E-12 -.905E-12 -.116E-05
   0.101E-07 -.112E-07 -.229E+02   0.121E-13 0.399E-13 0.216E+02   -.430E-25 -.323E-26 0.135E+01   -.154E-12 0.646E-12 -.116E-05
   0.101E-07 -.112E-07 -.229E+02   0.285E-14 0.394E-13 0.216E+02   -.572E-25 -.452E-25 0.135E+01   -.258E-12 0.113E-12 -.116E-05
   0.101E-07 -.112E-07 -.229E+02   0.187E-13 0.938E-13 0.216E+02   -.662E-25 -.517E-25 0.135E+01   -.559E-12 -.778E-12 -.116E-05
   0.101E-07 -.112E-07 -.229E+02   0.950E-14 -.204E-13 0.216E+02   0.567E-25 0.711E-25 0.135E+01   0.173E-12 -.294E-12 -.116E-05
 -----------------------------------------------------------------------------------------------
   -.113E-05 -.113E-05 -.476E+02   -.493E-13 -.817E-13 -.739E-12   -.133E-14 -.122E-14 0.476E+02   -.929E-11 0.130E-11 -.386E-04
 
 
 POSITION                                       TOTAL-FORCE (eV/Angst)
 -----------------------------------------------------------------------------------
      1.37563      1.36905      1.25862         0.000261     -0.000592     -0.001242
      6.62459      1.57527      1.25862         0.000261     -0.000592     -0.001242
      1.58184      6.61801      1.25862         0.000261     -0.000592     -0.001242
      6.83081      6.82423      1.25862         0.000261     -0.000592     -0.001242
      4.07956      4.08613      1.25862        -0.000261      0.000592     -0.001242
      9.32852      4.29235      1.25862        -0.000261      0.000592     -0.001242
      4.28577      9.33510      1.25862        -0.000261      0.000592     -0.001242
      9.53474      9.54131      1.25862        -0.000261      0.000592     -0.001242
      1.46165      3.97645      9.08267         0.000592     -0.000261     -0.001242
      6.71061      4.18266      9.08267         0.000592     -0.000261     -0.001242
      1.66787      9.22541      9.08267         0.000592     -0.000261     -0.001242
      6.91683      9.43163      9.08267         0.000592     -0.000261     -0.001242
      3.99353      1.47874      9.08267        -0.000592      0.000261     -0.001242
      9.24250      1.68495      9.08267        -0.000592      0.000261     -0.001242
      4.19975      6.72770      9.08267        -0.000592      0.000261     -0.001242
      9.44871      6.93392      9.08267        -0.000592      0.000261     -0.001242
      1.35196      1.35854      6.47466        -0.000261      0.000592     -0.001242
      6.60093      1.56476      6.47466        -0.000261      0.000592     -0.001242
      1.55818      6.60750      6.47466        -0.000261      0.000592     -0.001242
      6.80715      6.81372      6.47466        -0.000261      0.000592     -0.001242
      4.10322      4.09664      6.47466         0.000261     -0.000592     -0.001242
      9.35218      4.30286      6.47466         0.000261     -0.000592     -0.001242
      4.30944      9.34561      6.47466         0.000261     -0.000592     -0.001242
      9.55840      9.55182      6.47466         0.000261     -0.000592     -0.001242
      3.98302      1.45507      3.86664         0.000592     -0.000261     -0.001242
      9.23199      1.66129      3.86664         0.000592     -0.000261     -0.001242
      4.18924      6.70404      3.86664         0.000592     -0.000261     -0.001242
      9.43820      6.91026      3.86664         0.000592     -0.000261     -0.001242
      1.47216      4.00011      3.86664        -0.000592      0.000261     -0.001242
      6.72112      4.20633      3.86664        -0.000592      0.000261     -0.001242
      1.67838      9.24907      3.86664        -0.000592      0.000261     -0.001242
      6.92734      9.45529      3.86664        -0.000592      0.000261     -0.001242
      0.00000      0.00000      5.25542         0.000000     -0.000000      0.000697
      5.24896      0.20622      5.25542         0.000000     -0.000000      0.000697
      0.20622      5.24896      5.25542         0.000000     -0.000000      0.000697
      5.45518      5.45518      5.25542         0.000000     -0.000000      0.000697
      2.62448      0.10311      2.64740         0.000000     -0.000000      0.000697
      7.87345      0.30933      2.64740         0.000000     -0.000000      0.000697
      2.83070      5.35207      2.64740         0.000000     -0.000000      0.000697
      8.07966      5.55829      2.64740         0.000000     -0.000000      0.000697
      2.72759      2.72759      0.03938         0.000000     -0.000000      0.000697
      7.97655      2.93381      0.03938         0.000000     -0.000000      0.000697
      2.93381      7.97655      0.03938         0.000000     -0.000000      0.000697
      8.18277      8.18277      0.03938         0.000000     -0.000000      0.000697
      0.10311      2.62448      7.86344         0.000000     -0.000000      0.000697
      5.35207      2.83070      7.86344         0.000000     -0.000000      0.000697
      0.30933      7.87345      7.86344         0.000000     -0.000000      0.000697
      5.55829      8.07966      7.86344         0.000000     -0.000000      0.000697
      0.00000      0.00000      0.05141         0.000000     -0.000000      0.001787
      5.24896      0.20622      0.05141         0.000000     -0.000000      0.001787
      0.20622      5.24896      0.05141         0.000000     -0.000000      0.001787
      5.45518      5.45518      0.05141         0.000000     -0.000000      0.001787
      2.62448      0.10311      7.87546         0.000000     -0.000000      0.001787
      7.87345      0.30933      7.87546         0.000000     -0.000000      0.001787
      2.83070      5.35207      7.87546         0.000000     -0.000000      0.001787
      8.07966      5.55829      7.87546         0.000000     -0.000000      0.001787
      2.72759      2.72759      5.26745         0.000000     -0.000000      0.001787
      7.97655      2.93381      5.26745         0.000000     -0.000000      0.001787
      2.93381      7.97655      5.26745         0.000000     -0.000000      0.001787
      8.18277      8.18277      5.26745         0.000000     -0.000000      0.001787
      0.10311      2.62448      2.65943         0.000000     -0.000000      0.001787
      5.35207      2.83070      2.65943         0.000000     -0.000000      0.001787
      0.30933      7.87345      2.65943         0.000000     -0.000000      0.001787
      5.55829      8.07966      2.65943         0.000000     -0.000000      0.001787
 -----------------------------------------------------------------------------------
    total drift:                               -0.000001     -0.000001      0.031836


--------------------------------------------------------------------------------------------------------



  FREE ENERGIE OF THE ION-ELECTRON SYSTEM (eV)
  ---------------------------------------------------
  free  energy   TOTEN  =      -327.46463170 eV

  energy  without entropy=     -327.46463170  energy(sigma->0) =     -327.46463170
 


--------------------------------------------------------------------------------------------------------


    POTLOK:  cpu time    0.1322: real time    0.1328


--------------------------------------------------------------------------------------------------------


 writing wavefunctions
     LOOP+:  cpu time 1898.8307: real time 1911.9804
    4ORBIT:  cpu time    0.0000: real time    0.0000
 


 total charge     
 
# of ion       s       p       d       tot
------------------------------------------
    1        1.314   2.408   0.000   3.722
    2        1.314   2.408   0.000   3.722
    3        1.314   2.408   0.000   3.722
    4        1.314   2.408   0.000   3.722
    5        1.314   2.408   0.000   3.722
    6        1.314   2.408   0.000   3.722
    7        1.314   2.408   0.000   3.722
    8        1.314   2.408   0.000   3.722
    9        1.314   2.409   0.000   3.723
   10        1.314   2.409   0.000   3.723
   11        1.314   2.409   0.000   3.723
   12        1.314   2.409   0.000   3.723
   13        1.314   2.409   0.000   3.723
   14        1.314   2.409   0.000   3.723
   15        1.314   2.409   0.000   3.723
   16        1.314   2.409   0.000   3.723
   17        1.314   2.408   0.000   3.722
   18        1.314   2.408   0.000   3.722
   19        1.314   2.408   0.000   3.722
   20        1.314   2.408   0.000   3.722
   21        1.314   2.408   0.000   3.722
   22        1.314   2.408   0.000   3.722
   23        1.314   2.408   0.000   3.722
   24        1.314   2.408   0.000   3.722
   25        1.314   2.409   0.000   3.723
   26        1.314   2.409   0.000   3.723
   27        1.314   2.409   0.000   3.723
   28        1.314   2.409   0.000   3.723
   29        1.314   2.409   0.000   3.723
   30        1.314   2.409   0.000   3.723
   31        1.314   2.409   0.000   3.723
   32        1.314   2.409   0.000   3.723
   33        0.259   6.202   8.916  15.377
   34        0.259   6.202   8.916  15.377
   35        0.259   6.202   8.916  15.377
   36        0.259   6.202   8.916  15.377
   37        0.259   6.202   8.917  15.377
   38        0.259   6.202   8.917  15.377
   39        0.259   6.202   8.917  15.377
   40        0.259   6.202   8.917  15.377
   41        0.259   6.202   8.916  15.377
   42        0.259   6.202   8.916  15.377
   43        0.259   6.202   8.916  15.377
   44        0.259   6.202   8.916  15.377
   45        0.259   6.202   8.917  15.377
   46        0.259   6.202   8.917  15.377
   47        0.259   6.202   8.917  15.377
   48        0.259   6.202   8.917  15.377
   49        0.349   6.349   5.821  12.518
   50        0.349   6.349   5.821  12.518
   51        0.349   6.349   5.821  12.518
   52        0.349   6.349   5.821  12.518
   53        0.349   6.348   5.821  12.519
   54        0.349   6.348   5.821  12.519
   55        0.349   6.348   5.821  12.519
   56        0.349   6.348   5.821  12.519
   57        0.349   6.349   5.821  12.518
   58        0.349   6.349   5.821  12.518
   59        0.349   6.349   5.821  12.518
   60        0.349   6.349   5.821  12.518
   61        0.349   6.348   5.821  12.519
   62        0.349   6.348   5.821  12.519
   63        0.349   6.348   5.821  12.519
   64        0.349   6.348   5.821  12.519
--------------------------------------------------
tot         51.776 277.872 235.801 565.449
 


 magnetization (x)
 
# of ion       s       p       d       tot
------------------------------------------
    1       -0.001  -0.019   0.000  -0.020
    2       -0.001  -0.019   0.000  -0.020
    3       -0.001  -0.019   0.000  -0.020
    4       -0.001  -0.019   0.000  -0.020
    5       -0.001  -0.019   0.000  -0.020
    6       -0.001  -0.019   0.000  -0.020
    7       -0.001  -0.019   0.000  -0.020
    8       -0.001  -0.019   0.000  -0.020
    9        0.001   0.019   0.000   0.020
   10        0.001   0.019   0.000   0.020
   11        0.001   0.019   0.000   0.020
   12        0.001   0.019   0.000   0.020
   13        0.001   0.019   0.000   0.020
   14        0.001   0.019   0.000   0.020
   15        0.001   0.019   0.000   0.020
   16        0.001   0.019   0.000   0.020
   17       -0.001  -0.019   0.000  -0.020
   18       -0.001  -0.019   0.000  -0.020
   19       -0.001  -0.019   0.000  -0.020
   20       -0.001  -0.019   0.000  -0.020
   21       -0.001  -0.019   0.000  -0.020
   22       -0.001  -0.019   0.000  -0.020
   23       -0.001  -0.019   0.000  -0.020
   24       -0.001  -0.019   0.000  -0.020
   25        0.001   0.019   0.000   0.020
   26        0.001   0.019   0.000   0.020
   27        0.001   0.019   0.000   0.020
   28        0.001   0.019   0.000   0.020
   29        0.001   0.019   0.000   0.020
   30        0.001   0.019   0.000   0.020
   31        0.001   0.019   0.000   0.020
   32        0.001   0.019   0.000   0.020
   33        0.000  -0.000   0.001   0.002
   34        0.000  -0.000   0.001   0.002
   35        0.000  -0.000   0.001   0.002
   36        0.000  -0.000   0.001   0.002
   37       -0.000   0.000  -0.002  -0.002
   38       -0.000   0.000  -0.002  -0.002
   39       -0.000   0.000  -0.002  -0.002
   40       -0.000   0.000  -0.002  -0.002
   41        0.000  -0.000   0.001   0.002
   42        0.000  -0.000   0.001   0.002
   43        0.000  -0.000   0.001   0.002
   44        0.000  -0.000   0.001   0.002
   45       -0.000   0.000  -0.002  -0.002
   46       -0.000   0.000  -0.002  -0.002
   47       -0.000   0.000  -0.002  -0.002
   48       -0.000   0.000  -0.002  -0.002
   49        0.020   0.053   3.669   3.742
   50        0.020   0.053   3.669   3.742
   51        0.020   0.053   3.669   3.742
   52        0.020   0.053   3.669   3.742
   53       -0.020  -0.053  -3.669  -3.742
   54       -0.020  -0.053  -3.669  -3.742
   55       -0.020  -0.053  -3.669  -3.742
   56       -0.020  -0.053  -3.669  -3.742
   57        0.020   0.053   3.669   3.742
   58        0.020   0.053   3.669   3.742
   59        0.020   0.053   3.669   3.742
   60        0.020   0.053   3.669   3.742
   61       -0.020  -0.053  -3.669  -3.742
   62       -0.020  -0.053  -3.669  -3.742
   63       -0.020  -0.053  -3.669  -3.742
   64       -0.020  -0.053  -3.669  -3.742
--------------------------------------------------
tot         -0.002   0.002  -0.001  -0.001
 
 BZINTS: Fermi energy:  4.983844;688.000000 electrons
         Band energy:***********;  BLOECHL correction:  0.000000

 total amount of memory used by VASP MPI-rank0   300225. kBytes
=======================================================================

   base      :      30000. kBytes
   nonl-proj :     174956. kBytes
   fftplans  :       4588. kBytes
   grid      :      69719. kBytes
   one-center:       1990. kBytes
   wavefun   :      18972. kBytes
 
  
  
 General timing and accounting informations for this job:
 ========================================================
  
                  Total CPU time used (sec):     1948.960
                            User time (sec):     1939.074
                          System time (sec):        9.887
                         Elapsed time (sec):     1963.681
  
                   Maximum memory used (kb):      661796.
                   Average memory used (kb):           0.
  
                          Minor page faults:       418439
                          Major page faults:         5853
                 Voluntary context switches:         7299
