       N       E                     dE             d eps       ncg     rms          rms(c)
DAV:   1     0.598712816372E+04    0.59871E+04   -0.51978E+05 12288   0.197E+03
DAV:   2    -0.150502200764E+03   -0.61376E+04   -0.60330E+04 13568   0.448E+02
DAV:   3    -0.397174820256E+03   -0.24667E+03   -0.24595E+03 17152   0.973E+01
DAV:   4    -0.400580506158E+03   -0.34057E+01   -0.34055E+01 14848   0.115E+01
DAV:   5    -0.400689184761E+03   -0.10868E+00   -0.10868E+00 15872   0.202E+00    0.680E+01
DAV:   6    -0.346678165886E+03    0.54011E+02   -0.91209E+01 16128   0.264E+01    0.410E+01
DAV:   7    -0.334266856735E+03    0.12411E+02   -0.79696E+01 16640   0.321E+01    0.415E+01
DAV:   8    -0.329521368032E+03    0.47455E+01   -0.82386E+01 16640   0.218E+01    0.169E+01
DAV:   9    -0.328051629431E+03    0.14697E+01   -0.21901E+01 16128   0.159E+01    0.973E+00
DAV:  10    -0.327928107380E+03    0.12352E+00   -0.52702E+00 16128   0.518E+00    0.433E+00
DAV:  11    -0.328015927893E+03   -0.87821E-01   -0.71060E-01 17408   0.182E+00    0.205E+00
DAV:  12    -0.328073773337E+03   -0.57845E-01   -0.19692E-01 16384   0.797E-01    0.105E+00
DAV:  13    -0.328089404418E+03   -0.15631E-01   -0.61075E-02 16896   0.537E-01    0.513E-01
DAV:  14    -0.328096966342E+03   -0.75619E-02   -0.17654E-02 13824   0.154E-01    0.310E-01
DAV:  15    -0.328101356026E+03   -0.43897E-02   -0.14177E-02 16384   0.134E-01    0.158E-01
DAV:  16    -0.328102691110E+03   -0.13351E-02   -0.42288E-03 13824   0.765E-02    0.106E-01
DAV:  17    -0.328103322661E+03   -0.63155E-03   -0.28363E-03 16384   0.497E-02    0.720E-02
DAV:  18    -0.328103461603E+03   -0.13894E-03   -0.10528E-03 14848   0.398E-02    0.278E-02
DAV:  19    -0.328103473958E+03   -0.12354E-04   -0.79296E-05 14848   0.125E-02    0.208E-02
DAV:  20    -0.328103478184E+03   -0.42263E-05   -0.23274E-05 16896   0.547E-03    0.104E-02
DAV:  21    -0.328103479603E+03   -0.14194E-05   -0.83466E-06 15616   0.352E-03    0.473E-03
DAV:  22    -0.328103479607E+03   -0.42492E-08   -0.68733E-07 14336   0.147E-03    0.337E-03
DAV:  23    -0.328103479619E+03   -0.11976E-07   -0.10608E-07 17408   0.456E-04    0.186E-03
DAV:  24    -0.328103479664E+03   -0.44864E-07   -0.58413E-08 11520   0.287E-04    0.484E-04
DAV:  25    -0.328103479676E+03   -0.11249E-07   -0.57141E-08 12288   0.260E-04    0.477E-04
DAV:  26    -0.328103479680E+03   -0.49622E-08   -0.51766E-09  9472   0.112E-04
   1 F= -.32810348E+03 E0= -.32810348E+03  d E =0.000000E+00  mag=    -0.0000
