 vasp.5.4.4.18Apr17-6-g9f103f2a35 (build Oct 30 2023 17:30:16) complex          
  
 executed on             LinuxIFC date 2024.06.29  00:53:16
 running on  256 total cores
 distrk:  each k-point on  256 cores,    1 groups
 distr:  one band on NCORES_PER_BAND=   1 cores,  256 groups


--------------------------------------------------------------------------------------------------------


 INCAR:
 POTCAR:    PAW_PBE S 06Sep2000                   
 POTCAR:     PAW_PBE Cu_pv 06Sep2000              
 POTCAR:     PAW_PBE Fe_pv 02Aug2007              

 ----------------------------------------------------------------------------- 
|                                                                             |
|           W    W    AA    RRRRR   N    N  II  N    N   GGGG   !!!           |
|           W    W   A  A   R    R  NN   N  II  NN   N  G    G  !!!           |
|           W    W  A    A  R    R  N N  N  II  N N  N  G       !!!           |
|           W WW W  AAAAAA  RRRRR   N  N N  II  N  N N  G  GGG   !            |
|           WW  WW  A    A  R   R   N   NN  II  N   NN  G    G                |
|           W    W  A    A  R    R  N    N  II  N    N   GGGG   !!!           |
|                                                                             |
|      For optimal performance we recommend to set                            |
|        NCORE= 4 - approx SQRT( number of cores)                             |
|      NCORE specifies how many cores store one orbital (NPAR=cpu/NCORE).     |
|      This setting can  greatly improve the performance of VASP for DFT.     |
|      The default,   NCORE=1            might be grossly inefficient         |
|      on modern multi-core architectures or massively parallel machines.     |
|      Do your own testing !!!!                                               |
|      Unfortunately you need to use the default for GW and RPA calculations. |
|      (for HF NCORE is supported but not extensively tested yet)             |
|                                                                             |
 ----------------------------------------------------------------------------- 

 POTCAR:    PAW_PBE S 06Sep2000                   
   SHA256 =  0fc7481fb0695f01bdc6462160264c5c84044ae9ec85a907d398b887a2bc3132 S/
   COPYR  = (c) Copyright 06Sep2000 Georg Kresse                                
   COPYR  = This file is part of the software VASP. Any use, copying, and all ot
   COPYR  = If you do not have a valid VASP license, you may not use, copy or di
   VRHFIN =S : s2p4                                                             
   LEXCH  = PE                                                                  
   EATOM  =   276.8230 eV,   20.3459 Ry                                         
                                                                                
   TITEL  = PAW_PBE S 06Sep2000                                                 
   LULTRA =        F    use ultrasoft PP ?                                      
   IUNSCR =        1    unscreen: 0-lin 1-nonlin 2-no                           
   RPACOR =    1.500    partial core radius                                     
   POMASS =   32.066; ZVAL   =    6.000    mass and valenz                      
   RCORE  =    1.900    outmost cutoff radius                                   
   RWIGS  =    2.200; RWIGS  =    1.164    wigner-seitz radius (au A)           
   ENMAX  =  258.689; ENMIN  =  194.016 eV                                      
   ICORE  =        2    local potential                                         
   LCOR   =        T    correct aug charges                                     
   LPAW   =        T    paw PP                                                  
   EAUG   =  335.092                                                            
   DEXC   =    0.000                                                            
   RMAX   =    1.942    core radius for proj-oper                               
   RAUG   =    1.300    factor for augmentation sphere                          
   RDEP   =    1.954    radius for radial grids                                 
   RDEPT  =    1.744    core radius for aug-charge                              
                                                                                
   Atomic configuration                                                         
    6 entries                                                                   
     n  l   j            E        occ.                                          
     1  0  0.50     -2405.8406   2.0000                                         
     2  0  0.50      -211.7007   2.0000                                         
     2  1  1.50      -156.4958   6.0000                                         
     3  0  0.50       -17.2562   2.0000                                         
     3  1  0.50        -7.0085   4.0000                                         
     3  2  1.50        -6.8029   0.0000                                         
   Description                                                                  
     l       E           TYP  RCUT    TYP  RCUT                                 
     0    -17.2561641     23  1.900                                             
     0    -15.8743224     23  1.900                                             
     1     -7.0085400     23  1.900                                             
     1     -2.7779785     23  1.900                                             
     2     -6.8029130     23  1.900                                             
  local pseudopotential read in
  partial core-charges read in
  partial kinetic energy density read in
  atomic valenz-charges read in
  non local Contribution for L=           0  read in
    real space projection operators read in
  non local Contribution for L=           0  read in
    real space projection operators read in
  non local Contribution for L=           1  read in
    real space projection operators read in
  non local Contribution for L=           1  read in
    real space projection operators read in
    PAW grid and wavefunctions read in
 
   number of l-projection  operators is LMAX  =           4
   number of lm-projection operators is LMMAX =           8
 
 POTCAR:     PAW_PBE Cu_pv 06Sep2000              
   SHA256 =  cb7b504e2ea725fe1f25c85a9ac77d4012ce94cd394135b722c4e25ec297f1cb Cu
   COPYR  = (c) Copyright 06Sep2000 Georg Kresse                                
   COPYR  = This file is part of the software VASP. Any use, copying, and all ot
   COPYR  = If you do not have a valid VASP license, you may not use, copy or di
   VRHFIN =Cu: d10 p1                                                           
   LEXCH  = PE                                                                  
   EATOM  =  4120.1201 eV,  302.8203 Ry                                         
                                                                                
   TITEL  = PAW_PBE Cu_pv 06Sep2000                                             
   LULTRA =        F    use ultrasoft PP ?                                      
   IUNSCR =        1    unscreen: 0-lin 1-nonlin 2-no                           
   RPACOR =    1.500    partial core radius                                     
   POMASS =   63.546; ZVAL   =   17.000    mass and valenz                      
   RCORE  =    2.000    outmost cutoff radius                                   
   RWIGS  =    2.000; RWIGS  =    1.058    wigner-seitz radius (au A)           
   ENMAX  =  368.648; ENMIN  =  276.486 eV                                      
   RCLOC  =    1.304    cutoff for local pot                                    
   LCOR   =        T    correct aug charges                                     
   LPAW   =        T    paw PP                                                  
   EAUG   =  758.233                                                            
   DEXC   =    0.000                                                            
   RMAX   =    2.046    core radius for proj-oper                               
   RAUG   =    1.300    factor for augmentation sphere                          
   RDEP   =    2.025    radius for radial grids                                 
   RDEPT  =    1.558    core radius for aug-charge                              
                                                                                
   Atomic configuration                                                         
    8 entries                                                                   
     n  l   j            E        occ.                                          
     1  0  0.50     -8850.2467   2.0000                                         
     2  0  0.50     -1062.3498   2.0000                                         
     2  1  1.50      -916.8226   6.0000                                         
     3  0  0.50      -114.6929   2.0000                                         
     3  1  1.50       -72.1325   6.0000                                         
     3  2  2.50        -5.0394  10.0000                                         
     4  0  0.50        -4.6097   1.0000                                         
     4  3  2.50        -1.3606   0.0000                                         
   Description                                                                  
     l       E           TYP  RCUT    TYP  RCUT                                 
     1    -72.1324777     23  1.700                                             
     1     -1.3605826     23  1.700                                             
     2     -5.0393776     23  2.000                                             
     2     -6.3999602     23  2.000                                             
     0     -4.6097062     23  1.800                                             
     0     14.1620818     23  1.800                                             
  local pseudopotential read in
  partial core-charges read in
  partial kinetic energy density read in
  atomic valenz-charges read in
  non local Contribution for L=           1  read in
    real space projection operators read in
  non local Contribution for L=           1  read in
    real space projection operators read in
  non local Contribution for L=           2  read in
    real space projection operators read in
  non local Contribution for L=           2  read in
    real space projection operators read in
  non local Contribution for L=           0  read in
    real space projection operators read in
  non local Contribution for L=           0  read in
    real space projection operators read in
    PAW grid and wavefunctions read in
 
   number of l-projection  operators is LMAX  =           6
   number of lm-projection operators is LMMAX =          18
 
 POTCAR:     PAW_PBE Fe_pv 02Aug2007              
   SHA256 =  5d22e414b1f82158bf2c7ecb8b97b28fd0923e48cadc1c3bf74d524558f5dd32 Fe
   COPYR  = (c) Copyright 02Aug2007 Georg Kresse                                
   COPYR  = This file is part of the software VASP. Any use, copying, and all ot
   COPYR  = If you do not have a valid VASP license, you may not use, copy or di
   VRHFIN =Fe:  3pd7s1                                                          
   LEXCH  = PE                                                                  
   EATOM  =  2457.4239 eV,  180.6156 Ry                                         
                                                                                
   TITEL  = PAW_PBE Fe_pv 02Aug2007                                             
   LULTRA =        F    use ultrasoft PP ?                                      
   IUNSCR =        1    unscreen: 0-lin 1-nonlin 2-no                           
   RPACOR =    1.750    partial core radius                                     
   POMASS =   55.847; ZVAL   =   14.000    mass and valenz                      
   RCORE  =    2.200    outmost cutoff radius                                   
   RWIGS  =    2.200; RWIGS  =    1.164    wigner-seitz radius (au A)           
   ENMAX  =  293.238; ENMIN  =  219.928 eV                                      
   ICORE  =        3    local potential                                         
   LCOR   =        T    correct aug charges                                     
   LPAW   =        T    paw PP                                                  
   EAUG   =  578.342                                                            
   DEXC   =    0.000                                                            
   RMAX   =    2.249    core radius for proj-oper                               
   RAUG   =    1.300    factor for augmentation sphere                          
   RDEP   =    2.296    radius for radial grids                                 
   RDEPT  =    1.766    core radius for aug-charge                              
                                                                                
   Atomic configuration                                                         
    8 entries                                                                   
     n  l   j            E        occ.                                          
     1  0  0.50     -6993.8440   2.0000                                         
     2  0  0.50      -814.6047   2.0000                                         
     2  1  1.50      -693.3689   6.0000                                         
     3  0  0.50       -89.4732   2.0000                                         
     3  1  1.50       -55.6373   6.0000                                         
     3  2  2.50        -3.8151   7.0000                                         
     4  0  0.50        -4.2551   1.0000                                         
     4  3  2.50        -1.3606   0.0000                                         
   Description                                                                  
     l       E           TYP  RCUT    TYP  RCUT                                 
     1    -55.6372668     23  2.000                                             
     1     -5.4423304     23  2.000                                             
     2     -3.8151096     23  2.200                                             
     2     -5.1756922     23  2.200                                             
     0     -4.2550951     23  2.200                                             
     0     27.2116520     23  2.200                                             
     3     -1.3605826     23  2.200                                             
  local pseudopotential read in
  partial core-charges read in
  partial kinetic energy density read in
  atomic valenz-charges read in
  non local Contribution for L=           1  read in
    real space projection operators read in
  non local Contribution for L=           1  read in
    real space projection operators read in
  non local Contribution for L=           2  read in
    real space projection operators read in
  non local Contribution for L=           2  read in
    real space projection operators read in
  non local Contribution for L=           0  read in
    real space projection operators read in
  non local Contribution for L=           0  read in
    real space projection operators read in
    PAW grid and wavefunctions read in
 
   number of l-projection  operators is LMAX  =           6
   number of lm-projection operators is LMMAX =          18
 

 ----------------------------------------------------------------------------- 
|                                                                             |
|  ADVICE TO THIS USER RUNNING 'VASP/VAMP'   (HEAR YOUR MASTER'S VOICE ...):  |
|                                                                             |
|      You have a (more or less) 'large supercell' and for larger cells       |
|      it might be more efficient to use real space projection opertators     |
|      So try LREAL= Auto  in the INCAR   file.                               |
|      Mind:          For very  accurate calculation you might also keep the  |
|      reciprocal projection scheme          (i.e. LREAL=.FALSE.)             |
|                                                                             |
 ----------------------------------------------------------------------------- 


 ----------------------------------------------------------------------------- 
|                                                                             |
|  ADVICE TO THIS USER RUNNING 'VASP/VAMP'   (HEAR YOUR MASTER'S VOICE ...):  |
|                                                                             |
|      You enforced a specific xc-type in the INCAR file,                     |
|      a different type was found on the POTCAR file                          |
|          I HOPE YOU KNOW, WHAT YOU ARE  DOING                               |
|                                                                             |
 ----------------------------------------------------------------------------- 

  PAW_PBE S 06Sep2000                   :
 energy of atom  1       EATOM= -276.8230
 kinetic energy error for atom=    0.0007 (will be added to EATOM!!)
   PAW_PBE Cu_pv 06Sep2000              :
 energy of atom  2       EATOM=-4120.1201
 kinetic energy error for atom=    0.0094 (will be added to EATOM!!)
   PAW_PBE Fe_pv 02Aug2007              :
 energy of atom  3       EATOM=-2457.4239
 kinetic energy error for atom=    0.0025 (will be added to EATOM!!)
 
 
 POSCAR: Fe16 Cu16 S32                           
  positions in direct lattice
  No initial velocities read in
 exchange correlation table for  LEXCH =       14
   RHO(1)=    0.500       N(1)  =     2000
   RHO(2)=  100.500       N(2)  =     4000
 


--------------------------------------------------------------------------------------------------------


 ion  position               nearest neighbor table
   1  0.126  0.125  0.124-  37 2.26  41 2.26  61 2.27  49 2.28
   2  0.626  0.125  0.124-  38 2.26  42 2.26  62 2.27  50 2.28
   3  0.126  0.625  0.124-  39 2.26  43 2.26  63 2.27  51 2.28
   4  0.626  0.625  0.124-  40 2.26  44 2.26  64 2.27  52 2.28
   5  0.374  0.375  0.124-  39 2.26  41 2.26  62 2.27  52 2.28
   6  0.874  0.375  0.124-  40 2.26  42 2.26  61 2.27  51 2.28
   7  0.374  0.875  0.124-  37 2.26  43 2.26  64 2.27  50 2.28
   8  0.874  0.875  0.124-  38 2.26  44 2.26  63 2.27  49 2.28
   9  0.125  0.374  0.874-  41 2.26  45 2.26  51 2.27  55 2.28
  10  0.625  0.374  0.874-  42 2.26  46 2.26  52 2.27  56 2.28
  11  0.125  0.874  0.874-  43 2.26  47 2.26  49 2.27  53 2.28
  12  0.625  0.874  0.874-  44 2.26  48 2.26  50 2.27  54 2.28
  13  0.375  0.126  0.874-  41 2.26  46 2.26  50 2.27  53 2.28
  14  0.875  0.126  0.874-  42 2.26  45 2.26  49 2.27  54 2.28
  15  0.375  0.626  0.874-  43 2.26  48 2.26  52 2.27  55 2.28
  16  0.875  0.626  0.874-  44 2.26  47 2.26  51 2.27  56 2.28
  17  0.124  0.125  0.624-  45 2.26  33 2.26  53 2.27  57 2.28
  18  0.624  0.125  0.624-  46 2.26  34 2.26  54 2.27  58 2.28
  19  0.124  0.625  0.624-  47 2.26  35 2.26  55 2.27  59 2.28
  20  0.624  0.625  0.624-  48 2.26  36 2.26  56 2.27  60 2.28
  21  0.376  0.375  0.624-  46 2.26  36 2.26  55 2.27  57 2.28
  22  0.876  0.375  0.624-  45 2.26  35 2.26  56 2.27  58 2.28
  23  0.376  0.875  0.624-  48 2.26  34 2.26  53 2.27  59 2.28
  24  0.876  0.875  0.624-  47 2.26  33 2.26  54 2.27  60 2.28
  25  0.375  0.124  0.374-  34 2.26  37 2.26  57 2.27  62 2.28
  26  0.875  0.124  0.374-  33 2.26  38 2.26  58 2.27  61 2.28
  27  0.375  0.624  0.374-  36 2.26  39 2.26  59 2.27  64 2.28
  28  0.875  0.624  0.374-  35 2.26  40 2.26  60 2.27  63 2.28
  29  0.125  0.376  0.374-  35 2.26  39 2.26  57 2.27  61 2.28
  30  0.625  0.376  0.374-  36 2.26  40 2.26  58 2.27  62 2.28
  31  0.125  0.876  0.374-  33 2.26  37 2.26  59 2.27  63 2.28
  32  0.625  0.876  0.374-  34 2.26  38 2.26  60 2.27  64 2.28
  33  0.000  0.000  0.501-  26 2.26  31 2.26  17 2.26  24 2.26
  34  0.500  0.000  0.501-  25 2.26  32 2.26  18 2.26  23 2.26
  35  0.000  0.500  0.501-  28 2.26  29 2.26  19 2.26  22 2.26
  36  0.500  0.500  0.501-  27 2.26  30 2.26  20 2.26  21 2.26
  37  0.250  0.000  0.251-   1 2.26   7 2.26  25 2.26  31 2.26
  38  0.750  0.000  0.251-   2 2.26   8 2.26  26 2.26  32 2.26
  39  0.250  0.500  0.251-   3 2.26   5 2.26  27 2.26  29 2.26
  40  0.750  0.500  0.251-   4 2.26   6 2.26  28 2.26  30 2.26
  41  0.250  0.250  0.001-   9 2.26  13 2.26   1 2.26   5 2.26
  42  0.750  0.250  0.001-  10 2.26  14 2.26   2 2.26   6 2.26
  43  0.250  0.750  0.001-  11 2.26  15 2.26   3 2.26   7 2.26
  44  0.750  0.750  0.001-  12 2.26  16 2.26   4 2.26   8 2.26
  45  0.000  0.250  0.751-  17 2.26  22 2.26   9 2.26  14 2.26
  46  0.500  0.250  0.751-  18 2.26  21 2.26  10 2.26  13 2.26
  47  0.000  0.750  0.751-  19 2.26  24 2.26  11 2.26  16 2.26
  48  0.500  0.750  0.751-  20 2.26  23 2.26  12 2.26  15 2.26
  49  0.000  0.000  0.001-  11 2.27  14 2.27   1 2.28   8 2.28
  50  0.500  0.000  0.001-  12 2.27  13 2.27   2 2.28   7 2.28
  51  0.000  0.500  0.001-   9 2.27  16 2.27   3 2.28   6 2.28
  52  0.500  0.500  0.001-  10 2.27  15 2.27   4 2.28   5 2.28
  53  0.250  0.000  0.751-  17 2.27  23 2.27  11 2.28  13 2.28
  54  0.750  0.000  0.751-  18 2.27  24 2.27  12 2.28  14 2.28
  55  0.250  0.500  0.751-  19 2.27  21 2.27   9 2.28  15 2.28
  56  0.750  0.500  0.751-  20 2.27  22 2.27  10 2.28  16 2.28
  57  0.250  0.250  0.501-  25 2.27  29 2.27  17 2.28  21 2.28
  58  0.750  0.250  0.501-  26 2.27  30 2.27  18 2.28  22 2.28
  59  0.250  0.750  0.501-  27 2.27  31 2.27  19 2.28  23 2.28
  60  0.750  0.750  0.501-  28 2.27  32 2.27  20 2.28  24 2.28
  61  0.000  0.250  0.251-   1 2.27   6 2.27  26 2.28  29 2.28
  62  0.500  0.250  0.251-   2 2.27   5 2.27  25 2.28  30 2.28
  63  0.000  0.750  0.251-   3 2.27   8 2.27  28 2.28  31 2.28
  64  0.500  0.750  0.251-   4 2.27   7 2.27  27 2.28  32 2.28
 
  LATTYP: Found a base centered orthorhombic cell.
 ALAT       =    14.7635580336
 B/A-ratio  =     1.0140471513
 C/A-ratio  =     0.7054008916
  
  Lattice vectors:
  
 A1 = (  10.5127340000,   0.0733220000,   0.0000000000)
 A2 = (  -0.0733220000, -10.5127340000,   0.0000000000)
 A3 = (   0.0000000000,   0.0000000000, -10.4142270000)


Analysis of symmetry for initial positions (statically):
=====================================================================
 Subroutine PRICEL returns following result:
 
  LATTYP: Found a face centered orthorhombic cell.
 ALAT       =     7.3817790168
 B/A-ratio  =     1.0140471513
 C/A-ratio  =     1.4108017832
  
  Lattice vectors:
  
 A1 = (  -2.6465140000,  -2.6465140000,   5.2071135000)
 A2 = (  -2.6098530000,   2.6098530000,   5.2071135000)
 A3 = (  -5.2563670000,  -0.0366610000,   0.0000000000)
 
   8 primitive cells build up your supercell.
 

 Routine SETGRP: Setting up the symmetry group for a 
 base centered orthorhombic supercell.


 Subroutine GETGRP returns: Found  4 space group operations
 (whereof  2 operations were pure point group operations)
 out of a pool of  8 trial point group operations.


The static configuration has the point symmetry C_2 .
 The point group associated with its full space group is C_2v.


Analysis of symmetry for dynamics (positions and initial velocities):
=====================================================================
 Subroutine PRICEL returns following result:
 
  LATTYP: Found a face centered orthorhombic cell.
 ALAT       =     7.3817790168
 B/A-ratio  =     1.0140471513
 C/A-ratio  =     1.4108017832
  
  Lattice vectors:
  
 A1 = (  -2.6465140000,  -2.6465140000,   5.2071135000)
 A2 = (  -2.6098530000,   2.6098530000,   5.2071135000)
 A3 = (  -5.2563670000,  -0.0366610000,   0.0000000000)
 
   8 primitive cells build up your supercell.
 

 Routine SETGRP: Setting up the symmetry group for a 
 base centered orthorhombic supercell.


 Subroutine GETGRP returns: Found  4 space group operations
 (whereof  2 operations were pure point group operations)
 out of a pool of  8 trial point group operations.


The dynamic configuration has the point symmetry C_2 .
 The point group associated with its full space group is C_2v.


Analysis of structural, dynamic, and magnetic symmetry:
=====================================================================
 Subroutine PRICEL returns following result:
 
  LATTYP: Found a face centered orthorhombic cell.
 ALAT       =     7.3817790168
 B/A-ratio  =     1.0140471513
 C/A-ratio  =     1.4108017832
  
  Lattice vectors:
  
 A1 = (  -2.6465140000,  -2.6465140000,   5.2071135000)
 A2 = (  -2.6098530000,   2.6098530000,   5.2071135000)
 A3 = (  -5.2563670000,  -0.0366610000,   0.0000000000)
 
   8 primitive cells build up your supercell.
 

 Routine SETGRP: Setting up the symmetry group for a 
 base centered orthorhombic supercell.


 Subroutine GETGRP returns: Found  4 space group operations
 (whereof  2 operations were pure point group operations)
 out of a pool of  8 trial point group operations.


The magnetic configuration has the point symmetry C_2 .
 The point group associated with its full space group is C_2v.


 Subroutine INISYM returns: Found  4 space group operations
 (whereof  2 operations are pure point group operations),
 and found     8 'primitive' translations

 
 
 KPOINTS: Automatic mesh                          

Automatic generation of k-mesh.
Space group operators:
 irot       det(A)        alpha          n_x          n_y          n_z        tau_x        tau_y        tau_z
    1     1.000000     0.000001     1.000000     0.000000     0.000000     0.000000     0.000000     0.000000
    2     1.000000   180.000000     0.000000     0.000000     1.000000     0.000000     0.000000     0.000000
    3    -1.000000   179.999999     0.707107     0.707107     0.000000    -0.750000     0.000000     0.750000
    4    -1.000000   179.999999     0.707107    -0.707107     0.000000    -0.750000     0.000000     0.750000
 
 Subroutine IBZKPT returns following result:
 ===========================================
 
 Found      6 irreducible k-points:
 
 Following reciprocal coordinates:
            Coordinates               Weight
  0.000000  0.000000  0.000000      1.000000
  0.500000  0.000000  0.000000      2.000000
  0.500000  0.500000  0.000000      1.000000
  0.000000  0.000000  0.500000      1.000000
  0.500000  0.000000  0.500000      2.000000
  0.500000  0.500000  0.500000      1.000000
 
 Following cartesian coordinates:
            Coordinates               Weight
  0.000000  0.000000  0.000000      1.000000
  0.047564 -0.000332  0.000000      2.000000
  0.047232  0.047232  0.000000      1.000000
  0.000000  0.000000  0.048011      1.000000
  0.047564 -0.000332  0.048011      2.000000
  0.047232  0.047232  0.048011      1.000000
 
 TETIRR: Found     12 inequivalent tetrahedra from       48
 
 Subroutine IBZKPT_HF returns following result:
 ==============================================
 
 Found      8 k-points in 1st BZ
 the following      8 k-points will be used (e.g. in the exchange kernel)
 Following reciprocal coordinates:   # in IRBZ
  0.000000  0.000000  0.000000    0.12500000   1 t-inv F
  0.500000  0.000000  0.000000    0.12500000   2 t-inv F
  0.500000  0.500000  0.000000    0.12500000   3 t-inv F
  0.000000  0.000000  0.500000    0.12500000   4 t-inv F
  0.500000  0.000000  0.500000    0.12500000   5 t-inv F
  0.500000  0.500000  0.500000    0.12500000   6 t-inv F
  0.000000 -0.500000  0.000000    0.12500000   2 t-inv F spinflp
  0.000000 -0.500000  0.500000    0.12500000   5 t-inv F spinflp


--------------------------------------------------------------------------------------------------------




 Dimension of arrays:
   k-points           NKPTS =      6   k-points in BZ     NKDIM =      6   number of bands    NBANDS=    512
   number of dos      NEDOS =    301   number of ions     NIONS =     64
   non local maximal  LDIM  =      6   non local SUM 2l+1 LMDIM =     18
   total plane-waves  NPLWV = 829440
   max r-space proj   IRMAX =      1   max aug-charges    IRDMAX=  22902
   dimension x,y,z NGX =    96 NGY =   96 NGZ =   90
   dimension x,y,z NGXF=   192 NGYF=  192 NGZF=  180
   support grid    NGXF=   192 NGYF=  192 NGZF=  180
   ions per type =              32  16  16
   NGX,Y,Z   is equivalent  to a cutoff of  15.18, 15.18, 14.37 a.u.
   NGXF,Y,Z  is equivalent  to a cutoff of  30.36, 30.36, 28.73 a.u.

 SYSTEM =  CuFeS2                                  
 POSCAR =  Fe16 Cu16 S32                           

 Startparameter for this run:
   NWRITE =      2    write-flag & timer
   PREC   = accura    normal or accurate (medium, high low for compatibility)
   ISTART =      0    job   : 0-new  1-cont  2-samecut
   ICHARG =      1    charge: 1-file 2-atom 10-const
   ISPIN  =      2    spin polarized calculation?
   LNONCOLLINEAR =      F non collinear calculations
   LSORBIT =      F    spin-orbit coupling
   INIWAV =      1    electr: 0-lowe 1-rand  2-diag
   LASPH  =      F    aspherical Exc in radial PAW
   METAGGA=      F    non-selfconsistent MetaGGA calc.

 Electronic Relaxation 1
   ENCUT  =  700.0 eV  51.45 Ry    7.17 a.u.  22.68 22.68 22.47*2*pi/ulx,y,z
   ENINI  =  700.0     initial cutoff
   ENAUG  =  758.2 eV  augmentation charge cutoff
   NELM   =    500;   NELMIN=  2; NELMDL=  0     # of ELM steps 
   EDIFF  = 0.1E-07   stopping-criterion for ELM
   LREAL  =      F    real-space projection
   NLSPLINE    = F    spline interpolate recip. space projectors
   LCOMPAT=      F    compatible to vasp.4.4
   GGA_COMPAT  = T    GGA compatible to vasp.4.4-vasp.4.6
   LMAXPAW     = -100 max onsite density
   LMAXMIX     =    4 max onsite mixed and CHGCAR
   VOSKOWN=      0    Vosko Wilk Nusair interpolation
   ROPT   =    0.00000   0.00000   0.00000
 Ionic relaxation
   EDIFFG = -.1E-04   stopping-criterion for IOM
   NSW    =      0    number of steps for IOM
   NBLOCK =      1;   KBLOCK =      1    inner block; outer block 
   IBRION =     -1    ionic relax: 0-MD 1-quasi-New 2-CG
   NFREE  =      0    steps in history (QN), initial steepest desc. (CG)
   ISIF   =      2    stress and relaxation
   IWAVPR =     10    prediction:  0-non 1-charg 2-wave 3-comb
   ISYM   =      2    0-nonsym 1-usesym 2-fastsym
   LCORR  =      T    Harris-Foulkes like correction to forces

   POTIM  = 0.5000    time-step for ionic-motion
   TEIN   =    0.0    initial temperature
   TEBEG  =    0.0;   TEEND  =   0.0 temperature during run
   SMASS  =  -3.00    Nose mass-parameter (am)
   estimated Nose-frequenzy (Omega)   =  0.10E-29 period in steps =****** mass=  -0.253E-26a.u.
   SCALEE = 1.0000    scale energy and forces
   NPACO  =    256;   APACO  = 16.0  distance and # of slots for P.C.
   PSTRESS=    0.0 pullay stress

  Mass of Ions in am
   POMASS =  32.07 63.55 55.85
  Ionic Valenz
   ZVAL   =   6.00 17.00 14.00
  Atomic Wigner-Seitz radii
   RWIGS  =  -1.00 -1.00 -1.00
  virtual crystal weights 
   VCA    =   1.00  1.00  1.00
   NELECT =     688.0000    total number of electrons
   NUPDOWN=      -1.0000    fix difference up-down

 DOS related values:
   EMIN   =  10.00;   EMAX   =-10.00  energy-range for DOS
   EFERMI =   0.00
   ISMEAR =    -5;   SIGMA  =   0.03  broadening in eV -4-tet -1-fermi 0-gaus

 Electronic relaxation 2 (details)
   IALGO  =     38    algorithm
   LDIAG  =      T    sub-space diagonalisation (order eigenvalues)
   LSUBROT=      F    optimize rotation matrix (better conditioning)
   TURBO    =      0    0=normal 1=particle mesh
   IRESTART =      0    0=no restart 2=restart with 2 vectors
   NREBOOT  =      0    no. of reboots
   NMIN     =      0    reboot dimension
   EREF     =   0.00    reference energy to select bands
   IMIX   =      4    mixing-type and parameters
     AMIX     =   0.40;   BMIX     =  1.00
     AMIX_MAG =   1.60;   BMIX_MAG =  1.00
     AMIN     =   0.10
     WC   =   100.;   INIMIX=   1;  MIXPRE=   1;  MAXMIX= -45

 Intra band minimization:
   WEIMIN = 0.0000     energy-eigenvalue tresh-hold
   EBREAK =  0.49E-11  absolut break condition
   DEPER  =   0.30     relativ break condition  

   TIME   =   0.40     timestep for ELM

  volume/ion in A,a.u.               =      17.98       121.35
  Fermi-wavevector in a.u.,A,eV,Ry     =   1.379088  2.606098 25.876688  1.901883
  Thomas-Fermi vector in A             =   2.504089
 
 Write flags
   LWAVE        =      T    write WAVECAR
   LDOWNSAMPLE  =      F    k-point downsampling of WAVECAR
   LCHARG       =      T    write CHGCAR
   LVTOT        =      F    write LOCPOT, total local potential
   LVHAR        =      F    write LOCPOT, Hartree potential only
   LELF         =      F    write electronic localiz. function (ELF)
   LORBIT       =     11    0 simple, 1 ext, 2 COOP (PROOUT), +10 PAW based schemes


 Dipole corrections
   LMONO  =      F    monopole corrections only (constant potential shift)
   LDIPOL =      F    correct potential (dipole corrections)
   IDIPOL =      0    1-x, 2-y, 3-z, 4-all directions 
   EPSILON=  1.0000000 bulk dielectric constant

 LDA+U is selected, type is set to LDAUTYPE =  2
   angular momentum for each species LDAUL =     2    2    2
   U (eV)           for each species LDAUU =   0.0  0.1  4.7
   J (eV)           for each species LDAUJ =   0.0  0.0  0.0
 Exchange correlation treatment:
   GGA     =    PS    GGA type
   LEXCH   =    14    internal setting for exchange type
   VOSKOWN=      0    Vosko Wilk Nusair interpolation
   LHFCALC =     F    Hartree Fock is set to
   LHFONE  =     F    Hartree Fock one center treatment
   AEXX    =    0.0000 exact exchange contribution

 Linear response parameters
   LEPSILON=     F    determine dielectric tensor
   LRPA    =     F    only Hartree local field effects (RPA)
   LNABLA  =     F    use nabla operator in PAW spheres
   LVEL    =     F    velocity operator in full k-point grid
   LINTERFAST=   F  fast interpolation
   KINTER  =     0    interpolate to denser k-point grid
   CSHIFT  =0.1000    complex shift for real part using Kramers Kronig
   OMEGAMAX=  -1.0    maximum frequency
   DEG_THRESHOLD= 0.2000000E-02 threshold for treating states as degnerate
   RTIME   =   -0.100 relaxation time in fs
  (WPLASMAI=    0.000 imaginary part of plasma frequency in eV, 0.658/RTIME)
   DFIELD  = 0.0000000 0.0000000 0.0000000 field for delta impulse in time
 
 Orbital magnetization related:
   ORBITALMAG=     F  switch on orbital magnetization
   LCHIMAG   =     F  perturbation theory with respect to B field
   DQ        =  0.001000  dq finite difference perturbation B field
   LLRAUG    =     F  two centre corrections for induced B field

 PEAD related settings:
   LPEAD      =     T    switch on PEAD
   IPEAD      =     4    finite difference order for dpsi/dk
   LCALCPOL   =     T    calculate macroscopic polarization
   LCALCEPS   =     F    calculate dielectric tensor
   EFIELD_PEAD=    0.0000    0.0000    0.0000
   SKIP_EDOTP =     F
   LRPA       =     F
   SKIP_SCF   =     F


--------------------------------------------------------------------------------------------------------


 Static calculation
 charge density and potential will be updated during run
 spin polarized calculation
 Variant of blocked Davidson
 Davidson routine will perform the subspace rotation
 perform sub-space diagonalisation
    after iterative eigenvector-optimisation
 modified Broyden-mixing scheme, WC =      100.0
 initial mixing is a Kerker type mixing with AMIX =  0.4000 and BMIX =      1.0000
 Hartree-type preconditioning will be used
 using additional bands          168
 reciprocal scheme for non local part
 use partial core corrections
 calculate Harris-corrections to forces 
   (improved forces if not selfconsistent)
 use gradient corrections 
 use of overlap-Matrix (Vanderbilt PP)
 Fermi weights with tetrahedron method with Bloechl corrections


--------------------------------------------------------------------------------------------------------


  energy-cutoff  :      700.00
  volume of cell :     1150.90
      direct lattice vectors                 reciprocal lattice vectors
    10.512734000  0.073322000  0.000000000     0.095127361 -0.000663474  0.000000000
     0.073322000 10.512734000  0.000000000    -0.000663474  0.095127361  0.000000000
     0.000000000  0.000000000 10.414227000     0.000000000  0.000000000  0.096022489

  length of vectors
    10.512989692 10.512989692 10.414227000     0.095129675  0.095129675  0.096022489


 
 k-points in units of 2pi/SCALE and weight: Automatic mesh                          
   0.00000000  0.00000000  0.00000000       0.125
   0.04756368 -0.00033174  0.00000000       0.250
   0.04723194  0.04723194  0.00000000       0.125
   0.00000000  0.00000000  0.04801124       0.125
   0.04756368 -0.00033174  0.04801124       0.250
   0.04723194  0.04723194  0.04801124       0.125
 
 k-points in reciprocal lattice and weights: Automatic mesh                          
   0.00000000  0.00000000  0.00000000       0.125
   0.50000000  0.00000000  0.00000000       0.250
   0.50000000  0.50000000  0.00000000       0.125
   0.00000000  0.00000000  0.50000000       0.125
   0.50000000  0.00000000  0.50000000       0.250
   0.50000000  0.50000000  0.50000000       0.125
 
 position of ions in fractional coordinates (direct lattice) 
   0.12614300  0.12508000  0.12424100
   0.62614300  0.12508000  0.12424100
   0.12614300  0.62508000  0.12424100
   0.62614300  0.62508000  0.12424100
   0.37385700  0.37492000  0.12424100
   0.87385700  0.37492000  0.12424100
   0.37385700  0.87492000  0.12424100
   0.87385700  0.87492000  0.12424100
   0.12492000  0.37385700  0.87424100
   0.62492000  0.37385700  0.87424100
   0.12492000  0.87385700  0.87424100
   0.62492000  0.87385700  0.87424100
   0.37508000  0.12614300  0.87424100
   0.87508000  0.12614300  0.87424100
   0.37508000  0.62614300  0.87424100
   0.87508000  0.62614300  0.87424100
   0.12385700  0.12492000  0.62424100
   0.62385700  0.12492000  0.62424100
   0.12385700  0.62492000  0.62424100
   0.62385700  0.62492000  0.62424100
   0.37614300  0.37508000  0.62424100
   0.87614300  0.37508000  0.62424100
   0.37614300  0.87508000  0.62424100
   0.87614300  0.87508000  0.62424100
   0.37492000  0.12385700  0.37424100
   0.87492000  0.12385700  0.37424100
   0.37492000  0.62385700  0.37424100
   0.87492000  0.62385700  0.37424100
   0.12508000  0.37614300  0.37424100
   0.62508000  0.37614300  0.37424100
   0.12508000  0.87614300  0.37424100
   0.62508000  0.87614300  0.37424100
   0.00000000  0.00000000  0.50065600
   0.50000000  0.00000000  0.50065600
   0.00000000  0.50000000  0.50065600
   0.50000000  0.50000000  0.50065600
   0.25000000  0.00000000  0.25065600
   0.75000000  0.00000000  0.25065600
   0.25000000  0.50000000  0.25065600
   0.75000000  0.50000000  0.25065600
   0.25000000  0.25000000  0.00065600
   0.75000000  0.25000000  0.00065600
   0.25000000  0.75000000  0.00065600
   0.75000000  0.75000000  0.00065600
   0.00000000  0.25000000  0.75065600
   0.50000000  0.25000000  0.75065600
   0.00000000  0.75000000  0.75065600
   0.50000000  0.75000000  0.75065600
   0.00000000  0.00000000  0.00086300
   0.50000000  0.00000000  0.00086300
   0.00000000  0.50000000  0.00086300
   0.50000000  0.50000000  0.00086300
   0.25000000  0.00000000  0.75086300
   0.75000000  0.00000000  0.75086300
   0.25000000  0.50000000  0.75086300
   0.75000000  0.50000000  0.75086300
   0.25000000  0.25000000  0.50086300
   0.75000000  0.25000000  0.50086300
   0.25000000  0.75000000  0.50086300
   0.75000000  0.75000000  0.50086300
   0.00000000  0.25000000  0.25086300
   0.50000000  0.25000000  0.25086300
   0.00000000  0.75000000  0.25086300
   0.50000000  0.75000000  0.25086300
 
 position of ions in cartesian coordinates  (Angst):
   1.33527892  1.32418183  1.29387398
   6.59164592  1.36084283  1.29387398
   1.37193992  6.58054883  1.29387398
   6.62830692  6.61720983  1.29387398
   3.95774908  3.96884617  1.29387398
   9.21411608  4.00550717  1.29387398
   3.99441008  9.22521317  1.29387398
   9.25077708  9.26187417  1.29387398
   1.34066267  3.93941858  9.10454423
   6.59702967  3.97607958  9.10454423
   1.37732367  9.19578558  9.10454423
   6.63369067  9.23244658  9.10454423
   3.95236533  1.35360942  9.10454423
   9.20873233  1.39027042  9.10454423
   3.98902633  6.60997642  9.10454423
   9.24539333  6.64663742  9.10454423
   1.31123508  1.32233217  6.50098748
   6.56760208  1.35899317  6.50098748
   1.34789608  6.57869917  6.50098748
   6.60426308  6.61536017  6.50098748
   3.98179292  3.97069583  6.50098748
   9.23815992  4.00735683  6.50098748
   4.01845392  9.22706283  6.50098748
   9.27482092  9.26372383  6.50098748
   3.95051567  1.32956558  3.89743073
   9.20688267  1.36622658  3.89743073
   3.98717667  6.58593258  3.89743073
   9.24354367  6.62259358  3.89743073
   1.34251233  3.96346242  3.89743073
   6.59887933  4.00012342  3.89743073
   1.37917333  9.21982942  3.89743073
   6.63554033  9.25649042  3.89743073
   0.00000000  0.00000000  5.21394523
   5.25636700  0.03666100  5.21394523
   0.03666100  5.25636700  5.21394523
   5.29302800  5.29302800  5.21394523
   2.62818350  0.01833050  2.61038848
   7.88455050  0.05499150  2.61038848
   2.66484450  5.27469750  2.61038848
   7.92121150  5.31135850  2.61038848
   2.64651400  2.64651400  0.00683173
   7.90288100  2.68317500  0.00683173
   2.68317500  7.90288100  0.00683173
   7.93954200  7.93954200  0.00683173
   0.01833050  2.62818350  7.81750198
   5.27469750  2.66484450  7.81750198
   0.05499150  7.88455050  7.81750198
   5.31135850  7.92121150  7.81750198
   0.00000000  0.00000000  0.00898748
   5.25636700  0.03666100  0.00898748
   0.03666100  5.25636700  0.00898748
   5.29302800  5.29302800  0.00898748
   2.62818350  0.01833050  7.81965773
   7.88455050  0.05499150  7.81965773
   2.66484450  5.27469750  7.81965773
   7.92121150  5.31135850  7.81965773
   2.64651400  2.64651400  5.21610098
   7.90288100  2.68317500  5.21610098
   2.68317500  7.90288100  5.21610098
   7.93954200  7.93954200  5.21610098
   0.01833050  2.62818350  2.61254423
   5.27469750  2.66484450  2.61254423
   0.05499150  7.88455050  2.61254423
   5.31135850  7.92121150  2.61254423
 


--------------------------------------------------------------------------------------------------------


 k-point  1 :   0.0000 0.0000 0.0000  plane waves:   48439
 k-point  2 :   0.5000 0.0000 0.0000  plane waves:   48428
 k-point  3 :   0.5000 0.5000 0.0000  plane waves:   48432
 k-point  4 :   0.0000 0.0000 0.5000  plane waves:   48400
 k-point  5 :   0.5000 0.0000 0.5000  plane waves:   48360
 k-point  6 :   0.5000 0.5000 0.5000  plane waves:   48360

 maximum and minimum number of plane-waves per node :     48439    48360

 maximum number of plane-waves:     48439
 maximum index in each direction: 
   IXMAX=   22   IYMAX=   22   IZMAX=   22
   IXMIN=  -23   IYMIN=  -23   IZMIN=  -22


 serial   3D FFT for wavefunctions
 parallel 3D FFT for charge:
    minimum data exchange during FFTs selected (reduces bandwidth)


 total amount of memory used by VASP MPI-rank0   301249. kBytes
=======================================================================

   base      :      30000. kBytes
   nonl-proj :     175882. kBytes
   fftplans  :       4588. kBytes
   grid      :      69719. kBytes
   one-center:       1990. kBytes
   wavefun   :      19070. kBytes
 
     INWAV:  cpu time    0.0001: real time    0.0002
 Broyden mixing: mesh for mixing (old mesh)
   NGX = 45   NGY = 45   NGZ = 45
  (NGX  =192   NGY  =192   NGZ  =180)
  gives a total of  91125 points

 initial charge density was supplied:
 number of electron     688.0000381 magnetization      -0.0000000
 keeping initial charge density in first step


--------------------------------------------------------------------------------------------------------


 Maximum index for augmentation-charges          901 (set IRDMAX)


--------------------------------------------------------------------------------------------------------


 First call to EWALD:  gamma=   0.169
 Maximum number of real-space cells 3x 3x 3
 Maximum number of reciprocal cells 3x 3x 3

    FEWALD:  cpu time    0.0022: real time    0.0025


--------------------------------------- Iteration      1(   1)  ---------------------------------------


    POTLOK:  cpu time    0.3662: real time    0.4507
    SETDIJ:  cpu time    0.0152: real time    0.0153
     EDDAV:  cpu time   64.0738: real time   64.6679
 BZINTS: Fermi energy: 14.576033;688.000000 electrons
         Band energy:***********;  BLOECHL correction: -0.008284
       DOS:  cpu time    0.0208: real time    0.0209
    --------------------------------------------
      LOOP:  cpu time   64.4760: real time   65.1547

 eigenvalue-minimisations  : 12288
 total energy-change (2. order) : 0.5987128E+04  (-0.5197785E+05)
 number of electron     688.0000381 magnetization      -0.0000000
 augmentation part      688.0000381 magnetization      -0.0000000

 Free energy of the ion-electron system (eV)
  ---------------------------------------------------
  alpha Z        PSCENC =      2355.68040379
  Ewald energy   TEWEN  =    -62464.03881794
  -Hartree energ DENC   =    -42672.60667842
  -exchange      EXHF   =         0.00000000
  -V(xc)+E(xc)   XCENC  =      3280.27741198
  PAW double counting   =    112094.73613794  -115785.86240992
  entropy T*S    EENTRO =         0.00000000
  eigenvalues    EBANDS =     -4841.12299134
  atomic energy  EATOM  =    114020.06510763
  Solvation  Ediel_sol  =         0.00000000
  ---------------------------------------------------
  free energy    TOTEN  =      5987.12816372 eV

  energy without entropy =     5987.12816372  energy(sigma->0) =     5987.12816372


--------------------------------------------------------------------------------------------------------




--------------------------------------- Iteration      1(   2)  ---------------------------------------


     EDDAV:  cpu time   75.2604: real time   75.8409
 BZINTS: Fermi energy:  5.085063;688.000000 electrons
         Band energy:***********;  BLOECHL correction: -0.008188
       DOS:  cpu time    0.0155: real time    0.0155
    --------------------------------------------
      LOOP:  cpu time   75.2759: real time   75.8565

 eigenvalue-minimisations  : 13568
 total energy-change (2. order) :-0.6137630E+04  (-0.6033008E+04)
 number of electron     688.0000381 magnetization      -0.0000000
 augmentation part      688.0000381 magnetization      -0.0000000

 Free energy of the ion-electron system (eV)
  ---------------------------------------------------
  alpha Z        PSCENC =      2355.68040379
  Ewald energy   TEWEN  =    -62464.03881794
  -Hartree energ DENC   =    -42672.60667842
  -exchange      EXHF   =         0.00000000
  -V(xc)+E(xc)   XCENC  =      3280.27741198
  PAW double counting   =    112094.73613794  -115785.86240992
  entropy T*S    EENTRO =         0.00000000
  eigenvalues    EBANDS =    -10978.75335583
  atomic energy  EATOM  =    114020.06510763
  Solvation  Ediel_sol  =         0.00000000
  ---------------------------------------------------
  free energy    TOTEN  =      -150.50220076 eV

  energy without entropy =     -150.50220076  energy(sigma->0) =     -150.50220076


--------------------------------------------------------------------------------------------------------




--------------------------------------- Iteration      1(   3)  ---------------------------------------


     EDDAV:  cpu time  118.2657: real time  119.0960
 BZINTS: Fermi energy:  4.690085;688.000000 electrons
         Band energy:***********;  BLOECHL correction:  0.000000
       DOS:  cpu time    0.0034: real time    0.0034
    --------------------------------------------
      LOOP:  cpu time  118.2691: real time  119.0994

 eigenvalue-minimisations  : 17152
 total energy-change (2. order) :-0.2466726E+03  (-0.2459545E+03)
 number of electron     688.0000381 magnetization      -0.0000000
 augmentation part      688.0000381 magnetization      -0.0000000

 Free energy of the ion-electron system (eV)
  ---------------------------------------------------
  alpha Z        PSCENC =      2355.68040379
  Ewald energy   TEWEN  =    -62464.03881794
  -Hartree energ DENC   =    -42672.60667842
  -exchange      EXHF   =         0.00000000
  -V(xc)+E(xc)   XCENC  =      3280.27741198
  PAW double counting   =    112094.73613794  -115785.86240992
  entropy T*S    EENTRO =         0.00000000
  eigenvalues    EBANDS =    -11225.42597532
  atomic energy  EATOM  =    114020.06510763
  Solvation  Ediel_sol  =         0.00000000
  ---------------------------------------------------
  free energy    TOTEN  =      -397.17482026 eV

  energy without entropy =     -397.17482026  energy(sigma->0) =     -397.17482026


--------------------------------------------------------------------------------------------------------




--------------------------------------- Iteration      1(   4)  ---------------------------------------


     EDDAV:  cpu time   95.4972: real time   96.1859
 BZINTS: Fermi energy:  4.771310;688.000000 electrons
         Band energy:***********;  BLOECHL correction:  0.000000
       DOS:  cpu time    0.0039: real time    0.0039
    --------------------------------------------
      LOOP:  cpu time   95.5011: real time   96.1898

 eigenvalue-minimisations  : 14848
 total energy-change (2. order) :-0.3405686E+01  (-0.3405547E+01)
 number of electron     688.0000381 magnetization      -0.0000000
 augmentation part      688.0000381 magnetization      -0.0000000

 Free energy of the ion-electron system (eV)
  ---------------------------------------------------
  alpha Z        PSCENC =      2355.68040379
  Ewald energy   TEWEN  =    -62464.03881794
  -Hartree energ DENC   =    -42672.60667842
  -exchange      EXHF   =         0.00000000
  -V(xc)+E(xc)   XCENC  =      3280.27741198
  PAW double counting   =    112094.73613794  -115785.86240992
  entropy T*S    EENTRO =         0.00000000
  eigenvalues    EBANDS =    -11228.83166122
  atomic energy  EATOM  =    114020.06510763
  Solvation  Ediel_sol  =         0.00000000
  ---------------------------------------------------
  free energy    TOTEN  =      -400.58050616 eV

  energy without entropy =     -400.58050616  energy(sigma->0) =     -400.58050616


--------------------------------------------------------------------------------------------------------




--------------------------------------- Iteration      1(   5)  ---------------------------------------


     EDDAV:  cpu time  108.8582: real time  109.6197
 BZINTS: Fermi energy:  4.708580;688.000000 electrons
         Band energy:***********;  BLOECHL correction:  0.000000
       DOS:  cpu time    0.0034: real time    0.0035
    CHARGE:  cpu time    1.2406: real time    1.2486
    MIXING:  cpu time    0.0027: real time    0.0028
    --------------------------------------------
      LOOP:  cpu time  110.1050: real time  110.8745

 eigenvalue-minimisations  : 15872
 total energy-change (2. order) :-0.1086786E+00  (-0.1086782E+00)
 number of electron     688.0000482 magnetization      -0.0000000
 augmentation part      286.7049430 magnetization      -0.0000000

 Broyden mixing:
  rms(total) = 0.67954E+01    rms(broyden)= 0.67946E+01
  rms(prec ) = 0.76320E+01
  weight for this iteration     100.00

 Free energy of the ion-electron system (eV)
  ---------------------------------------------------
  alpha Z        PSCENC =      2355.68040379
  Ewald energy   TEWEN  =    -62464.03881794
  -Hartree energ DENC   =    -42672.60667842
  -exchange      EXHF   =         0.00000000
  -V(xc)+E(xc)   XCENC  =      3280.27741198
  PAW double counting   =    112094.73613794  -115785.86240992
  entropy T*S    EENTRO =         0.00000000
  eigenvalues    EBANDS =    -11228.94033982
  atomic energy  EATOM  =    114020.06510763
  Solvation  Ediel_sol  =         0.00000000
  ---------------------------------------------------
  free energy    TOTEN  =      -400.68918476 eV

  energy without entropy =     -400.68918476  energy(sigma->0) =     -400.68918476


--------------------------------------------------------------------------------------------------------




--------------------------------------- Iteration      1(   6)  ---------------------------------------


    POTLOK:  cpu time    0.1527: real time    0.1537
    SETDIJ:  cpu time    0.0131: real time    0.0132
     EDDAV:  cpu time  103.2027: real time  103.9457
 BZINTS: Fermi energy:  4.937043;688.000000 electrons
         Band energy:***********;  BLOECHL correction:  0.000000
       DOS:  cpu time    0.0036: real time    0.0036
    CHARGE:  cpu time    1.3551: real time    1.3626
    MIXING:  cpu time    0.0030: real time    0.1175
    --------------------------------------------
      LOOP:  cpu time  104.7303: real time  105.5963

 eigenvalue-minimisations  : 16128
 total energy-change (2. order) : 0.5401102E+02  (-0.9120890E+01)
 number of electron     688.0000473 magnetization      -0.0000000
 augmentation part      279.4256390 magnetization      -0.0000000

 Broyden mixing:
  rms(total) = 0.40978E+01    rms(broyden)= 0.40977E+01
  rms(prec ) = 0.46052E+01
  weight for this iteration     100.00

 eigenvalues of (default mixing * dielectric matrix)
  average eigenvalue GAMMA=   0.6762
  0.6762

 Free energy of the ion-electron system (eV)
  ---------------------------------------------------
  alpha Z        PSCENC =      2355.68040379
  Ewald energy   TEWEN  =    -62464.03881794
  -Hartree energ DENC   =    -43056.62347763
  -exchange      EXHF   =         0.00000000
  -V(xc)+E(xc)   XCENC  =      3286.98835995
  PAW double counting   =    117723.15307331  -121466.26359363
  entropy T*S    EENTRO =         0.00000000
  eigenvalues    EBANDS =    -10745.63922137
  atomic energy  EATOM  =    114020.06510763
  Solvation  Ediel_sol  =         0.00000000
  ---------------------------------------------------
  free energy    TOTEN  =      -346.67816589 eV

  energy without entropy =     -346.67816589  energy(sigma->0) =     -346.67816589


--------------------------------------------------------------------------------------------------------




--------------------------------------- Iteration      1(   7)  ---------------------------------------


    POTLOK:  cpu time    0.1521: real time    0.1533
    SETDIJ:  cpu time    0.0131: real time    0.0132
     EDDAV:  cpu time  113.0844: real time  113.8805
 BZINTS: Fermi energy:  5.026564;688.000000 electrons
         Band energy:***********;  BLOECHL correction:  0.000000
       DOS:  cpu time    0.0038: real time    0.0039
    CHARGE:  cpu time    1.2370: real time    1.2444
    MIXING:  cpu time    0.0018: real time    0.0036
    --------------------------------------------
      LOOP:  cpu time  114.4924: real time  115.2989

 eigenvalue-minimisations  : 16640
 total energy-change (2. order) : 0.1241131E+02  (-0.7969610E+01)
 number of electron     688.0000479 magnetization       0.0000000
 augmentation part      283.0702789 magnetization       0.0000000

 Broyden mixing:
  rms(total) = 0.41498E+01    rms(broyden)= 0.41498E+01
  rms(prec ) = 0.45944E+01
  weight for this iteration     100.00

 eigenvalues of (default mixing * dielectric matrix)
  average eigenvalue GAMMA=   0.7704
  1.1337  0.4071

 Free energy of the ion-electron system (eV)
  ---------------------------------------------------
  alpha Z        PSCENC =      2355.68040379
  Ewald energy   TEWEN  =    -62464.03881794
  -Hartree energ DENC   =    -42926.48306581
  -exchange      EXHF   =         0.00000000
  -V(xc)+E(xc)   XCENC  =      3287.70106430
  PAW double counting   =    117052.15135382  -120744.41122698
  entropy T*S    EENTRO =         0.00000000
  eigenvalues    EBANDS =    -10914.93167554
  atomic energy  EATOM  =    114020.06510763
  Solvation  Ediel_sol  =         0.00000000
  ---------------------------------------------------
  free energy    TOTEN  =      -334.26685674 eV

  energy without entropy =     -334.26685674  energy(sigma->0) =     -334.26685674


--------------------------------------------------------------------------------------------------------




--------------------------------------- Iteration      1(   8)  ---------------------------------------


    POTLOK:  cpu time    0.1525: real time    0.1537
    SETDIJ:  cpu time    0.0132: real time    0.0132
     EDDAV:  cpu time  112.5736: real time  113.3742
 BZINTS: Fermi energy:  4.660699;688.000000 electrons
         Band energy:***********;  BLOECHL correction:  0.000000
       DOS:  cpu time    0.0034: real time    0.0034
    CHARGE:  cpu time    1.2356: real time    1.2430
    MIXING:  cpu time    0.0014: real time    0.0015
    --------------------------------------------
      LOOP:  cpu time  113.9798: real time  114.7890

 eigenvalue-minimisations  : 16640
 total energy-change (2. order) : 0.4745489E+01  (-0.8238577E+01)
 number of electron     688.0000475 magnetization       0.0000000
 augmentation part      283.5316514 magnetization       0.0000000

 Broyden mixing:
  rms(total) = 0.16876E+01    rms(broyden)= 0.16874E+01
  rms(prec ) = 0.19495E+01
  weight for this iteration     100.00

 eigenvalues of (default mixing * dielectric matrix)
  average eigenvalue GAMMA=   0.9202
  1.7010  0.6764  0.3831

 Free energy of the ion-electron system (eV)
  ---------------------------------------------------
  alpha Z        PSCENC =      2355.68040379
  Ewald energy   TEWEN  =    -62464.03881794
  -Hartree energ DENC   =    -42824.05591452
  -exchange      EXHF   =         0.00000000
  -V(xc)+E(xc)   XCENC  =      3282.26106167
  PAW double counting   =    115785.23633634  -119469.99499468
  entropy T*S    EENTRO =         0.00000000
  eigenvalues    EBANDS =    -11014.67455032
  atomic energy  EATOM  =    114020.06510763
  Solvation  Ediel_sol  =         0.00000000
  ---------------------------------------------------
  free energy    TOTEN  =      -329.52136803 eV

  energy without entropy =     -329.52136803  energy(sigma->0) =     -329.52136803


--------------------------------------------------------------------------------------------------------




--------------------------------------- Iteration      1(   9)  ---------------------------------------


    POTLOK:  cpu time    0.1534: real time    0.1544
    SETDIJ:  cpu time    0.0131: real time    0.0131
     EDDAV:  cpu time  113.1328: real time  113.9416
 BZINTS: Fermi energy:  5.059384;688.000000 electrons
         Band energy:***********;  BLOECHL correction:  0.000000
       DOS:  cpu time    0.0038: real time    0.0038
    CHARGE:  cpu time    1.2878: real time    1.2952
    MIXING:  cpu time    0.0018: real time    0.0018
    --------------------------------------------
      LOOP:  cpu time  114.5927: real time  115.4099

 eigenvalue-minimisations  : 16128
 total energy-change (2. order) : 0.1469739E+01  (-0.2190117E+01)
 number of electron     688.0000473 magnetization       0.0000000
 augmentation part      282.4214079 magnetization       0.0000000

 Broyden mixing:
  rms(total) = 0.97293E+00    rms(broyden)= 0.97290E+00
  rms(prec ) = 0.11012E+01
  weight for this iteration     100.00

 eigenvalues of (default mixing * dielectric matrix)
  average eigenvalue GAMMA=   0.8959
  1.8534  0.8077  0.5981  0.3244

 Free energy of the ion-electron system (eV)
  ---------------------------------------------------
  alpha Z        PSCENC =      2355.68040379
  Ewald energy   TEWEN  =    -62464.03881794
  -Hartree energ DENC   =    -42970.05119403
  -exchange      EXHF   =         0.00000000
  -V(xc)+E(xc)   XCENC  =      3287.68871207
  PAW double counting   =    114819.75035403  -118520.02488715
  entropy T*S    EENTRO =         0.00000000
  eigenvalues    EBANDS =    -10857.12130782
  atomic energy  EATOM  =    114020.06510763
  Solvation  Ediel_sol  =         0.00000000
  ---------------------------------------------------
  free energy    TOTEN  =      -328.05162943 eV

  energy without entropy =     -328.05162943  energy(sigma->0) =     -328.05162943


--------------------------------------------------------------------------------------------------------




--------------------------------------- Iteration      1(  10)  ---------------------------------------


    POTLOK:  cpu time    0.1543: real time    0.1554
    SETDIJ:  cpu time    0.0133: real time    0.0134
     EDDAV:  cpu time  102.4733: real time  103.2177
 BZINTS: Fermi energy:  4.796972;688.000000 electrons
         Band energy:***********;  BLOECHL correction: -0.000000
       DOS:  cpu time    0.0035: real time    0.0035
    CHARGE:  cpu time    1.2334: real time    1.2410
    MIXING:  cpu time    0.0019: real time    0.0025
    --------------------------------------------
      LOOP:  cpu time  103.8796: real time  104.6335

 eigenvalue-minimisations  : 16128
 total energy-change (2. order) : 0.1235221E+00  (-0.5270205E+00)
 number of electron     688.0000471 magnetization       0.0000000
 augmentation part      281.8299112 magnetization       0.0000000

 Broyden mixing:
  rms(total) = 0.43276E+00    rms(broyden)= 0.43274E+00
  rms(prec ) = 0.46728E+00
  weight for this iteration     100.00

 eigenvalues of (default mixing * dielectric matrix)
  average eigenvalue GAMMA=   1.0332
  1.7775  1.7775  0.6463  0.6463  0.3186

 Free energy of the ion-electron system (eV)
  ---------------------------------------------------
  alpha Z        PSCENC =      2355.68040379
  Ewald energy   TEWEN  =    -62464.03881794
  -Hartree energ DENC   =    -42969.76982121
  -exchange      EXHF   =         0.00000000
  -V(xc)+E(xc)   XCENC  =      3286.79025368
  PAW double counting   =    114051.37733128  -117750.06794714
  entropy T*S    EENTRO =         0.00000000
  eigenvalues    EBANDS =    -10857.96461747
  atomic energy  EATOM  =    114020.06510763
  Solvation  Ediel_sol  =         0.00000000
  ---------------------------------------------------
  free energy    TOTEN  =      -327.92810738 eV

  energy without entropy =     -327.92810738  energy(sigma->0) =     -327.92810738


--------------------------------------------------------------------------------------------------------




--------------------------------------- Iteration      1(  11)  ---------------------------------------


    POTLOK:  cpu time    0.1543: real time    0.1553
    SETDIJ:  cpu time    0.0131: real time    0.0131
     EDDAV:  cpu time  126.0685: real time  126.9373
 BZINTS: Fermi energy:  5.013116;688.000000 electrons
         Band energy:***********;  BLOECHL correction:  0.000000
       DOS:  cpu time    0.0038: real time    0.0039
    CHARGE:  cpu time    1.2380: real time    1.2452
    MIXING:  cpu time    0.0018: real time    0.0018
    --------------------------------------------
      LOOP:  cpu time  127.4796: real time  128.3567

 eigenvalue-minimisations  : 17408
 total energy-change (2. order) :-0.8782051E-01  (-0.7105992E-01)
 number of electron     688.0000472 magnetization       0.0000000
 augmentation part      282.3465023 magnetization       0.0000000

 Broyden mixing:
  rms(total) = 0.20543E+00    rms(broyden)= 0.20543E+00
  rms(prec ) = 0.21072E+00
  weight for this iteration     100.00

 eigenvalues of (default mixing * dielectric matrix)
  average eigenvalue GAMMA=   1.0894
  2.0878  2.0878  0.7296  0.6561  0.6561  0.3192

 Free energy of the ion-electron system (eV)
  ---------------------------------------------------
  alpha Z        PSCENC =      2355.68040379
  Ewald energy   TEWEN  =    -62464.03881794
  -Hartree energ DENC   =    -42946.15752992
  -exchange      EXHF   =         0.00000000
  -V(xc)+E(xc)   XCENC  =      3286.36044121
  PAW double counting   =    112941.22449391  -116634.27060063
  entropy T*S    EENTRO =         0.00000000
  eigenvalues    EBANDS =    -10886.87942595
  atomic energy  EATOM  =    114020.06510763
  Solvation  Ediel_sol  =         0.00000000
  ---------------------------------------------------
  free energy    TOTEN  =      -328.01592789 eV

  energy without entropy =     -328.01592789  energy(sigma->0) =     -328.01592789


--------------------------------------------------------------------------------------------------------




--------------------------------------- Iteration      1(  12)  ---------------------------------------


    POTLOK:  cpu time    0.1535: real time    0.1544
    SETDIJ:  cpu time    0.0131: real time    0.0132
     EDDAV:  cpu time  110.4754: real time  111.2615
 BZINTS: Fermi energy:  5.014963;688.000000 electrons
         Band energy:***********;  BLOECHL correction:  0.000000
       DOS:  cpu time    0.0038: real time    0.0039
    CHARGE:  cpu time    1.2364: real time    1.2436
    MIXING:  cpu time    0.0019: real time    0.0019
    --------------------------------------------
      LOOP:  cpu time  111.8842: real time  112.6785

 eigenvalue-minimisations  : 16384
 total energy-change (2. order) :-0.5784544E-01  (-0.1969159E-01)
 number of electron     688.0000471 magnetization       0.0000000
 augmentation part      282.1840135 magnetization       0.0000000

 Broyden mixing:
  rms(total) = 0.10499E+00    rms(broyden)= 0.10498E+00
  rms(prec ) = 0.11653E+00
  weight for this iteration     100.00

 eigenvalues of (default mixing * dielectric matrix)
  average eigenvalue GAMMA=   1.1007
  2.2423  2.2423  1.0008  0.3197  0.6108  0.6108  0.6781

 Free energy of the ion-electron system (eV)
  ---------------------------------------------------
  alpha Z        PSCENC =      2355.68040379
  Ewald energy   TEWEN  =    -62464.03881794
  -Hartree energ DENC   =    -42958.63119436
  -exchange      EXHF   =         0.00000000
  -V(xc)+E(xc)   XCENC  =      3286.58701591
  PAW double counting   =    112519.47119283  -116213.99879370
  entropy T*S    EENTRO =         0.00000000
  eigenvalues    EBANDS =    -10873.20868749
  atomic energy  EATOM  =    114020.06510763
  Solvation  Ediel_sol  =         0.00000000
  ---------------------------------------------------
  free energy    TOTEN  =      -328.07377334 eV

  energy without entropy =     -328.07377334  energy(sigma->0) =     -328.07377334


--------------------------------------------------------------------------------------------------------




--------------------------------------- Iteration      1(  13)  ---------------------------------------


    POTLOK:  cpu time    0.1528: real time    0.1537
    SETDIJ:  cpu time    0.0131: real time    0.0132
     EDDAV:  cpu time  124.1170: real time  124.9606
 BZINTS: Fermi energy:  5.002328;688.000000 electrons
         Band energy:***********;  BLOECHL correction:  0.000000
       DOS:  cpu time    0.0038: real time    0.0039
    CHARGE:  cpu time    1.2358: real time    1.2429
    MIXING:  cpu time    0.0020: real time    0.0020
    --------------------------------------------
      LOOP:  cpu time  125.5246: real time  126.3764

 eigenvalue-minimisations  : 16896
 total energy-change (2. order) :-0.1563108E-01  (-0.6107474E-02)
 number of electron     688.0000471 magnetization       0.0000000
 augmentation part      282.2307515 magnetization       0.0000000

 Broyden mixing:
  rms(total) = 0.51286E-01    rms(broyden)= 0.51283E-01
  rms(prec ) = 0.54965E-01
  weight for this iteration     100.00

 eigenvalues of (default mixing * dielectric matrix)
  average eigenvalue GAMMA=   1.1096
  2.2817  2.2817  1.2238  0.3197  0.8822  0.6109  0.6109  0.6660

 Free energy of the ion-electron system (eV)
  ---------------------------------------------------
  alpha Z        PSCENC =      2355.68040379
  Ewald energy   TEWEN  =    -62464.03881794
  -Hartree energ DENC   =    -42954.40196579
  -exchange      EXHF   =         0.00000000
  -V(xc)+E(xc)   XCENC  =      3286.45214670
  PAW double counting   =    112341.37987106  -116035.27523912
  entropy T*S    EENTRO =         0.00000000
  eigenvalues    EBANDS =    -10877.95091075
  atomic energy  EATOM  =    114020.06510763
  Solvation  Ediel_sol  =         0.00000000
  ---------------------------------------------------
  free energy    TOTEN  =      -328.08940442 eV

  energy without entropy =     -328.08940442  energy(sigma->0) =     -328.08940442


--------------------------------------------------------------------------------------------------------




--------------------------------------- Iteration      1(  14)  ---------------------------------------


    POTLOK:  cpu time    0.1536: real time    0.1548
    SETDIJ:  cpu time    0.0131: real time    0.0132
     EDDAV:  cpu time   87.3342: real time   87.9768
 BZINTS: Fermi energy:  4.986666;688.000000 electrons
         Band energy:***********;  BLOECHL correction:  0.000000
       DOS:  cpu time    0.0038: real time    0.0038
    CHARGE:  cpu time    1.2360: real time    1.2434
    MIXING:  cpu time    0.0019: real time    0.0019
    --------------------------------------------
      LOOP:  cpu time   88.7427: real time   89.3939

 eigenvalue-minimisations  : 13824
 total energy-change (2. order) :-0.7561924E-02  (-0.1765439E-02)
 number of electron     688.0000471 magnetization       0.0000000
 augmentation part      282.2174372 magnetization       0.0000000

 Broyden mixing:
  rms(total) = 0.31024E-01    rms(broyden)= 0.31022E-01
  rms(prec ) = 0.33005E-01
  weight for this iteration     100.00

 eigenvalues of (default mixing * dielectric matrix)
  average eigenvalue GAMMA=   1.2070
  2.4703  2.4703  1.8202  1.1875  0.3197  0.6254  0.6254  0.7127  0.6311

 Free energy of the ion-electron system (eV)
  ---------------------------------------------------
  alpha Z        PSCENC =      2355.68040379
  Ewald energy   TEWEN  =    -62464.03881794
  -Hartree energ DENC   =    -42955.69257341
  -exchange      EXHF   =         0.00000000
  -V(xc)+E(xc)   XCENC  =      3286.50434316
  PAW double counting   =    112294.67066072  -115988.73601492
  entropy T*S    EENTRO =         0.00000000
  eigenvalues    EBANDS =    -10876.55007537
  atomic energy  EATOM  =    114020.06510763
  Solvation  Ediel_sol  =         0.00000000
  ---------------------------------------------------
  free energy    TOTEN  =      -328.09696634 eV

  energy without entropy =     -328.09696634  energy(sigma->0) =     -328.09696634


--------------------------------------------------------------------------------------------------------




--------------------------------------- Iteration      1(  15)  ---------------------------------------


    POTLOK:  cpu time    0.1550: real time    0.1559
    SETDIJ:  cpu time    0.0133: real time    0.0133
     EDDAV:  cpu time  117.0490: real time  117.8619
 BZINTS: Fermi energy:  4.985706;688.000000 electrons
         Band energy:***********;  BLOECHL correction:  0.000000
       DOS:  cpu time    0.0038: real time    0.0039
    CHARGE:  cpu time    1.2395: real time    1.2466
    MIXING:  cpu time    0.0022: real time    0.0022
    --------------------------------------------
      LOOP:  cpu time  118.4628: real time  119.2837

 eigenvalue-minimisations  : 16384
 total energy-change (2. order) :-0.4389684E-02  (-0.1417685E-02)
 number of electron     688.0000471 magnetization       0.0000000
 augmentation part      282.2088841 magnetization       0.0000000

 Broyden mixing:
  rms(total) = 0.15841E-01    rms(broyden)= 0.15838E-01
  rms(prec ) = 0.16943E-01
  weight for this iteration     100.00

 eigenvalues of (default mixing * dielectric matrix)
  average eigenvalue GAMMA=   1.2106
  2.9373  2.2614  1.9366  1.0356  1.0356  0.3197  0.6160  0.6160  0.7073  0.6404

 Free energy of the ion-electron system (eV)
  ---------------------------------------------------
  alpha Z        PSCENC =      2355.68040379
  Ewald energy   TEWEN  =    -62464.03881794
  -Hartree energ DENC   =    -42956.52166213
  -exchange      EXHF   =         0.00000000
  -V(xc)+E(xc)   XCENC  =      3286.53836974
  PAW double counting   =    112271.34379765  -115965.49219048
  entropy T*S    EENTRO =         0.00000000
  eigenvalues    EBANDS =    -10875.67636430
  atomic energy  EATOM  =    114020.06510763
  Solvation  Ediel_sol  =         0.00000000
  ---------------------------------------------------
  free energy    TOTEN  =      -328.10135603 eV

  energy without entropy =     -328.10135603  energy(sigma->0) =     -328.10135603


--------------------------------------------------------------------------------------------------------




--------------------------------------- Iteration      1(  16)  ---------------------------------------


    POTLOK:  cpu time    0.1488: real time    0.1529
    SETDIJ:  cpu time    0.0130: real time    0.0130
     EDDAV:  cpu time   87.6845: real time   88.3213
 BZINTS: Fermi energy:  4.984908;688.000000 electrons
         Band energy:***********;  BLOECHL correction:  0.000000
       DOS:  cpu time    0.0039: real time    0.0039
    CHARGE:  cpu time    1.2351: real time    1.2422
    MIXING:  cpu time    0.0021: real time    0.0148
    --------------------------------------------
      LOOP:  cpu time   89.0873: real time   89.7481

 eigenvalue-minimisations  : 13824
 total energy-change (2. order) :-0.1335084E-02  (-0.4228767E-03)
 number of electron     688.0000471 magnetization       0.0000000
 augmentation part      282.2254152 magnetization       0.0000000

 Broyden mixing:
  rms(total) = 0.10610E-01    rms(broyden)= 0.10609E-01
  rms(prec ) = 0.11241E-01
  weight for this iteration     100.00

 eigenvalues of (default mixing * dielectric matrix)
  average eigenvalue GAMMA=   1.2750
  3.3039  2.1440  2.1440  1.3677  1.3677  0.3197  0.6123  0.6123  0.7972  0.7194
  0.6367

 Free energy of the ion-electron system (eV)
  ---------------------------------------------------
  alpha Z        PSCENC =      2355.68040379
  Ewald energy   TEWEN  =    -62464.03881794
  -Hartree energ DENC   =    -42955.62648995
  -exchange      EXHF   =         0.00000000
  -V(xc)+E(xc)   XCENC  =      3286.51097642
  PAW double counting   =    112259.60228532  -115953.60401639
  entropy T*S    EENTRO =         0.00000000
  eigenvalues    EBANDS =    -10876.69213999
  atomic energy  EATOM  =    114020.06510763
  Solvation  Ediel_sol  =         0.00000000
  ---------------------------------------------------
  free energy    TOTEN  =      -328.10269111 eV

  energy without entropy =     -328.10269111  energy(sigma->0) =     -328.10269111


--------------------------------------------------------------------------------------------------------




--------------------------------------- Iteration      1(  17)  ---------------------------------------


    POTLOK:  cpu time    0.1535: real time    0.1555
    SETDIJ:  cpu time    0.0130: real time    0.0130
     EDDAV:  cpu time  118.2126: real time  119.0240
 BZINTS: Fermi energy:  4.984580;688.000000 electrons
         Band energy:***********;  BLOECHL correction:  0.000000
       DOS:  cpu time    0.0039: real time    0.0039
    CHARGE:  cpu time    1.2363: real time    1.2434
    MIXING:  cpu time    0.0022: real time    0.0022
    --------------------------------------------
      LOOP:  cpu time  119.6214: real time  120.4420

 eigenvalue-minimisations  : 16384
 total energy-change (2. order) :-0.6315508E-03  (-0.2836347E-03)
 number of electron     688.0000471 magnetization       0.0000000
 augmentation part      282.2186682 magnetization       0.0000000

 Broyden mixing:
  rms(total) = 0.71980E-02    rms(broyden)= 0.71967E-02
  rms(prec ) = 0.80930E-02
  weight for this iteration     100.00

 eigenvalues of (default mixing * dielectric matrix)
  average eigenvalue GAMMA=   1.3625
  4.0354  2.3806  2.3806  1.4857  1.4857  0.3197  0.9738  0.6147  0.6147  0.7539
  0.6882  0.6167

 Free energy of the ion-electron system (eV)
  ---------------------------------------------------
  alpha Z        PSCENC =      2355.68040379
  Ewald energy   TEWEN  =    -62464.03881794
  -Hartree energ DENC   =    -42955.90298231
  -exchange      EXHF   =         0.00000000
  -V(xc)+E(xc)   XCENC  =      3286.51166164
  PAW double counting   =    112273.00876756  -115967.02800290
  entropy T*S    EENTRO =         0.00000000
  eigenvalues    EBANDS =    -10876.39946013
  atomic energy  EATOM  =    114020.06510763
  Solvation  Ediel_sol  =         0.00000000
  ---------------------------------------------------
  free energy    TOTEN  =      -328.10332266 eV

  energy without entropy =     -328.10332266  energy(sigma->0) =     -328.10332266


--------------------------------------------------------------------------------------------------------




--------------------------------------- Iteration      1(  18)  ---------------------------------------


    POTLOK:  cpu time    0.1534: real time    0.1543
    SETDIJ:  cpu time    0.0130: real time    0.0130
     EDDAV:  cpu time  100.5112: real time  101.2262
 BZINTS: Fermi energy:  4.984594;688.000000 electrons
         Band energy:***********;  BLOECHL correction:  0.000000
       DOS:  cpu time    0.0039: real time    0.0039
    CHARGE:  cpu time    1.2368: real time    1.2439
    MIXING:  cpu time    0.0021: real time    0.0021
    --------------------------------------------
      LOOP:  cpu time  101.9204: real time  102.6435

 eigenvalue-minimisations  : 14848
 total energy-change (2. order) :-0.1389422E-03  (-0.1052789E-03)
 number of electron     688.0000471 magnetization       0.0000000
 augmentation part      282.2175295 magnetization       0.0000000

 Broyden mixing:
  rms(total) = 0.27811E-02    rms(broyden)= 0.27796E-02
  rms(prec ) = 0.30535E-02
  weight for this iteration     100.00

 eigenvalues of (default mixing * dielectric matrix)
  average eigenvalue GAMMA=   1.3479
  4.3299  2.4014  2.4014  1.7430  1.1044  1.1044  0.3197  0.8647  0.6135  0.6135
  0.7450  0.6530  0.6280

 Free energy of the ion-electron system (eV)
  ---------------------------------------------------
  alpha Z        PSCENC =      2355.68040379
  Ewald energy   TEWEN  =    -62464.03881794
  -Hartree energ DENC   =    -42956.04432214
  -exchange      EXHF   =         0.00000000
  -V(xc)+E(xc)   XCENC  =      3286.51830682
  PAW double counting   =    112284.29998230  -115978.31306108
  entropy T*S    EENTRO =         0.00000000
  eigenvalues    EBANDS =    -10876.27106098
  atomic energy  EATOM  =    114020.06510763
  Solvation  Ediel_sol  =         0.00000000
  ---------------------------------------------------
  free energy    TOTEN  =      -328.10346160 eV

  energy without entropy =     -328.10346160  energy(sigma->0) =     -328.10346160


--------------------------------------------------------------------------------------------------------




--------------------------------------- Iteration      1(  19)  ---------------------------------------


    POTLOK:  cpu time    0.1493: real time    0.1532
    SETDIJ:  cpu time    0.0131: real time    0.0131
     EDDAV:  cpu time  100.8957: real time  101.6122
 BZINTS: Fermi energy:  4.984565;688.000000 electrons
         Band energy:***********;  BLOECHL correction:  0.000000
       DOS:  cpu time    0.0039: real time    0.0039
    CHARGE:  cpu time    1.2371: real time    1.2443
    MIXING:  cpu time    0.0023: real time    0.0023
    --------------------------------------------
      LOOP:  cpu time  102.3013: real time  103.0289

 eigenvalue-minimisations  : 14848
 total energy-change (2. order) :-0.1235440E-04  (-0.7929637E-05)
 number of electron     688.0000471 magnetization      -0.0000000
 augmentation part      282.2201911 magnetization      -0.0000000

 Broyden mixing:
  rms(total) = 0.20782E-02    rms(broyden)= 0.20780E-02
  rms(prec ) = 0.21815E-02
  weight for this iteration     100.00

 eigenvalues of (default mixing * dielectric matrix)
  average eigenvalue GAMMA=   1.3402
  4.4317  2.3884  2.3884  1.8046  1.2651  1.2651  0.3197  0.8601  0.8601  0.6129
  0.6129  0.6807  0.6151  0.6586

[...]
   -.421E+02 0.132E+00 0.438E+01   0.430E+02 -.128E+00 -.442E+01   -.865E+00 -.311E-02 0.387E-01   0.732E-05 -.182E-05 0.154E-04
   -.421E+02 0.132E+00 0.438E+01   0.430E+02 -.128E+00 -.442E+01   -.865E+00 -.311E-02 0.387E-01   0.732E-05 -.182E-05 0.154E-04
   -.421E+02 0.132E+00 0.438E+01   0.430E+02 -.128E+00 -.442E+01   -.865E+00 -.311E-02 0.387E-01   0.732E-05 -.182E-05 0.154E-04
   -.421E+02 0.132E+00 0.438E+01   0.430E+02 -.128E+00 -.442E+01   -.865E+00 -.311E-02 0.387E-01   0.732E-05 -.182E-05 0.154E-04
   0.421E+02 -.132E+00 0.438E+01   -.430E+02 0.128E+00 -.442E+01   0.865E+00 0.311E-02 0.387E-01   -.732E-05 0.182E-05 0.154E-04
   0.421E+02 -.132E+00 0.438E+01   -.430E+02 0.128E+00 -.442E+01   0.865E+00 0.311E-02 0.387E-01   -.732E-05 0.182E-05 0.154E-04
   0.421E+02 -.132E+00 0.438E+01   -.430E+02 0.128E+00 -.442E+01   0.865E+00 0.311E-02 0.387E-01   -.732E-05 0.182E-05 0.154E-04
   0.421E+02 -.132E+00 0.438E+01   -.430E+02 0.128E+00 -.442E+01   0.865E+00 0.311E-02 0.387E-01   -.732E-05 0.182E-05 0.154E-04
   0.132E+00 -.421E+02 0.438E+01   -.128E+00 0.430E+02 -.442E+01   -.311E-02 -.865E+00 0.387E-01   -.182E-05 0.732E-05 0.154E-04
   0.132E+00 -.421E+02 0.438E+01   -.128E+00 0.430E+02 -.442E+01   -.311E-02 -.865E+00 0.387E-01   -.182E-05 0.732E-05 0.154E-04
   0.132E+00 -.421E+02 0.438E+01   -.128E+00 0.430E+02 -.442E+01   -.311E-02 -.865E+00 0.387E-01   -.182E-05 0.732E-05 0.154E-04
   0.132E+00 -.421E+02 0.438E+01   -.128E+00 0.430E+02 -.442E+01   -.311E-02 -.865E+00 0.387E-01   -.182E-05 0.732E-05 0.154E-04
   -.132E+00 0.421E+02 0.438E+01   0.128E+00 -.430E+02 -.442E+01   0.311E-02 0.865E+00 0.387E-01   0.182E-05 -.732E-05 0.154E-04
   -.132E+00 0.421E+02 0.438E+01   0.128E+00 -.430E+02 -.442E+01   0.311E-02 0.865E+00 0.387E-01   0.182E-05 -.732E-05 0.154E-04
   -.132E+00 0.421E+02 0.438E+01   0.128E+00 -.430E+02 -.442E+01   0.311E-02 0.865E+00 0.387E-01   0.182E-05 -.732E-05 0.154E-04
   -.132E+00 0.421E+02 0.438E+01   0.128E+00 -.430E+02 -.442E+01   0.311E-02 0.865E+00 0.387E-01   0.182E-05 -.732E-05 0.154E-04
   -.119E-06 0.239E-07 -.514E+01   -.248E-12 0.149E-12 0.493E+01   -.751E-25 -.388E-25 0.209E+00   0.325E-13 0.673E-14 -.951E-06
   -.119E-06 0.239E-07 -.514E+01   -.216E-12 0.142E-12 0.493E+01   0.436E-25 0.000E+00 0.209E+00   -.811E-12 0.162E-13 -.951E-06
   -.119E-06 0.239E-07 -.514E+01   -.219E-12 0.242E-12 0.493E+01   0.316E-25 -.727E-25 0.209E+00   0.662E-13 -.260E-13 -.951E-06
   -.119E-06 0.239E-07 -.514E+01   -.216E-12 0.199E-12 0.493E+01   -.313E-26 0.646E-25 0.209E+00   -.823E-12 0.176E-12 -.951E-06
   0.239E-07 -.119E-06 -.514E+01   -.853E-13 -.568E-13 0.493E+01   0.152E-25 0.452E-25 0.209E+00   -.390E-12 -.861E-14 -.951E-06
   0.239E-07 -.119E-06 -.514E+01   -.853E-13 0.000E+00 0.493E+01   0.287E-25 0.711E-25 0.209E+00   -.222E-12 0.643E-13 -.951E-06
   0.239E-07 -.119E-06 -.514E+01   -.853E-13 -.284E-13 0.493E+01   -.578E-25 0.000E+00 0.209E+00   -.453E-12 0.590E-13 -.951E-06
   0.239E-07 -.119E-06 -.514E+01   -.568E-13 -.284E-13 0.493E+01   0.257E-25 -.258E-25 0.209E+00   -.178E-12 0.337E-13 -.951E-06
   -.119E-06 0.239E-07 -.514E+01   -.171E-12 0.183E-12 0.493E+01   -.172E-25 0.194E-25 0.209E+00   -.413E-12 -.228E-12 -.951E-06
   -.119E-06 0.239E-07 -.514E+01   -.171E-12 0.254E-12 0.493E+01   0.268E-25 0.194E-25 0.209E+00   -.138E-12 -.144E-12 -.951E-06
   -.119E-06 0.239E-07 -.514E+01   -.171E-12 0.267E-12 0.493E+01   0.294E-25 0.000E+00 0.209E+00   -.271E-12 0.344E-12 -.951E-06
   -.119E-06 0.239E-07 -.514E+01   -.853E-13 0.260E-12 0.493E+01   -.350E-25 0.258E-25 0.209E+00   -.218E-12 0.294E-12 -.951E-06
   0.239E-07 -.119E-06 -.514E+01   -.157E-13 0.336E-13 0.493E+01   0.123E-25 -.258E-25 0.209E+00   -.202E-12 -.269E-12 -.951E-06
   0.239E-07 -.119E-06 -.514E+01   -.132E-13 -.233E-13 0.493E+01   -.143E-25 -.646E-26 0.209E+00   -.678E-12 -.326E-12 -.951E-06
   0.239E-07 -.119E-06 -.514E+01   -.583E-13 0.114E-13 0.493E+01   0.586E-26 0.517E-25 0.209E+00   -.108E-12 0.267E-12 -.951E-06
   0.239E-07 -.119E-06 -.514E+01   0.999E-15 0.114E-13 0.493E+01   -.815E-26 -.129E-25 0.209E+00   -.744E-12 0.351E-12 -.951E-06
   0.242E-08 -.374E-07 -.415E+01   0.810E-14 -.249E-13 0.390E+01   0.373E-25 -.582E-25 0.249E+00   0.510E-13 -.996E-13 0.476E-05
   0.242E-08 -.374E-07 -.415E+01   0.248E-13 -.284E-13 0.390E+01   -.746E-25 -.388E-25 0.249E+00   -.392E-12 -.129E-12 0.476E-05
   0.242E-08 -.374E-07 -.415E+01   0.810E-14 -.746E-13 0.390E+01   -.169E-25 0.969E-26 0.249E+00   0.304E-13 -.114E-12 0.476E-05
   0.242E-08 -.374E-07 -.415E+01   0.532E-13 0.142E-13 0.390E+01   -.431E-25 0.258E-25 0.249E+00   -.353E-12 0.254E-13 0.476E-05
   -.374E-07 0.242E-08 -.415E+01   0.782E-13 -.309E-12 0.390E+01   0.350E-25 -.258E-25 0.249E+00   -.137E-12 -.139E-12 0.476E-05
   -.373E-07 0.242E-08 -.415E+01   0.888E-13 -.316E-12 0.390E+01   -.238E-25 -.103E-24 0.249E+00   0.278E-13 -.104E-12 0.476E-05
   -.374E-07 0.243E-08 -.415E+01   0.462E-13 -.323E-12 0.390E+01   -.389E-25 0.388E-25 0.249E+00   -.141E-12 0.540E-13 0.476E-05
   -.373E-07 0.242E-08 -.415E+01   0.604E-13 -.323E-12 0.390E+01   0.767E-26 0.000E+00 0.249E+00   0.400E-13 -.483E-13 0.476E-05
   0.242E-08 -.373E-07 -.415E+01   0.142E-13 -.103E-12 0.390E+01   -.666E-25 -.687E-26 0.249E+00   -.222E-12 -.265E-12 0.476E-05
   0.242E-08 -.373E-07 -.415E+01   0.568E-13 0.144E-13 0.390E+01   -.106E-24 -.517E-25 0.249E+00   0.644E-13 -.241E-12 0.476E-05
   0.242E-08 -.373E-07 -.415E+01   0.000E+00 -.552E-13 0.390E+01   -.212E-25 -.517E-25 0.249E+00   -.130E-12 0.150E-12 0.476E-05
   0.242E-08 -.373E-07 -.415E+01   0.284E-13 -.553E-13 0.390E+01   0.477E-25 -.646E-25 0.249E+00   -.953E-14 0.179E-12 0.476E-05
   -.374E-07 0.242E-08 -.415E+01   -.383E-14 -.304E-12 0.390E+01   0.377E-25 -.905E-25 0.249E+00   0.142E-12 -.218E-12 0.476E-05
   -.373E-07 0.241E-08 -.415E+01   0.478E-13 -.325E-12 0.390E+01   -.352E-25 -.905E-25 0.249E+00   -.465E-12 -.277E-12 0.476E-05
   -.374E-07 0.242E-08 -.415E+01   0.233E-13 -.338E-12 0.390E+01   -.486E-25 0.872E-25 0.249E+00   0.224E-12 0.450E-13 0.476E-05
   -.374E-07 0.238E-08 -.415E+01   0.323E-13 -.345E-12 0.390E+01   -.642E-25 0.646E-25 0.249E+00   -.504E-12 0.175E-12 0.476E-05
 -----------------------------------------------------------------------------------------------
   -.504E-06 -.504E-06 -.858E+01   0.726E-13 0.264E-13 0.579E-12   0.664E-15 0.155E-14 0.857E+01   -.652E-11 -.218E-12 0.554E-03
 
 
 POSITION                                       TOTAL-FORCE (eV/Angst)
 -----------------------------------------------------------------------------------
      1.33528      1.32418      1.29387         0.001522     -0.000567     -0.003189
      6.59165      1.36084      1.29387         0.001522     -0.000567     -0.003189
      1.37194      6.58055      1.29387         0.001522     -0.000567     -0.003189
      6.62831      6.61721      1.29387         0.001522     -0.000567     -0.003189
      3.95775      3.96885      1.29387        -0.001522      0.000567     -0.003189
      9.21412      4.00551      1.29387        -0.001522      0.000567     -0.003189
      3.99441      9.22521      1.29387        -0.001522      0.000567     -0.003189
      9.25078      9.26187      1.29387        -0.001522      0.000567     -0.003189
      1.34066      3.93942      9.10454         0.000567     -0.001522     -0.003189
      6.59703      3.97608      9.10454         0.000567     -0.001522     -0.003189
      1.37732      9.19579      9.10454         0.000567     -0.001522     -0.003189
      6.63369      9.23245      9.10454         0.000567     -0.001522     -0.003189
      3.95237      1.35361      9.10454        -0.000567      0.001522     -0.003189
      9.20873      1.39027      9.10454        -0.000567      0.001522     -0.003189
      3.98903      6.60998      9.10454        -0.000567      0.001522     -0.003189
      9.24539      6.64664      9.10454        -0.000567      0.001522     -0.003189
      1.31124      1.32233      6.50099        -0.001522      0.000567     -0.003189
      6.56760      1.35899      6.50099        -0.001522      0.000567     -0.003189
      1.34790      6.57870      6.50099        -0.001522      0.000567     -0.003189
      6.60426      6.61536      6.50099        -0.001522      0.000567     -0.003189
      3.98179      3.97070      6.50099         0.001522     -0.000567     -0.003189
      9.23816      4.00736      6.50099         0.001522     -0.000567     -0.003189
      4.01845      9.22706      6.50099         0.001522     -0.000567     -0.003189
      9.27482      9.26372      6.50099         0.001522     -0.000567     -0.003189
      3.95052      1.32957      3.89743         0.000567     -0.001522     -0.003189
      9.20688      1.36623      3.89743         0.000567     -0.001522     -0.003189
      3.98718      6.58593      3.89743         0.000567     -0.001522     -0.003189
      9.24354      6.62259      3.89743         0.000567     -0.001522     -0.003189
      1.34251      3.96346      3.89743        -0.000567      0.001522     -0.003189
      6.59888      4.00012      3.89743        -0.000567      0.001522     -0.003189
      1.37917      9.21983      3.89743        -0.000567      0.001522     -0.003189
      6.63554      9.25649      3.89743        -0.000567      0.001522     -0.003189
      0.00000      0.00000      5.21395         0.000000      0.000000      0.002116
      5.25637      0.03666      5.21395         0.000000      0.000000      0.002116
      0.03666      5.25637      5.21395         0.000000      0.000000      0.002116
      5.29303      5.29303      5.21395         0.000000      0.000000      0.002116
      2.62818      0.01833      2.61039         0.000000      0.000000      0.002116
      7.88455      0.05499      2.61039         0.000000      0.000000      0.002116
      2.66484      5.27470      2.61039         0.000000      0.000000      0.002116
      7.92121      5.31136      2.61039         0.000000      0.000000      0.002116
      2.64651      2.64651      0.00683         0.000000      0.000000      0.002116
      7.90288      2.68317      0.00683         0.000000      0.000000      0.002116
      2.68317      7.90288      0.00683         0.000000      0.000000      0.002116
      7.93954      7.93954      0.00683         0.000000      0.000000      0.002116
      0.01833      2.62818      7.81750         0.000000      0.000000      0.002116
      5.27470      2.66484      7.81750         0.000000      0.000000      0.002116
      0.05499      7.88455      7.81750         0.000000      0.000000      0.002116
      5.31136      7.92121      7.81750         0.000000      0.000000      0.002116
      0.00000      0.00000      0.00899         0.000000      0.000000      0.004262
      5.25637      0.03666      0.00899         0.000000      0.000000      0.004262
      0.03666      5.25637      0.00899         0.000000      0.000000      0.004262
      5.29303      5.29303      0.00899         0.000000      0.000000      0.004262
      2.62818      0.01833      7.81966         0.000000      0.000000      0.004262
      7.88455      0.05499      7.81966         0.000000      0.000000      0.004262
      2.66484      5.27470      7.81966         0.000000      0.000000      0.004262
      7.92121      5.31136      7.81966         0.000000      0.000000      0.004262
      2.64651      2.64651      5.21610         0.000000      0.000000      0.004262
      7.90288      2.68317      5.21610         0.000000      0.000000      0.004262
      2.68317      7.90288      5.21610         0.000000      0.000000      0.004262
      7.93954      7.93954      5.21610         0.000000      0.000000      0.004262
      0.01833      2.62818      2.61254         0.000000      0.000000      0.004262
      5.27470      2.66484      2.61254         0.000000      0.000000      0.004262
      0.05499      7.88455      2.61254         0.000000      0.000000      0.004262
      5.31136      7.92121      2.61254         0.000000      0.000000      0.004262
 -----------------------------------------------------------------------------------
    total drift:                               -0.000001     -0.000001     -0.007949


--------------------------------------------------------------------------------------------------------



  FREE ENERGIE OF THE ION-ELECTRON SYSTEM (eV)
  ---------------------------------------------------
  free  energy   TOTEN  =      -328.10347968 eV

  energy  without entropy=     -328.10347968  energy(sigma->0) =     -328.10347968
 


--------------------------------------------------------------------------------------------------------


    POTLOK:  cpu time    0.1660: real time    0.1668


--------------------------------------------------------------------------------------------------------


 writing wavefunctions
     LOOP+:  cpu time 2833.0464: real time 2853.6018
    4ORBIT:  cpu time    0.0000: real time    0.0000
 


 total charge     
 
# of ion       s       p       d       tot
------------------------------------------
    1        1.313   2.410   0.000   3.724
    2        1.313   2.410   0.000   3.724
    3        1.313   2.410   0.000   3.724
    4        1.313   2.410   0.000   3.724
    5        1.313   2.410   0.000   3.724
    6        1.313   2.410   0.000   3.724
    7        1.313   2.410   0.000   3.724
    8        1.313   2.410   0.000   3.724
    9        1.313   2.411   0.000   3.724
   10        1.313   2.411   0.000   3.724
   11        1.313   2.411   0.000   3.724
   12        1.313   2.411   0.000   3.724
   13        1.313   2.411   0.000   3.724
   14        1.313   2.411   0.000   3.724
   15        1.313   2.411   0.000   3.724
   16        1.313   2.411   0.000   3.724
   17        1.313   2.410   0.000   3.724
   18        1.313   2.410   0.000   3.724
   19        1.313   2.410   0.000   3.724
   20        1.313   2.410   0.000   3.724
   21        1.313   2.410   0.000   3.724
   22        1.313   2.410   0.000   3.724
   23        1.313   2.410   0.000   3.724
   24        1.313   2.410   0.000   3.724
   25        1.313   2.411   0.000   3.724
   26        1.313   2.411   0.000   3.724
   27        1.313   2.411   0.000   3.724
   28        1.313   2.411   0.000   3.724
   29        1.313   2.411   0.000   3.724
   30        1.313   2.411   0.000   3.724
   31        1.313   2.411   0.000   3.724
   32        1.313   2.411   0.000   3.724
   33        0.260   6.202   8.916  15.378
   34        0.260   6.202   8.916  15.378
   35        0.260   6.202   8.916  15.378
   36        0.260   6.202   8.916  15.378
   37        0.260   6.202   8.917  15.378
   38        0.260   6.202   8.917  15.378
   39        0.260   6.202   8.917  15.378
   40        0.260   6.202   8.917  15.378
   41        0.260   6.202   8.916  15.378
   42        0.260   6.202   8.916  15.378
   43        0.260   6.202   8.916  15.378
   44        0.260   6.202   8.916  15.378
   45        0.260   6.202   8.917  15.378
   46        0.260   6.202   8.917  15.378
   47        0.260   6.202   8.917  15.378
   48        0.260   6.202   8.917  15.378
   49        0.350   6.351   5.820  12.521
   50        0.350   6.351   5.820  12.521
   51        0.350   6.351   5.820  12.521
   52        0.350   6.351   5.820  12.521
   53        0.350   6.351   5.820  12.521
   54        0.350   6.351   5.820  12.521
   55        0.350   6.351   5.820  12.521
   56        0.350   6.351   5.820  12.521
   57        0.350   6.351   5.820  12.521
   58        0.350   6.351   5.820  12.521
   59        0.350   6.351   5.820  12.521
   60        0.350   6.351   5.820  12.521
   61        0.350   6.351   5.820  12.521
   62        0.350   6.351   5.820  12.521
   63        0.350   6.351   5.820  12.521
   64        0.350   6.351   5.820  12.521
--------------------------------------------------
tot         51.790 277.981 235.782 565.553
 


 magnetization (x)
 
# of ion       s       p       d       tot
------------------------------------------
    1       -0.000  -0.003   0.000  -0.004
    2       -0.000  -0.003   0.000  -0.004
    3       -0.000  -0.003   0.000  -0.004
    4       -0.000  -0.003   0.000  -0.004
    5       -0.000  -0.003   0.000  -0.004
    6       -0.000  -0.003   0.000  -0.004
    7       -0.000  -0.003   0.000  -0.004
    8       -0.000  -0.003   0.000  -0.004
    9        0.000   0.003   0.000   0.004
   10        0.000   0.003   0.000   0.004
   11        0.000   0.003   0.000   0.004
   12        0.000   0.003   0.000   0.004
   13        0.000   0.003   0.000   0.004
   14        0.000   0.003   0.000   0.004
   15        0.000   0.003   0.000   0.004
   16        0.000   0.003   0.000   0.004
   17       -0.000  -0.003   0.000  -0.004
   18       -0.000  -0.003   0.000  -0.004
   19       -0.000  -0.003   0.000  -0.004
   20       -0.000  -0.003   0.000  -0.004
   21       -0.000  -0.003   0.000  -0.004
   22       -0.000  -0.003   0.000  -0.004
   23       -0.000  -0.003   0.000  -0.004
   24       -0.000  -0.003   0.000  -0.004
   25        0.000   0.003   0.000   0.004
   26        0.000   0.003   0.000   0.004
   27        0.000   0.003   0.000   0.004
   28        0.000   0.003   0.000   0.004
   29        0.000   0.003   0.000   0.004
   30        0.000   0.003   0.000   0.004
   31        0.000   0.003   0.000   0.004
   32        0.000   0.003   0.000   0.004
   33        0.000   0.000  -0.001   0.000
   34        0.000   0.000  -0.001   0.000
   35        0.000   0.000  -0.001   0.000
   36        0.000   0.000  -0.001   0.000
   37       -0.000  -0.000   0.001  -0.000
   38       -0.000  -0.000   0.001  -0.000
   39       -0.000  -0.000   0.001  -0.000
   40       -0.000  -0.000   0.001  -0.000
   41        0.000   0.000  -0.001   0.000
   42        0.000   0.000  -0.001   0.000
   43        0.000   0.000  -0.001   0.000
   44        0.000   0.000  -0.001   0.000
   45       -0.000  -0.000   0.001  -0.000
   46       -0.000  -0.000   0.001  -0.000
   47       -0.000  -0.000   0.001  -0.000
   48       -0.000  -0.000   0.001  -0.000
   49        0.020   0.054   3.671   3.744
   50        0.020   0.054   3.671   3.744
   51        0.020   0.054   3.671   3.744
   52        0.020   0.054   3.671   3.744
   53       -0.020  -0.054  -3.671  -3.744
   54       -0.020  -0.054  -3.671  -3.744
   55       -0.020  -0.054  -3.671  -3.744
   56       -0.020  -0.054  -3.671  -3.744
   57        0.020   0.054   3.671   3.744
   58        0.020   0.054   3.671   3.744
   59        0.020   0.054   3.671   3.744
   60        0.020   0.054   3.671   3.744
   61       -0.020  -0.054  -3.671  -3.744
   62       -0.020  -0.054  -3.671  -3.744
   63       -0.020  -0.054  -3.671  -3.744
   64       -0.020  -0.054  -3.671  -3.744
--------------------------------------------------
tot         -0.000   0.000  -0.000  -0.000
 
 BZINTS: Fermi energy:  4.984505;688.000000 electrons
         Band energy:***********;  BLOECHL correction:  0.000000

 total amount of memory used by VASP MPI-rank0   301249. kBytes
=======================================================================

   base      :      30000. kBytes
   nonl-proj :     175882. kBytes
   fftplans  :       4588. kBytes
   grid      :      69719. kBytes
   one-center:       1990. kBytes
   wavefun   :      19070. kBytes
 
  
  
 General timing and accounting informations for this job:
 ========================================================
  
                  Total CPU time used (sec):     2883.556
                            User time (sec):     2873.998
                          System time (sec):        9.558
                         Elapsed time (sec):     2905.513
  
                   Maximum memory used (kb):      674604.
                   Average memory used (kb):           0.
  
                          Minor page faults:       542105
                          Major page faults:         5677
                 Voluntary context switches:         7212
