 vasp.5.4.4.18Apr17-6-g9f103f2a35 (build Oct 30 2023 17:49:44) complex          
  
 executed on             LinuxIFC date 2024.12.05  03:20:37
 running on  256 total cores
 distrk:  each k-point on  256 cores,    1 groups
 distr:  one band on NCORES_PER_BAND=   1 cores,  256 groups


--------------------------------------------------------------------------------------------------------


 INCAR:
 POTCAR:    PAW_PBE S 06Sep2000                   
 POTCAR:     PAW_PBE Cu_pv 06Sep2000              
 POTCAR:     PAW_PBE Fe_pv 02Aug2007              

 ----------------------------------------------------------------------------- 
|                                                                             |
|           W    W    AA    RRRRR   N    N  II  N    N   GGGG   !!!           |
|           W    W   A  A   R    R  NN   N  II  NN   N  G    G  !!!           |
|           W    W  A    A  R    R  N N  N  II  N N  N  G       !!!           |
|           W WW W  AAAAAA  RRRRR   N  N N  II  N  N N  G  GGG   !            |
|           WW  WW  A    A  R   R   N   NN  II  N   NN  G    G                |
|           W    W  A    A  R    R  N    N  II  N    N   GGGG   !!!           |
|                                                                             |
|      For optimal performance we recommend to set                            |
|        NCORE= 4 - approx SQRT( number of cores)                             |
|      NCORE specifies how many cores store one orbital (NPAR=cpu/NCORE).     |
|      This setting can  greatly improve the performance of VASP for DFT.     |
|      The default,   NCORE=1            might be grossly inefficient         |
|      on modern multi-core architectures or massively parallel machines.     |
|      Do your own testing !!!!                                               |
|      Unfortunately you need to use the default for GW and RPA calculations. |
|      (for HF NCORE is supported but not extensively tested yet)             |
|                                                                             |
 ----------------------------------------------------------------------------- 

 POTCAR:    PAW_PBE S 06Sep2000                   
   SHA256 =  0fc7481fb0695f01bdc6462160264c5c84044ae9ec85a907d398b887a2bc3132 S/
   COPYR  = (c) Copyright 06Sep2000 Georg Kresse                                
   COPYR  = This file is part of the software VASP. Any use, copying, and all ot
   COPYR  = If you do not have a valid VASP license, you may not use, copy or di
   VRHFIN =S : s2p4                                                             
   LEXCH  = PE                                                                  
   EATOM  =   276.8230 eV,   20.3459 Ry                                         
                                                                                
   TITEL  = PAW_PBE S 06Sep2000                                                 
   LULTRA =        F    use ultrasoft PP ?                                      
   IUNSCR =        1    unscreen: 0-lin 1-nonlin 2-no                           
   RPACOR =    1.500    partial core radius                                     
   POMASS =   32.066; ZVAL   =    6.000    mass and valenz                      
   RCORE  =    1.900    outmost cutoff radius                                   
   RWIGS  =    2.200; RWIGS  =    1.164    wigner-seitz radius (au A)           
   ENMAX  =  258.689; ENMIN  =  194.016 eV                                      
   ICORE  =        2    local potential                                         
   LCOR   =        T    correct aug charges                                     
   LPAW   =        T    paw PP                                                  
   EAUG   =  335.092                                                            
   DEXC   =    0.000                                                            
   RMAX   =    1.942    core radius for proj-oper                               
   RAUG   =    1.300    factor for augmentation sphere                          
   RDEP   =    1.954    radius for radial grids                                 
   RDEPT  =    1.744    core radius for aug-charge                              
                                                                                
   Atomic configuration                                                         
    6 entries                                                                   
     n  l   j            E        occ.                                          
     1  0  0.50     -2405.8406   2.0000                                         
     2  0  0.50      -211.7007   2.0000                                         
     2  1  1.50      -156.4958   6.0000                                         
     3  0  0.50       -17.2562   2.0000                                         
     3  1  0.50        -7.0085   4.0000                                         
     3  2  1.50        -6.8029   0.0000                                         
   Description                                                                  
     l       E           TYP  RCUT    TYP  RCUT                                 
     0    -17.2561641     23  1.900                                             
     0    -15.8743224     23  1.900                                             
     1     -7.0085400     23  1.900                                             
     1     -2.7779785     23  1.900                                             
     2     -6.8029130     23  1.900                                             
  local pseudopotential read in
  partial core-charges read in
  partial kinetic energy density read in
  atomic valenz-charges read in
  non local Contribution for L=           0  read in
    real space projection operators read in
  non local Contribution for L=           0  read in
    real space projection operators read in
  non local Contribution for L=           1  read in
    real space projection operators read in
  non local Contribution for L=           1  read in
    real space projection operators read in
    PAW grid and wavefunctions read in
 
   number of l-projection  operators is LMAX  =           4
   number of lm-projection operators is LMMAX =           8
 
 POTCAR:     PAW_PBE Cu_pv 06Sep2000              
   SHA256 =  cb7b504e2ea725fe1f25c85a9ac77d4012ce94cd394135b722c4e25ec297f1cb Cu
   COPYR  = (c) Copyright 06Sep2000 Georg Kresse                                
   COPYR  = This file is part of the software VASP. Any use, copying, and all ot
   COPYR  = If you do not have a valid VASP license, you may not use, copy or di
   VRHFIN =Cu: d10 p1                                                           
   LEXCH  = PE                                                                  
   EATOM  =  4120.1201 eV,  302.8203 Ry                                         
                                                                                
   TITEL  = PAW_PBE Cu_pv 06Sep2000                                             
   LULTRA =        F    use ultrasoft PP ?                                      
   IUNSCR =        1    unscreen: 0-lin 1-nonlin 2-no                           
   RPACOR =    1.500    partial core radius                                     
   POMASS =   63.546; ZVAL   =   17.000    mass and valenz                      
   RCORE  =    2.000    outmost cutoff radius                                   
   RWIGS  =    2.000; RWIGS  =    1.058    wigner-seitz radius (au A)           
   ENMAX  =  368.648; ENMIN  =  276.486 eV                                      
   RCLOC  =    1.304    cutoff for local pot                                    
   LCOR   =        T    correct aug charges                                     
   LPAW   =        T    paw PP                                                  
   EAUG   =  758.233                                                            
   DEXC   =    0.000                                                            
   RMAX   =    2.046    core radius for proj-oper                               
   RAUG   =    1.300    factor for augmentation sphere                          
   RDEP   =    2.025    radius for radial grids                                 
   RDEPT  =    1.558    core radius for aug-charge                              
                                                                                
   Atomic configuration                                                         
    8 entries                                                                   
     n  l   j            E        occ.                                          
     1  0  0.50     -8850.2467   2.0000                                         
     2  0  0.50     -1062.3498   2.0000                                         
     2  1  1.50      -916.8226   6.0000                                         
     3  0  0.50      -114.6929   2.0000                                         
     3  1  1.50       -72.1325   6.0000                                         
     3  2  2.50        -5.0394  10.0000                                         
     4  0  0.50        -4.6097   1.0000                                         
     4  3  2.50        -1.3606   0.0000                                         
   Description                                                                  
     l       E           TYP  RCUT    TYP  RCUT                                 
     1    -72.1324777     23  1.700                                             
     1     -1.3605826     23  1.700                                             
     2     -5.0393776     23  2.000                                             
     2     -6.3999602     23  2.000                                             
     0     -4.6097062     23  1.800                                             
     0     14.1620818     23  1.800                                             
  local pseudopotential read in
  partial core-charges read in
  partial kinetic energy density read in
  atomic valenz-charges read in
  non local Contribution for L=           1  read in
    real space projection operators read in
  non local Contribution for L=           1  read in
    real space projection operators read in
  non local Contribution for L=           2  read in
    real space projection operators read in
  non local Contribution for L=           2  read in
    real space projection operators read in
  non local Contribution for L=           0  read in
    real space projection operators read in
  non local Contribution for L=           0  read in
    real space projection operators read in
    PAW grid and wavefunctions read in
 
   number of l-projection  operators is LMAX  =           6
   number of lm-projection operators is LMMAX =          18
 
 POTCAR:     PAW_PBE Fe_pv 02Aug2007              
   SHA256 =  5d22e414b1f82158bf2c7ecb8b97b28fd0923e48cadc1c3bf74d524558f5dd32 Fe
   COPYR  = (c) Copyright 02Aug2007 Georg Kresse                                
   COPYR  = This file is part of the software VASP. Any use, copying, and all ot
   COPYR  = If you do not have a valid VASP license, you may not use, copy or di
   VRHFIN =Fe:  3pd7s1                                                          
   LEXCH  = PE                                                                  
   EATOM  =  2457.4239 eV,  180.6156 Ry                                         
                                                                                
   TITEL  = PAW_PBE Fe_pv 02Aug2007                                             
   LULTRA =        F    use ultrasoft PP ?                                      
   IUNSCR =        1    unscreen: 0-lin 1-nonlin 2-no                           
   RPACOR =    1.750    partial core radius                                     
   POMASS =   55.847; ZVAL   =   14.000    mass and valenz                      
   RCORE  =    2.200    outmost cutoff radius                                   
   RWIGS  =    2.200; RWIGS  =    1.164    wigner-seitz radius (au A)           
   ENMAX  =  293.238; ENMIN  =  219.928 eV                                      
   ICORE  =        3    local potential                                         
   LCOR   =        T    correct aug charges                                     
   LPAW   =        T    paw PP                                                  
   EAUG   =  578.342                                                            
   DEXC   =    0.000                                                            
   RMAX   =    2.249    core radius for proj-oper                               
   RAUG   =    1.300    factor for augmentation sphere                          
   RDEP   =    2.296    radius for radial grids                                 
   RDEPT  =    1.766    core radius for aug-charge                              
                                                                                
   Atomic configuration                                                         
    8 entries                                                                   
     n  l   j            E        occ.                                          
     1  0  0.50     -6993.8440   2.0000                                         
     2  0  0.50      -814.6047   2.0000                                         
     2  1  1.50      -693.3689   6.0000                                         
     3  0  0.50       -89.4732   2.0000                                         
     3  1  1.50       -55.6373   6.0000                                         
     3  2  2.50        -3.8151   7.0000                                         
     4  0  0.50        -4.2551   1.0000                                         
     4  3  2.50        -1.3606   0.0000                                         
   Description                                                                  
     l       E           TYP  RCUT    TYP  RCUT                                 
     1    -55.6372668     23  2.000                                             
     1     -5.4423304     23  2.000                                             
     2     -3.8151096     23  2.200                                             
     2     -5.1756922     23  2.200                                             
     0     -4.2550951     23  2.200                                             
     0     27.2116520     23  2.200                                             
     3     -1.3605826     23  2.200                                             
  local pseudopotential read in
  partial core-charges read in
  partial kinetic energy density read in
  atomic valenz-charges read in
  non local Contribution for L=           1  read in
    real space projection operators read in
  non local Contribution for L=           1  read in
    real space projection operators read in
  non local Contribution for L=           2  read in
    real space projection operators read in
  non local Contribution for L=           2  read in
    real space projection operators read in
  non local Contribution for L=           0  read in
    real space projection operators read in
  non local Contribution for L=           0  read in
    real space projection operators read in
    PAW grid and wavefunctions read in
 
   number of l-projection  operators is LMAX  =           6
   number of lm-projection operators is LMMAX =          18
 

 ----------------------------------------------------------------------------- 
|                                                                             |
|  ADVICE TO THIS USER RUNNING 'VASP/VAMP'   (HEAR YOUR MASTER'S VOICE ...):  |
|                                                                             |
|      You enforced a specific xc-type in the INCAR file,                     |
|      a different type was found on the POTCAR file                          |
|          I HOPE YOU KNOW, WHAT YOU ARE  DOING                               |
|                                                                             |
 ----------------------------------------------------------------------------- 

  PAW_PBE S 06Sep2000                   :
 energy of atom  1       EATOM= -276.8230
 kinetic energy error for atom=    0.0007 (will be added to EATOM!!)
   PAW_PBE Cu_pv 06Sep2000              :
 energy of atom  2       EATOM=-4120.1201
 kinetic energy error for atom=    0.0094 (will be added to EATOM!!)
   PAW_PBE Fe_pv 02Aug2007              :
 energy of atom  3       EATOM=-2457.4239
 kinetic energy error for atom=    0.0025 (will be added to EATOM!!)
 
 
 POSCAR: Fe4 Cu4 S8                              
  positions in direct lattice
  velocities in cartesian coordinates
 exchange correlation table for  LEXCH =       14
   RHO(1)=    0.500       N(1)  =     2000
   RHO(2)=  100.500       N(2)  =     4000
 


--------------------------------------------------------------------------------------------------------


 ion  position               nearest neighbor table
   1  0.252  0.246  0.125-  11 2.26  10 2.27  16 2.27  13 2.28
   2  0.748  0.746  0.125-  10 2.26  11 2.27  13 2.27  16 2.28
   3  0.250  0.745  0.875-  11 2.26  12 2.26  13 2.27  14 2.27
   4  0.750  0.249  0.875-  11 2.26  12 2.26  13 2.28  14 2.28
   5  0.248  0.246  0.625-  12 2.26   9 2.27  15 2.27  14 2.28
   6  0.752  0.746  0.625-   9 2.26  12 2.27  14 2.27  15 2.28
   7  0.750  0.245  0.375-   9 2.26  10 2.26  15 2.27  16 2.27
   8  0.250  0.749  0.375-   9 2.26  10 2.26  15 2.28  16 2.28
   9  0.999  0.004  0.500-   6 2.26   8 2.26   7 2.26   5 2.27
  10  0.501  0.004  0.250-   2 2.26   8 2.26   7 2.26   1 2.27
  11  0.499  0.504  0.000-   1 2.26   4 2.26   3 2.26   2 2.27
  12  0.001  0.504  0.750-   5 2.26   4 2.26   3 2.26   6 2.27
  13  0.999  0.004  0.000-   2 2.27   3 2.27   4 2.28   1 2.28
  14  0.501  0.004  0.750-   6 2.27   3 2.27   4 2.28   5 2.28
  15  0.499  0.504  0.500-   5 2.27   7 2.27   8 2.28   6 2.28
  16  0.001  0.504  0.250-   1 2.27   7 2.27   8 2.28   2 2.28
 
  LATTYP: Found a simple monoclinic cell.
 ALAT       =    11.8167738252
 B/A-ratio  =     0.4454628583
 C/A-ratio  =     1.8308346741
 COS(beta)  =    -0.9768969993
  
  Lattice vectors:
  
 A1 = (  -5.4362120000,   0.0000000000, -10.4920800000)
 A2 = (   0.0000000000,  -5.2639338435,   0.0000000000)
 A3 = (   5.6176410000,   0.0000000000,  20.8924930000)


Analysis of symmetry for initial positions (statically):
=====================================================================
 Subroutine PRICEL returns following result:
 
  LATTYP: Found a base centered monoclinic cell.
 ALAT       =    11.4895241373
 B/A-ratio  =     0.4581507276
 C/A-ratio  =     0.9053460540
 COS(beta)  =    -0.8085708033
  
  Lattice vectors:
  
 A1 = (  -2.5366770000,  -2.6319669218,   5.1543730000)
 A2 = (  -2.5366770000,   2.6319669218,   5.1543730000)
 A3 = (  -0.1814290000,   0.0000000000, -10.4004130000)
 
   2 primitive cells build up your supercell.
 

 Routine SETGRP: Setting up the symmetry group for a 
 simple monoclinic supercell.


 Subroutine GETGRP returns: Found  2 space group operations
 (whereof  1 operations were pure point group operations)
 out of a pool of  4 trial point group operations.


The static configuration has the point symmetry C_1 .
 The point group associated with its full space group is C_2 .


Analysis of symmetry for dynamics (positions and initial velocities):
=====================================================================
 Subroutine PRICEL returns following result:
 
  LATTYP: Found a base centered monoclinic cell.
 ALAT       =    11.4895241373
 B/A-ratio  =     0.4581507276
 C/A-ratio  =     0.9053460540
 COS(beta)  =    -0.8085708033
  
  Lattice vectors:
  
 A1 = (  -2.5366770000,  -2.6319669218,   5.1543730000)
 A2 = (  -2.5366770000,   2.6319669218,   5.1543730000)
 A3 = (  -0.1814290000,   0.0000000000, -10.4004130000)
 
   2 primitive cells build up your supercell.
 

 Routine SETGRP: Setting up the symmetry group for a 
 simple monoclinic supercell.


 Subroutine GETGRP returns: Found  2 space group operations
 (whereof  1 operations were pure point group operations)
 out of a pool of  4 trial point group operations.


The dynamic configuration has the point symmetry C_1 .
 The point group associated with its full space group is C_2 .


Analysis of structural, dynamic, and magnetic symmetry:
=====================================================================
 Subroutine PRICEL returns following result:
 
  LATTYP: Found a base centered monoclinic cell.
 ALAT       =    11.4895241373
 B/A-ratio  =     0.4581507276
 C/A-ratio  =     0.9053460540
 COS(beta)  =    -0.8085708033
  
  Lattice vectors:
  
 A1 = (  -2.5366770000,  -2.6319669218,   5.1543730000)
 A2 = (  -2.5366770000,   2.6319669218,   5.1543730000)
 A3 = (  -0.1814290000,   0.0000000000, -10.4004130000)
 
   2 primitive cells build up your supercell.
 

 Routine SETGRP: Setting up the symmetry group for a 
 simple monoclinic supercell.


 Subroutine GETGRP returns: Found  2 space group operations
 (whereof  1 operations were pure point group operations)
 out of a pool of  4 trial point group operations.


The (compounded) configuration has the point symmetry C_1 .
 The point group associated with its full space group is C_2 .


 Subroutine INISYM returns: Found  2 space group operations
 (whereof  1 operations are pure point group operations),
 and found     2 'primitive' translations

 
 
 KPOINTS: Automatic mesh                          

Automatic generation of k-mesh.
Space group operators:
 irot       det(A)        alpha          n_x          n_y          n_z        tau_x        tau_y        tau_z
    1     1.000000     0.000001     1.000000     0.000000     0.000000     0.000000     0.000000     0.000000
    2     1.000000   180.000000     0.000000     1.000000     0.000000    -0.500000     0.000000    -0.250000
 
 Subroutine IBZKPT returns following result:
 ===========================================
 
 Found     60 irreducible k-points:
 
 Following reciprocal coordinates:
            Coordinates               Weight
  0.000000  0.000000  0.000000      1.000000
  0.166667  0.000000 -0.000000      2.000000
  0.333333  0.000000 -0.000000      2.000000
  0.500000  0.000000  0.000000      1.000000
  0.000000  0.166667  0.000000      1.000000
  0.166667  0.166667 -0.000000      2.000000
  0.333333  0.166667 -0.000000      2.000000
  0.500000  0.166667  0.000000      1.000000
  0.000000  0.333333  0.000000      1.000000
  0.166667  0.333333 -0.000000      2.000000
  0.333333  0.333333 -0.000000      2.000000
  0.500000  0.333333  0.000000      1.000000
  0.000000  0.500000  0.000000      1.000000
  0.166667  0.500000 -0.000000      2.000000
  0.333333  0.500000 -0.000000      2.000000
  0.500000  0.500000  0.000000      1.000000
  0.000000 -0.333333  0.000000      1.000000
  0.166667 -0.333333 -0.000000      2.000000
  0.333333 -0.333333 -0.000000      2.000000
  0.500000 -0.333333  0.000000      1.000000
  0.000000 -0.166667  0.000000      1.000000
  0.166667 -0.166667 -0.000000      2.000000
  0.333333 -0.166667 -0.000000      2.000000
  0.500000 -0.166667  0.000000      1.000000
  0.000000  0.000000  0.333333      2.000000
  0.166667  0.000000  0.333333      2.000000
  0.333333  0.000000  0.333333      2.000000
  0.500000  0.000000  0.333333      2.000000
 -0.333333  0.000000  0.333333      2.000000
 -0.166667  0.000000  0.333333      2.000000
  0.000000  0.166667  0.333333      2.000000
  0.166667  0.166667  0.333333      2.000000
  0.333333  0.166667  0.333333      2.000000
  0.500000  0.166667  0.333333      2.000000
 -0.333333  0.166667  0.333333      2.000000
 -0.166667  0.166667  0.333333      2.000000
  0.000000  0.333333  0.333333      2.000000
  0.166667  0.333333  0.333333      2.000000
  0.333333  0.333333  0.333333      2.000000
  0.500000  0.333333  0.333333      2.000000
 -0.333333  0.333333  0.333333      2.000000
 -0.166667  0.333333  0.333333      2.000000
  0.000000  0.500000  0.333333      2.000000
  0.166667  0.500000  0.333333      2.000000
  0.333333  0.500000  0.333333      2.000000
  0.500000  0.500000  0.333333      2.000000
 -0.333333  0.500000  0.333333      2.000000
 -0.166667  0.500000  0.333333      2.000000
  0.000000 -0.333333  0.333333      2.000000
  0.166667 -0.333333  0.333333      2.000000
  0.333333 -0.333333  0.333333      2.000000
  0.500000 -0.333333  0.333333      2.000000
 -0.333333 -0.333333  0.333333      2.000000
 -0.166667 -0.333333  0.333333      2.000000
  0.000000 -0.166667  0.333333      2.000000
  0.166667 -0.166667  0.333333      2.000000
  0.333333 -0.166667  0.333333      2.000000
  0.500000 -0.166667  0.333333      2.000000
 -0.333333 -0.166667  0.333333      2.000000
 -0.166667 -0.166667  0.333333      2.000000
 
 Following cartesian coordinates:
            Coordinates               Weight
  0.000000  0.000000  0.000000      1.000000
  0.031727  0.000000 -0.000553      2.000000
  0.063454  0.000000 -0.001107      2.000000
  0.095180  0.000000 -0.001660      1.000000
  0.000000  0.031662  0.000000      1.000000
  0.031727  0.031662 -0.000553      2.000000
  0.063454  0.031662 -0.001107      2.000000
  0.095180  0.031662 -0.001660      1.000000
  0.000000  0.063324  0.000000      1.000000
  0.031727  0.063324 -0.000553      2.000000
  0.063454  0.063324 -0.001107      2.000000
  0.095180  0.063324 -0.001660      1.000000
  0.000000  0.094986  0.000000      1.000000
  0.031727  0.094986 -0.000553      2.000000
  0.063454  0.094986 -0.001107      2.000000
  0.095180  0.094986 -0.001660      1.000000
  0.000000 -0.063324  0.000000      1.000000
  0.031727 -0.063324 -0.000553      2.000000
  0.063454 -0.063324 -0.001107      2.000000
  0.095180 -0.063324 -0.001660      1.000000
  0.000000 -0.031662  0.000000      1.000000
  0.031727 -0.031662 -0.000553      2.000000
  0.063454 -0.031662 -0.001107      2.000000
  0.095180 -0.031662 -0.001660      1.000000
 -0.000559  0.000000  0.032060      2.000000
  0.031168  0.000000  0.031506      2.000000
  0.062894  0.000000  0.030953      2.000000
  0.094621  0.000000  0.030399      2.000000
 -0.064013  0.000000  0.033167      2.000000
 -0.032286  0.000000  0.032613      2.000000
 -0.000559  0.031662  0.032060      2.000000
  0.031168  0.031662  0.031506      2.000000
  0.062894  0.031662  0.030953      2.000000
  0.094621  0.031662  0.030399      2.000000
 -0.064013  0.031662  0.033167      2.000000
 -0.032286  0.031662  0.032613      2.000000
 -0.000559  0.063324  0.032060      2.000000
  0.031168  0.063324  0.031506      2.000000
  0.062894  0.063324  0.030953      2.000000
  0.094621  0.063324  0.030399      2.000000
 -0.064013  0.063324  0.033167      2.000000
 -0.032286  0.063324  0.032613      2.000000
 -0.000559  0.094986  0.032060      2.000000
  0.031168  0.094986  0.031506      2.000000
  0.062894  0.094986  0.030953      2.000000
  0.094621  0.094986  0.030399      2.000000
 -0.064013  0.094986  0.033167      2.000000
 -0.032286  0.094986  0.032613      2.000000
 -0.000559 -0.063324  0.032060      2.000000
  0.031168 -0.063324  0.031506      2.000000
  0.062894 -0.063324  0.030953      2.000000
  0.094621 -0.063324  0.030399      2.000000
 -0.064013 -0.063324  0.033167      2.000000
 -0.032286 -0.063324  0.032613      2.000000
 -0.000559 -0.031662  0.032060      2.000000
  0.031168 -0.031662  0.031506      2.000000
  0.062894 -0.031662  0.030953      2.000000
  0.094621 -0.031662  0.030399      2.000000
 -0.064013 -0.031662  0.033167      2.000000
 -0.032286 -0.031662  0.032613      2.000000
 
 TETIRR: Found    648 inequivalent tetrahedra from      648
 
 Subroutine IBZKPT_HF returns following result:
 ==============================================
 
 Found    108 k-points in 1st BZ
 the following    108 k-points will be used (e.g. in the exchange kernel)
 Following reciprocal coordinates:   # in IRBZ
  0.000000  0.000000  0.000000    0.00925926   1 t-inv F
  0.166667  0.000000 -0.000000    0.00925926   2 t-inv F
  0.333333  0.000000 -0.000000    0.00925926   3 t-inv F
  0.500000  0.000000  0.000000    0.00925926   4 t-inv F
  0.000000  0.166667  0.000000    0.00925926   5 t-inv F
  0.166667  0.166667 -0.000000    0.00925926   6 t-inv F
  0.333333  0.166667 -0.000000    0.00925926   7 t-inv F
  0.500000  0.166667  0.000000    0.00925926   8 t-inv F
  0.000000  0.333333  0.000000    0.00925926   9 t-inv F
  0.166667  0.333333 -0.000000    0.00925926  10 t-inv F
  0.333333  0.333333 -0.000000    0.00925926  11 t-inv F
  0.500000  0.333333  0.000000    0.00925926  12 t-inv F
  0.000000  0.500000  0.000000    0.00925926  13 t-inv F
  0.166667  0.500000 -0.000000    0.00925926  14 t-inv F
  0.333333  0.500000 -0.000000    0.00925926  15 t-inv F
  0.500000  0.500000  0.000000    0.00925926  16 t-inv F
  0.000000 -0.333333  0.000000    0.00925926  17 t-inv F
  0.166667 -0.333333 -0.000000    0.00925926  18 t-inv F
  0.333333 -0.333333 -0.000000    0.00925926  19 t-inv F
  0.500000 -0.333333  0.000000    0.00925926  20 t-inv F
  0.000000 -0.166667  0.000000    0.00925926  21 t-inv F
  0.166667 -0.166667 -0.000000    0.00925926  22 t-inv F
  0.333333 -0.166667 -0.000000    0.00925926  23 t-inv F
  0.500000 -0.166667  0.000000    0.00925926  24 t-inv F
  0.000000  0.000000  0.333333    0.00925926  25 t-inv F
  0.166667  0.000000  0.333333    0.00925926  26 t-inv F
  0.333333  0.000000  0.333333    0.00925926  27 t-inv F
  0.500000  0.000000  0.333333    0.00925926  28 t-inv F
 -0.333333  0.000000  0.333333    0.00925926  29 t-inv F
 -0.166667  0.000000  0.333333    0.00925926  30 t-inv F
  0.000000  0.166667  0.333333    0.00925926  31 t-inv F
  0.166667  0.166667  0.333333    0.00925926  32 t-inv F
  0.333333  0.166667  0.333333    0.00925926  33 t-inv F
  0.500000  0.166667  0.333333    0.00925926  34 t-inv F
 -0.333333  0.166667  0.333333    0.00925926  35 t-inv F
 -0.166667  0.166667  0.333333    0.00925926  36 t-inv F
  0.000000  0.333333  0.333333    0.00925926  37 t-inv F
  0.166667  0.333333  0.333333    0.00925926  38 t-inv F
  0.333333  0.333333  0.333333    0.00925926  39 t-inv F
  0.500000  0.333333  0.333333    0.00925926  40 t-inv F
 -0.333333  0.333333  0.333333    0.00925926  41 t-inv F
 -0.166667  0.333333  0.333333    0.00925926  42 t-inv F
  0.000000  0.500000  0.333333    0.00925926  43 t-inv F
  0.166667  0.500000  0.333333    0.00925926  44 t-inv F
  0.333333  0.500000  0.333333    0.00925926  45 t-inv F
  0.500000  0.500000  0.333333    0.00925926  46 t-inv F
 -0.333333  0.500000  0.333333    0.00925926  47 t-inv F
 -0.166667  0.500000  0.333333    0.00925926  48 t-inv F
  0.000000 -0.333333  0.333333    0.00925926  49 t-inv F
  0.166667 -0.333333  0.333333    0.00925926  50 t-inv F
  0.333333 -0.333333  0.333333    0.00925926  51 t-inv F
  0.500000 -0.333333  0.333333    0.00925926  52 t-inv F
 -0.333333 -0.333333  0.333333    0.00925926  53 t-inv F
 -0.166667 -0.333333  0.333333    0.00925926  54 t-inv F
  0.000000 -0.166667  0.333333    0.00925926  55 t-inv F
  0.166667 -0.166667  0.333333    0.00925926  56 t-inv F
  0.333333 -0.166667  0.333333    0.00925926  57 t-inv F
  0.500000 -0.166667  0.333333    0.00925926  58 t-inv F
 -0.333333 -0.166667  0.333333    0.00925926  59 t-inv F
 -0.166667 -0.166667  0.333333    0.00925926  60 t-inv F
 -0.166667  0.000000  0.000000    0.00925926   2 t-inv F
 -0.333333  0.000000  0.000000    0.00925926   3 t-inv F
 -0.166667  0.166667  0.000000    0.00925926   6 t-inv F
 -0.333333  0.166667  0.000000    0.00925926   7 t-inv F
 -0.166667  0.333333  0.000000    0.00925926  10 t-inv F
 -0.333333  0.333333  0.000000    0.00925926  11 t-inv F
 -0.166667  0.500000  0.000000    0.00925926  14 t-inv F
 -0.333333  0.500000  0.000000    0.00925926  15 t-inv F
 -0.166667 -0.333333  0.000000    0.00925926  18 t-inv F
 -0.333333 -0.333333  0.000000    0.00925926  19 t-inv F
 -0.166667 -0.166667  0.000000    0.00925926  22 t-inv F
 -0.333333 -0.166667  0.000000    0.00925926  23 t-inv F
  0.000000  0.000000 -0.333333    0.00925926  25 t-inv F
 -0.166667  0.000000 -0.333333    0.00925926  26 t-inv F
 -0.333333  0.000000 -0.333333    0.00925926  27 t-inv F
 -0.500000  0.000000 -0.333333    0.00925926  28 t-inv F
  0.333333  0.000000 -0.333333    0.00925926  29 t-inv F
  0.166667  0.000000 -0.333333    0.00925926  30 t-inv F
  0.000000  0.166667 -0.333333    0.00925926  31 t-inv F
 -0.166667  0.166667 -0.333333    0.00925926  32 t-inv F
 -0.333333  0.166667 -0.333333    0.00925926  33 t-inv F
 -0.500000  0.166667 -0.333333    0.00925926  34 t-inv F
  0.333333  0.166667 -0.333333    0.00925926  35 t-inv F
  0.166667  0.166667 -0.333333    0.00925926  36 t-inv F
  0.000000  0.333333 -0.333333    0.00925926  37 t-inv F
 -0.166667  0.333333 -0.333333    0.00925926  38 t-inv F
 -0.333333  0.333333 -0.333333    0.00925926  39 t-inv F
 -0.500000  0.333333 -0.333333    0.00925926  40 t-inv F
  0.333333  0.333333 -0.333333    0.00925926  41 t-inv F
  0.166667  0.333333 -0.333333    0.00925926  42 t-inv F
  0.000000  0.500000 -0.333333    0.00925926  43 t-inv F
 -0.166667  0.500000 -0.333333    0.00925926  44 t-inv F
 -0.333333  0.500000 -0.333333    0.00925926  45 t-inv F
 -0.500000  0.500000 -0.333333    0.00925926  46 t-inv F
  0.333333  0.500000 -0.333333    0.00925926  47 t-inv F
  0.166667  0.500000 -0.333333    0.00925926  48 t-inv F
  0.000000 -0.333333 -0.333333    0.00925926  49 t-inv F
 -0.166667 -0.333333 -0.333333    0.00925926  50 t-inv F
 -0.333333 -0.333333 -0.333333    0.00925926  51 t-inv F
 -0.500000 -0.333333 -0.333333    0.00925926  52 t-inv F
  0.333333 -0.333333 -0.333333    0.00925926  53 t-inv F
  0.166667 -0.333333 -0.333333    0.00925926  54 t-inv F
  0.000000 -0.166667 -0.333333    0.00925926  55 t-inv F
 -0.166667 -0.166667 -0.333333    0.00925926  56 t-inv F
 -0.333333 -0.166667 -0.333333    0.00925926  57 t-inv F
 -0.500000 -0.166667 -0.333333    0.00925926  58 t-inv F
  0.333333 -0.166667 -0.333333    0.00925926  59 t-inv F
  0.166667 -0.166667 -0.333333    0.00925926  60 t-inv F


--------------------------------------------------------------------------------------------------------




 Dimension of arrays:
   k-points           NKPTS =     60   k-points in BZ     NKDIM =     60   number of bands    NBANDS=    256
   number of dos      NEDOS =    301   number of ions     NIONS =     16
   non local maximal  LDIM  =      6   non local SUM 2l+1 LMDIM =     18
   total plane-waves  NPLWV = 207360
   max r-space proj   IRMAX =      1   max aug-charges    IRDMAX=  22912
   dimension x,y,z NGX =    48 NGY =   48 NGZ =   90
   dimension x,y,z NGXF=    96 NGYF=   96 NGZF=  180
   support grid    NGXF=    96 NGYF=   96 NGZF=  180
   ions per type =               8   4   4
   NGX,Y,Z   is equivalent  to a cutoff of  15.18, 15.16, 14.38 a.u.
   NGXF,Y,Z  is equivalent  to a cutoff of  30.37, 30.32, 28.77 a.u.

 SYSTEM =  CuFeS2                                  
 POSCAR =  Fe4 Cu4 S8                              

 Startparameter for this run:
   NWRITE =      2    write-flag & timer
   PREC   = accura    normal or accurate (medium, high low for compatibility)
   ISTART =      1    job   : 0-new  1-cont  2-samecut
   ICHARG =      1    charge: 1-file 2-atom 10-const
   ISPIN  =      1    spin polarized calculation?
   LNONCOLLINEAR =      T non collinear calculations
   LSORBIT =      T    spin-orbit coupling
   INIWAV =      1    electr: 0-lowe 1-rand  2-diag
   LASPH  =      T    aspherical Exc in radial PAW
   METAGGA=      F    non-selfconsistent MetaGGA calc.

 Electronic Relaxation 1
   ENCUT  =  700.0 eV  51.45 Ry    7.17 a.u.  11.34 11.36 22.44*2*pi/ulx,y,z
   ENINI  =  700.0     initial cutoff
   ENAUG  =  758.2 eV  augmentation charge cutoff
   NELM   =    200;   NELMIN=  2; NELMDL=  0     # of ELM steps 
   EDIFF  = 0.1E-07   stopping-criterion for ELM
   LREAL  =      F    real-space projection
   NLSPLINE    = F    spline interpolate recip. space projectors
   LCOMPAT=      F    compatible to vasp.4.4
   GGA_COMPAT  = T    GGA compatible to vasp.4.4-vasp.4.6
   LMAXPAW     = -100 max onsite density
   LMAXMIX     =    4 max onsite mixed and CHGCAR
   VOSKOWN=      0    Vosko Wilk Nusair interpolation
   ROPT   =    0.00000   0.00000   0.00000
 Ionic relaxation
   EDIFFG = -.1E-04   stopping-criterion for IOM
   NSW    =      0    number of steps for IOM
   NBLOCK =      1;   KBLOCK =      1    inner block; outer block 
   IBRION =     -1    ionic relax: 0-MD 1-quasi-New 2-CG
   NFREE  =      0    steps in history (QN), initial steepest desc. (CG)
   ISIF   =      2    stress and relaxation
   IWAVPR =     10    prediction:  0-non 1-charg 2-wave 3-comb
   ISYM   =      2    0-nonsym 1-usesym 2-fastsym
   LCORR  =      T    Harris-Foulkes like correction to forces

   POTIM  = 0.5000    time-step for ionic-motion
   TEIN   =    0.0    initial temperature
   TEBEG  =    0.0;   TEEND  =   0.0 temperature during run
   SMASS  =  -3.00    Nose mass-parameter (am)
   estimated Nose-frequenzy (Omega)   =  0.10E-29 period in steps =****** mass=  -0.631E-27a.u.
   SCALEE = 1.0000    scale energy and forces
   NPACO  =    256;   APACO  = 16.0  distance and # of slots for P.C.
   PSTRESS=    0.0 pullay stress

  Mass of Ions in am
   POMASS =  32.07 63.55 55.85
  Ionic Valenz
   ZVAL   =   6.00 17.00 14.00
  Atomic Wigner-Seitz radii
   RWIGS  =  -1.00 -1.00 -1.00
  virtual crystal weights 
   VCA    =   1.00  1.00  1.00
   NELECT =     172.0000    total number of electrons
   NUPDOWN=      -1.0000    fix difference up-down

 DOS related values:
   EMIN   =  10.00;   EMAX   =-10.00  energy-range for DOS
   EFERMI =   0.00
   ISMEAR =    -5;   SIGMA  =   0.03  broadening in eV -4-tet -1-fermi 0-gaus

 Electronic relaxation 2 (details)
   IALGO  =     38    algorithm
   LDIAG  =      T    sub-space diagonalisation (order eigenvalues)
   LSUBROT=      F    optimize rotation matrix (better conditioning)
   TURBO    =      0    0=normal 1=particle mesh
   IRESTART =      0    0=no restart 2=restart with 2 vectors
   NREBOOT  =      0    no. of reboots
   NMIN     =      0    reboot dimension
   EREF     =   0.00    reference energy to select bands
   IMIX   =      4    mixing-type and parameters
     AMIX     =   0.40;   BMIX     =  1.00
     AMIX_MAG =   1.60;   BMIX_MAG =  1.00
     AMIN     =   0.10
     WC   =   100.;   INIMIX=   1;  MIXPRE=   1;  MAXMIX= -45

 Intra band minimization:
   WEIMIN = 0.0000     energy-eigenvalue tresh-hold
   EBREAK =  0.98E-11  absolut break condition
   DEPER  =   0.30     relativ break condition  

   TIME   =   0.40     timestep for ELM

  volume/ion in A,a.u.               =      17.97       121.30
  Fermi-wavevector in a.u.,A,eV,Ry     =   1.379293  2.606485 25.884382  1.902448
  Thomas-Fermi vector in A             =   2.504276
 
 Write flags
   LWAVE        =      T    write WAVECAR
   LDOWNSAMPLE  =      F    k-point downsampling of WAVECAR
   LCHARG       =      T    write CHGCAR
   LVTOT        =      F    write LOCPOT, total local potential
   LVHAR        =      F    write LOCPOT, Hartree potential only
   LELF         =      F    write electronic localiz. function (ELF)
   LORBIT       =     11    0 simple, 1 ext, 2 COOP (PROOUT), +10 PAW based schemes


 Dipole corrections
   LMONO  =      F    monopole corrections only (constant potential shift)
   LDIPOL =      F    correct potential (dipole corrections)
   IDIPOL =      0    1-x, 2-y, 3-z, 4-all directions 
   EPSILON=  1.0000000 bulk dielectric constant

 LDA+U is selected, type is set to LDAUTYPE =  2
   angular momentum for each species LDAUL =     2    2    2
   U (eV)           for each species LDAUU =   0.0  0.1  4.7
   J (eV)           for each species LDAUJ =   0.0  0.0  0.0
 Exchange correlation treatment:
   GGA     =    PS    GGA type
   LEXCH   =    14    internal setting for exchange type
   VOSKOWN=      0    Vosko Wilk Nusair interpolation
   LHFCALC =     F    Hartree Fock is set to
   LHFONE  =     F    Hartree Fock one center treatment
   AEXX    =    0.0000 exact exchange contribution

 Linear response parameters
   LEPSILON=     F    determine dielectric tensor
   LRPA    =     F    only Hartree local field effects (RPA)
   LNABLA  =     F    use nabla operator in PAW spheres
   LVEL    =     F    velocity operator in full k-point grid
   LINTERFAST=   F  fast interpolation
   KINTER  =     0    interpolate to denser k-point grid
   CSHIFT  =0.1000    complex shift for real part using Kramers Kronig
   OMEGAMAX=  -1.0    maximum frequency
   DEG_THRESHOLD= 0.2000000E-02 threshold for treating states as degnerate
   RTIME   =   -0.100 relaxation time in fs
  (WPLASMAI=    0.000 imaginary part of plasma frequency in eV, 0.658/RTIME)
   DFIELD  = 0.0000000 0.0000000 0.0000000 field for delta impulse in time
 
 Orbital magnetization related:
   ORBITALMAG=     F  switch on orbital magnetization
   LCHIMAG   =     F  perturbation theory with respect to B field
   DQ        =  0.001000  dq finite difference perturbation B field
   LLRAUG    =     F  two centre corrections for induced B field

 PEAD related settings:
   LPEAD      =     T    switch on PEAD
   IPEAD      =     4    finite difference order for dpsi/dk
   LCALCPOL   =     T    calculate macroscopic polarization
   LCALCEPS   =     F    calculate dielectric tensor
   EFIELD_PEAD=    0.0000    0.0000    0.0000
   SKIP_EDOTP =     F
   LRPA       =     F
   SKIP_SCF   =     F


--------------------------------------------------------------------------------------------------------


 Static calculation
 charge density and potential will be updated during run
 non collinear spin polarized calculation
 Variant of blocked Davidson
 Davidson routine will perform the subspace rotation
 perform sub-space diagonalisation
    after iterative eigenvector-optimisation
 modified Broyden-mixing scheme, WC =      100.0
 initial mixing is a Kerker type mixing with AMIX =  0.4000 and BMIX =      1.0000
 Hartree-type preconditioning will be used
 using additional bands          170
 reciprocal scheme for non local part
 use partial core corrections
 calculate Harris-corrections to forces 
   (improved forces if not selfconsistent)
 use gradient corrections 
 use of overlap-Matrix (Vanderbilt PP)
 Fermi weights with tetrahedron method with Bloechl corrections


--------------------------------------------------------------------------------------------------------


  energy-cutoff  :      700.00
  volume of cell :      287.60
      direct lattice vectors                 reciprocal lattice vectors
     5.254783000  0.000000000  0.091667000     0.190360744  0.000000000 -0.003320730
     0.000000000  5.263933844  0.000000000     0.000000000  0.189971992  0.000000000
     0.181429000  0.000000000 10.400413000    -0.001677799  0.000000000  0.096179296

  length of vectors
     5.255582481  5.263933844 10.401995340     0.190389706  0.189971992  0.096193929


 
 old parameters found on file WAVECAR:
  energy-cutoff  :      700.00
  volume of cell :      287.32
      direct lattice vectors                 reciprocal lattice vectors
     5.254783000  0.000000000  0.091667000     0.190360744  0.000000000 -0.003320730
     0.000000000  5.258786000  0.000000000     0.000000000  0.190157957  0.000000000
     0.181429000  0.000000000 10.400413000    -0.001677799  0.000000000  0.096179296

  length of vectors

 
 k-points in units of 2pi/SCALE and weight: Automatic mesh                          
   0.00000000  0.00000000  0.00000000       0.009
   0.03172679  0.00000000 -0.00055345       0.019
   0.06345358  0.00000000 -0.00110691       0.019
   0.09518037  0.00000000 -0.00166036       0.009
   0.00000000  0.03166200  0.00000000       0.009
   0.03172679  0.03166200 -0.00055345       0.019
   0.06345358  0.03166200 -0.00110691       0.019
   0.09518037  0.03166200 -0.00166036       0.009
   0.00000000  0.06332400  0.00000000       0.009
   0.03172679  0.06332400 -0.00055345       0.019
   0.06345358  0.06332400 -0.00110691       0.019
   0.09518037  0.06332400 -0.00166036       0.009
   0.00000000  0.09498600  0.00000000       0.009
   0.03172679  0.09498600 -0.00055345       0.019
   0.06345358  0.09498600 -0.00110691       0.019
   0.09518037  0.09498600 -0.00166036       0.009
   0.00000000 -0.06332400  0.00000000       0.009
   0.03172679 -0.06332400 -0.00055345       0.019
   0.06345358 -0.06332400 -0.00110691       0.019
   0.09518037 -0.06332400 -0.00166036       0.009
   0.00000000 -0.03166200  0.00000000       0.009
   0.03172679 -0.03166200 -0.00055345       0.019
   0.06345358 -0.03166200 -0.00110691       0.019
   0.09518037 -0.03166200 -0.00166036       0.009
  -0.00055927  0.00000000  0.03205977       0.019
   0.03116752  0.00000000  0.03150631       0.019
   0.06289432  0.00000000  0.03095286       0.019
   0.09462111  0.00000000  0.03039940       0.019
  -0.06401285  0.00000000  0.03316668       0.019
  -0.03228606  0.00000000  0.03261322       0.019
  -0.00055927  0.03166200  0.03205977       0.019
   0.03116752  0.03166200  0.03150631       0.019
   0.06289432  0.03166200  0.03095286       0.019
   0.09462111  0.03166200  0.03039940       0.019
  -0.06401285  0.03166200  0.03316668       0.019
  -0.03228606  0.03166200  0.03261322       0.019
  -0.00055927  0.06332400  0.03205977       0.019
   0.03116752  0.06332400  0.03150631       0.019
   0.06289432  0.06332400  0.03095286       0.019
   0.09462111  0.06332400  0.03039940       0.019
  -0.06401285  0.06332400  0.03316668       0.019
  -0.03228606  0.06332400  0.03261322       0.019
  -0.00055927  0.09498600  0.03205977       0.019
   0.03116752  0.09498600  0.03150631       0.019
   0.06289432  0.09498600  0.03095286       0.019
   0.09462111  0.09498600  0.03039940       0.019
  -0.06401285  0.09498600  0.03316668       0.019
  -0.03228606  0.09498600  0.03261322       0.019
  -0.00055927 -0.06332400  0.03205977       0.019
   0.03116752 -0.06332400  0.03150631       0.019
   0.06289432 -0.06332400  0.03095286       0.019
   0.09462111 -0.06332400  0.03039940       0.019
  -0.06401285 -0.06332400  0.03316668       0.019
  -0.03228606 -0.06332400  0.03261322       0.019
  -0.00055927 -0.03166200  0.03205977       0.019
   0.03116752 -0.03166200  0.03150631       0.019
   0.06289432 -0.03166200  0.03095286       0.019
   0.09462111 -0.03166200  0.03039940       0.019
  -0.06401285 -0.03166200  0.03316668       0.019
  -0.03228606 -0.03166200  0.03261322       0.019
 
 k-points in reciprocal lattice and weights: Automatic mesh                          
   0.00000000  0.00000000  0.00000000       0.009
   0.16666667  0.00000000 -0.00000000       0.019
   0.33333333  0.00000000 -0.00000000       0.019
   0.50000000  0.00000000  0.00000000       0.009
   0.00000000  0.16666667  0.00000000       0.009
   0.16666667  0.16666667 -0.00000000       0.019
   0.33333333  0.16666667 -0.00000000       0.019
   0.50000000  0.16666667  0.00000000       0.009
   0.00000000  0.33333333  0.00000000       0.009
   0.16666667  0.33333333 -0.00000000       0.019
   0.33333333  0.33333333 -0.00000000       0.019
   0.50000000  0.33333333  0.00000000       0.009
   0.00000000  0.50000000  0.00000000       0.009
   0.16666667  0.50000000 -0.00000000       0.019
   0.33333333  0.50000000 -0.00000000       0.019
   0.50000000  0.50000000  0.00000000       0.009
   0.00000000 -0.33333333  0.00000000       0.009
   0.16666667 -0.33333333 -0.00000000       0.019
   0.33333333 -0.33333333 -0.00000000       0.019
   0.50000000 -0.33333333  0.00000000       0.009
   0.00000000 -0.16666667  0.00000000       0.009
   0.16666667 -0.16666667 -0.00000000       0.019
   0.33333333 -0.16666667 -0.00000000       0.019
   0.50000000 -0.16666667  0.00000000       0.009
   0.00000000  0.00000000  0.33333333       0.019
   0.16666667  0.00000000  0.33333333       0.019
   0.33333333  0.00000000  0.33333333       0.019
   0.50000000  0.00000000  0.33333333       0.019
  -0.33333333  0.00000000  0.33333333       0.019
  -0.16666667  0.00000000  0.33333333       0.019
   0.00000000  0.16666667  0.33333333       0.019
   0.16666667  0.16666667  0.33333333       0.019
   0.33333333  0.16666667  0.33333333       0.019
   0.50000000  0.16666667  0.33333333       0.019
  -0.33333333  0.16666667  0.33333333       0.019
  -0.16666667  0.16666667  0.33333333       0.019
   0.00000000  0.33333333  0.33333333       0.019
   0.16666667  0.33333333  0.33333333       0.019
   0.33333333  0.33333333  0.33333333       0.019
   0.50000000  0.33333333  0.33333333       0.019
  -0.33333333  0.33333333  0.33333333       0.019
  -0.16666667  0.33333333  0.33333333       0.019
   0.00000000  0.50000000  0.33333333       0.019
   0.16666667  0.50000000  0.33333333       0.019
   0.33333333  0.50000000  0.33333333       0.019
   0.50000000  0.50000000  0.33333333       0.019
  -0.33333333  0.50000000  0.33333333       0.019
  -0.16666667  0.50000000  0.33333333       0.019
   0.00000000 -0.33333333  0.33333333       0.019
   0.16666667 -0.33333333  0.33333333       0.019
   0.33333333 -0.33333333  0.33333333       0.019
   0.50000000 -0.33333333  0.33333333       0.019
  -0.33333333 -0.33333333  0.33333333       0.019
  -0.16666667 -0.33333333  0.33333333       0.019
   0.00000000 -0.16666667  0.33333333       0.019
   0.16666667 -0.16666667  0.33333333       0.019
   0.33333333 -0.16666667  0.33333333       0.019
   0.50000000 -0.16666667  0.33333333       0.019
  -0.33333333 -0.16666667  0.33333333       0.019
  -0.16666667 -0.16666667  0.33333333       0.019
 
 position of ions in fractional coordinates (direct lattice) 
   0.25244953  0.24562455  0.12538069
   0.74755047  0.74562455  0.12461931
   0.25000000  0.74462901  0.87500000
   0.75000000  0.24928081  0.87500000
   0.24755047  0.24562455  0.62461931
   0.75244953  0.74562455  0.62538069
   0.75000000  0.24462901  0.37500000
   0.25000000  0.74928081  0.37500000
   0.99859991  0.00375383  0.50000445
   0.50140009  0.00375383  0.24999555
   0.49859991  0.50375383  0.00000445
   0.00140009  0.50375383  0.74999555
   0.99932934  0.00366671  0.00006858
   0.50067066  0.00366671  0.74993142
   0.49932934  0.50366671  0.50006858
   0.00067066  0.50366671  0.24993142
 
 position of ions in cartesian coordinates  (Angst):
   1.34931521  1.29295138  1.32715222
   3.95082504  3.92491830  1.36461803
   1.47244612  3.91967787  9.12327813
   4.09983763  1.31219771  9.16911163
   1.41414804  1.29295138  6.51899103
   4.06742121  3.92491830  6.57319222
   4.00912312  1.28771095  3.96890513
   1.38173163  3.94416463  3.92307162
   5.33814111  0.01975992  5.29179148
   2.68010514  0.01975992  2.64601877
   2.62003511  2.65172684  0.04575148
   0.14342814  2.65172684  7.80039177
   5.25127129  0.01930130  0.09231877
   2.76697496  0.01930130  7.84549148
   2.71459429  2.65126822  5.24669177
   0.04886896  2.65126822  2.59945148
 
 Euler angles ALPHA=     0.0000000  BETA=     0.0000000

 transformation matrix from SAXIS to cartesian coordinates
 ---------------------------------------------------------
     1.0000000 m_x     0.0000000 m_y     0.0000000 m_z
     0.0000000 m_x     1.0000000 m_y     0.0000000 m_z
     0.0000000 m_x     0.0000000 m_y     1.0000000 m_z

 transformation matrix from cartesian coordinates to SAXIS
 ---------------------------------------------------------
     1.0000000 m_x     0.0000000 m_y     0.0000000 m_z
     0.0000000 m_x     1.0000000 m_y     0.0000000 m_z
     0.0000000 m_x     0.0000000 m_y     1.0000000 m_z




--------------------------------------------------------------------------------------------------------


 k-point  1 :   0.0000 0.0000 0.0000  plane waves:   24254
 k-point  2 :   0.1667 0.0000-0.0000  plane waves:   24172
 k-point  3 :   0.3333 0.0000-0.0000  plane waves:   24192
 k-point  4 :   0.5000 0.0000 0.0000  plane waves:   24248
 k-point  5 :   0.0000 0.1667 0.0000  plane waves:   24238
 k-point  6 :   0.1667 0.1667-0.0000  plane waves:   24198
 k-point  7 :   0.3333 0.1667-0.0000  plane waves:   24194
 k-point  8 :   0.5000 0.1667 0.0000  plane waves:   24216
 k-point  9 :   0.0000 0.3333 0.0000  plane waves:   24202
 k-point 10 :   0.1667 0.3333-0.0000  plane waves:   24220
 k-point 11 :   0.3333 0.3333-0.0000  plane waves:   24164
 k-point 12 :   0.5000 0.3333 0.0000  plane waves:   24156
 k-point 13 :   0.0000 0.5000 0.0000  plane waves:   24236
 k-point 14 :   0.1667 0.5000-0.0000  plane waves:   24236
 k-point 15 :   0.3333 0.5000-0.0000  plane waves:   24124
 k-point 16 :   0.5000 0.5000 0.0000  plane waves:   24128
 k-point 17 :   0.0000-0.3333 0.0000  plane waves:   24202
 k-point 18 :   0.1667-0.3333-0.0000  plane waves:   24220
 k-point 19 :   0.3333-0.3333-0.0000  plane waves:   24164
 k-point 20 :   0.5000-0.3333 0.0000  plane waves:   24156
 k-point 21 :   0.0000-0.1667 0.0000  plane waves:   24238
 k-point 22 :   0.1667-0.1667-0.0000  plane waves:   24198
 k-point 23 :   0.3333-0.1667-0.0000  plane waves:   24194
 k-point 24 :   0.5000-0.1667 0.0000  plane waves:   24216
 k-point 25 :   0.0000 0.0000 0.3333  plane waves:   24180
 k-point 26 :   0.1667 0.0000 0.3333  plane waves:   24208
 k-point 27 :   0.3333 0.0000 0.3333  plane waves:   24198
 k-point 28 :   0.5000 0.0000 0.3333  plane waves:   24204
 k-point 29 :  -0.3333 0.0000 0.3333  plane waves:   24204
 k-point 30 :  -0.1667 0.0000 0.3333  plane waves:   24218
 k-point 31 :   0.0000 0.1667 0.3333  plane waves:   24208
 k-point 32 :   0.1667 0.1667 0.3333  plane waves:   24192
 k-point 33 :   0.3333 0.1667 0.3333  plane waves:   24188
 k-point 34 :   0.5000 0.1667 0.3333  plane waves:   24210
 k-point 35 :  -0.3333 0.1667 0.3333  plane waves:   24200
 k-point 36 :  -0.1667 0.1667 0.3333  plane waves:   24192
 k-point 37 :   0.0000 0.3333 0.3333  plane waves:   24184
 k-point 38 :   0.1667 0.3333 0.3333  plane waves:   24168
 k-point 39 :   0.3333 0.3333 0.3333  plane waves:   24164
 k-point 40 :   0.5000 0.3333 0.3333  plane waves:   24150
 k-point 41 :  -0.3333 0.3333 0.3333  plane waves:   24164
 k-point 42 :  -0.1667 0.3333 0.3333  plane waves:   24176
 k-point 43 :   0.0000 0.5000 0.3333  plane waves:   24228
 k-point 44 :   0.1667 0.5000 0.3333  plane waves:   24180
 k-point 45 :   0.3333 0.5000 0.3333  plane waves:   24172
 k-point 46 :   0.5000 0.5000 0.3333  plane waves:   24116
 k-point 47 :  -0.3333 0.5000 0.3333  plane waves:   24144
 k-point 48 :  -0.1667 0.5000 0.3333  plane waves:   24232
 k-point 49 :   0.0000-0.3333 0.3333  plane waves:   24184
 k-point 50 :   0.1667-0.3333 0.3333  plane waves:   24168
 k-point 51 :   0.3333-0.3333 0.3333  plane waves:   24164
 k-point 52 :   0.5000-0.3333 0.3333  plane waves:   24150
 k-point 53 :  -0.3333-0.3333 0.3333  plane waves:   24164
 k-point 54 :  -0.1667-0.3333 0.3333  plane waves:   24176
 k-point 55 :   0.0000-0.1667 0.3333  plane waves:   24208
 k-point 56 :   0.1667-0.1667 0.3333  plane waves:   24192
 k-point 57 :   0.3333-0.1667 0.3333  plane waves:   24188
 k-point 58 :   0.5000-0.1667 0.3333  plane waves:   24210
 k-point 59 :  -0.3333-0.1667 0.3333  plane waves:   24200
 k-point 60 :  -0.1667-0.1667 0.3333  plane waves:   24192

 maximum and minimum number of plane-waves per node :     24254    24116

 maximum number of plane-waves:     24254
 maximum index in each direction: 
   IXMAX=   11   IYMAX=   11   IZMAX=   22
   IXMIN=  -11   IYMIN=  -11   IZMIN=  -22


 serial   3D FFT for wavefunctions
 parallel 3D FFT for charge:
    minimum data exchange during FFTs selected (reduces bandwidth)


 total amount of memory used by VASP MPI-rank0   410429. kBytes
=======================================================================

   base      :      30000. kBytes
   nonl-proj :     321650. kBytes
   fftplans  :       2735. kBytes
   grid      :      30965. kBytes
   one-center:        995. kBytes
   wavefun   :      24084. kBytes
 
     INWAV:  cpu time   15.6623: real time   15.9048
 Broyden mixing: mesh for mixing (old mesh)
   NGX = 23   NGY = 23   NGZ = 45
  (NGX  = 96   NGY  = 96   NGZ  =180)
  gives a total of  23805 points

 initial charge density was supplied:
 number of electron     172.0000065 magnetization       0.0000000     -0.0000020     -0.0000000
 keeping initial charge density in first step


--------------------------------------------------------------------------------------------------------


 Maximum index for augmentation-charges          896 (set IRDMAX)


--------------------------------------------------------------------------------------------------------


 First call to EWALD:  gamma=   0.269
 Maximum number of real-space cells 3x 3x 2
 Maximum number of reciprocal cells 2x 2x 4

    FEWALD:  cpu time    0.0015: real time    0.0015


--------------------------------------- Iteration      1(   1)  ---------------------------------------


    POTLOK:  cpu time    0.2616: real time    0.3049
    SETDIJ:  cpu time    0.6044: real time    0.6064
     EDDAV:  cpu time   78.8083: real time   79.3477
 BZINTS: Fermi energy:  4.913807;172.000000 electrons
         Band energy:***********;  BLOECHL correction:  0.000000
       DOS:  cpu time    0.0401: real time    0.0403
    CHARGE:  cpu time    1.4740: real time    1.4858
    MIXING:  cpu time    0.0031: real time    0.0031
    --------------------------------------------
      LOOP:  cpu time   81.1916: real time   81.7882

 eigenvalue-minimisations  : 30720
 total energy-change (2. order) :-0.8222607E+02  (-0.1934447E+00)
 number of electron     172.0000065 magnetization       0.0000000      0.0001547     -0.0000000
 augmentation part       70.5556596 magnetization       0.0000000     -0.0001813     -0.0000000

 Broyden mixing:
  rms(total) = 0.79092E-01    rms(broyden)= 0.79092E-01
  rms(prec ) = 0.79152E-01
  weight for this iteration     100.00

 Free energy of the ion-electron system (eV)
  ---------------------------------------------------
  alpha Z        PSCENC =       589.18276830
  Ewald energy   TEWEN  =    -15619.25931351
  -Hartree energ DENC   =    -10737.58241487
  -exchange      EXHF   =         0.00000000
  -V(xc)+E(xc)   XCENC  =       821.63119153
  PAW double counting   =     28067.29188170   -28990.71392465
  entropy T*S    EENTRO =         0.00000000
  eigenvalues    EBANDS =     -2717.79254030
  atomic energy  EATOM  =     28505.01627691
  Solvation  Ediel_sol  =         0.00000000
  ---------------------------------------------------
  free energy    TOTEN  =       -82.22607489 eV

  energy without entropy =      -82.22607489  energy(sigma->0) =      -82.22607489


--------------------------------------------------------------------------------------------------------




--------------------------------------- Iteration      1(   2)  ---------------------------------------


    POTLOK:  cpu time    0.1366: real time    0.1382
    SETDIJ:  cpu time    0.6027: real time    0.6045
     EDDAV:  cpu time   82.1997: real time   82.6380
 BZINTS: Fermi energy:  5.006347;172.000000 electrons
         Band energy:***********;  BLOECHL correction:  0.000000
       DOS:  cpu time    0.0407: real time    0.0408
    CHARGE:  cpu time    1.4806: real time    1.4935
    MIXING:  cpu time    0.0023: real time    0.0058
    --------------------------------------------
      LOOP:  cpu time   84.4626: real time   84.9210

 eigenvalue-minimisations  : 30720
 total energy-change (2. order) :-0.8880869E-02  (-0.6475203E-02)
 number of electron     172.0000065 magnetization       0.0000000      0.0002582     -0.0000000
 augmentation part       70.5563530 magnetization       0.0000000     -0.0002474     -0.0000000

 Broyden mixing:
  rms(total) = 0.47323E-01    rms(broyden)= 0.47323E-01
  rms(prec ) = 0.47615E-01
  weight for this iteration     100.00

 eigenvalues of (default mixing * dielectric matrix)
  average eigenvalue GAMMA=   0.6355
  0.6355

 Free energy of the ion-electron system (eV)
  ---------------------------------------------------
  alpha Z        PSCENC =       589.18276830
  Ewald energy   TEWEN  =    -15619.25931351
  -Hartree energ DENC   =    -10737.30882762
  -exchange      EXHF   =         0.00000000
  -V(xc)+E(xc)   XCENC  =       821.61759810
  PAW double counting   =     28068.18763290   -28991.58531114
  entropy T*S    EENTRO =         0.00000000
  eigenvalues    EBANDS =     -2718.08577970
  atomic energy  EATOM  =     28505.01627691
  Solvation  Ediel_sol  =         0.00000000
  ---------------------------------------------------
  free energy    TOTEN  =       -82.23495576 eV

  energy without entropy =      -82.23495576  energy(sigma->0) =      -82.23495576


--------------------------------------------------------------------------------------------------------




--------------------------------------- Iteration      1(   3)  ---------------------------------------


    POTLOK:  cpu time    0.1384: real time    0.1394
    SETDIJ:  cpu time    0.6035: real time    0.6054
     EDDAV:  cpu time  327.3299: real time  328.9309
 BZINTS: Fermi energy:  4.838343;172.000000 electrons
         Band energy:***********;  BLOECHL correction:  0.000000
       DOS:  cpu time    0.0409: real time    0.0411
    CHARGE:  cpu time    1.4829: real time    1.4960
    MIXING:  cpu time    0.0015: real time    0.0015
    --------------------------------------------
      LOOP:  cpu time  329.5973: real time  331.2144

 eigenvalue-minimisations  : 56576
 total energy-change (2. order) :-0.1125101E-02  (-0.1620428E-02)
 number of electron     172.0000065 magnetization       0.0000000      0.0002116     -0.0000000
 augmentation part       70.5574996 magnetization       0.0000000     -0.0001267     -0.0000000

 Broyden mixing:
  rms(total) = 0.14156E-01    rms(broyden)= 0.14156E-01
  rms(prec ) = 0.15203E-01
  weight for this iteration     100.00

 eigenvalues of (default mixing * dielectric matrix)
  average eigenvalue GAMMA=   0.5925
  0.6677  0.5173

 Free energy of the ion-electron system (eV)
  ---------------------------------------------------
  alpha Z        PSCENC =       589.18276830
  Ewald energy   TEWEN  =    -15619.25931351
  -Hartree energ DENC   =    -10737.47784018
  -exchange      EXHF   =         0.00000000
  -V(xc)+E(xc)   XCENC  =       821.62603484
  PAW double counting   =     28068.91539051   -28992.33194928
  entropy T*S    EENTRO =         0.00000000
  eigenvalues    EBANDS =     -2717.90744845
  atomic energy  EATOM  =     28505.01627691
  Solvation  Ediel_sol  =         0.00000000
  ---------------------------------------------------
  free energy    TOTEN  =       -82.23608086 eV

  energy without entropy =      -82.23608086  energy(sigma->0) =      -82.23608086


--------------------------------------------------------------------------------------------------------




--------------------------------------- Iteration      1(   4)  ---------------------------------------


    POTLOK:  cpu time    0.1369: real time    0.1381
    SETDIJ:  cpu time    0.5983: real time    0.6001
     EDDAV:  cpu time   96.6977: real time   97.2116
 BZINTS: Fermi energy:  4.891968;172.000000 electrons
         Band energy:***********;  BLOECHL correction:  0.000000
       DOS:  cpu time    0.0346: real time    0.0347
    CHARGE:  cpu time    1.4752: real time    1.4877
    MIXING:  cpu time    0.0017: real time    0.0017
    --------------------------------------------
      LOOP:  cpu time   98.9443: real time   99.4738

 eigenvalue-minimisations  : 32256
 total energy-change (2. order) :-0.4195035E-04  (-0.2719969E-02)
 number of electron     172.0000065 magnetization      -0.0000000      0.0001178     -0.0000000
 augmentation part       70.5563531 magnetization      -0.0000000      0.0000458     -0.0000000

 Broyden mixing:
  rms(total) = 0.14179E-01    rms(broyden)= 0.14179E-01
  rms(prec ) = 0.14799E-01
  weight for this iteration     100.00

 eigenvalues of (default mixing * dielectric matrix)
  average eigenvalue GAMMA=   0.7547
  1.3531  0.6265  0.2844

 Free energy of the ion-electron system (eV)
  ---------------------------------------------------
  alpha Z        PSCENC =       589.18276830
  Ewald energy   TEWEN  =    -15619.25931351
  -Hartree energ DENC   =    -10737.31685359
  -exchange      EXHF   =         0.00000000
  -V(xc)+E(xc)   XCENC  =       821.61536228
  PAW double counting   =     28069.40873889   -28992.83150159
  entropy T*S    EENTRO =         0.00000000
  eigenvalues    EBANDS =     -2718.05160050
  atomic energy  EATOM  =     28505.01627691
  Solvation  Ediel_sol  =         0.00000000
  ---------------------------------------------------
  free energy    TOTEN  =       -82.23612281 eV

  energy without entropy =      -82.23612281  energy(sigma->0) =      -82.23612281


--------------------------------------------------------------------------------------------------------




--------------------------------------- Iteration      1(   5)  ---------------------------------------


    POTLOK:  cpu time    0.1361: real time    0.1393
    SETDIJ:  cpu time    0.6023: real time    0.6042
     EDDAV:  cpu time  335.4892: real time  337.2927
 BZINTS: Fermi energy:  4.888408;172.000000 electrons
         Band energy:***********;  BLOECHL correction:  0.000000
       DOS:  cpu time    0.0345: real time    0.0346
 


 total charge     
 
# of ion       s       p       d       tot
------------------------------------------
    1        1.314   2.410   0.000   3.723
    2        1.314   2.410   0.000   3.723
    3        1.314   2.408   0.000   3.722
    4        1.313   2.412   0.000   3.725
    5        1.314   2.410   0.000   3.723
    6        1.314   2.410   0.000   3.723
    7        1.314   2.408   0.000   3.722
    8        1.313   2.412   0.000   3.725
    9        0.260   6.203   8.917  15.379
   10        0.260   6.203   8.917  15.379
   11        0.260   6.203   8.917  15.379
   12        0.260   6.203   8.917  15.379
   13        0.350   6.351   5.821  12.522
   14        0.350   6.351   5.821  12.522
   15        0.350   6.351   5.821  12.522
   16        0.350   6.351   5.821  12.522
--------------------------------------------------
tot         12.946  69.491  58.952 141.390
 


 magnetization (x)
 
# of ion       s       p       d       tot
------------------------------------------
    1       -0.000  -0.000   0.000  -0.000
    2        0.000   0.000   0.000   0.000
    3       -0.000  -0.000   0.000  -0.000
    4       -0.000  -0.000   0.000  -0.000
    5        0.000   0.000   0.000   0.000
    6       -0.000  -0.000   0.000  -0.000
    7       -0.000  -0.000   0.000  -0.000
    8       -0.000  -0.000   0.000  -0.000
    9        0.000   0.000  -0.000  -0.000
   10        0.000   0.000  -0.000  -0.000
   11        0.000   0.000  -0.000  -0.000
   12        0.000   0.000  -0.000  -0.000
   13       -0.000  -0.000   0.000  -0.000
   14        0.000   0.000  -0.000  -0.000
   15       -0.000  -0.000   0.000  -0.000
   16        0.000   0.000  -0.000  -0.000
--------------------------------------------------
tot         -0.000  -0.000  -0.000  -0.001
 


 magnetization (y)
 
# of ion       s       p       d       tot
------------------------------------------
    1       -0.000  -0.000   0.000  -0.000
    2       -0.000  -0.000   0.000  -0.000
    3       -0.000  -0.000   0.000  -0.000
    4        0.000  -0.000   0.000  -0.000
    5       -0.000  -0.000   0.000  -0.000
    6       -0.000  -0.000   0.000  -0.000
    7       -0.000  -0.000   0.000  -0.000
    8        0.000  -0.000   0.000  -0.000
    9       -0.000   0.000  -0.000  -0.000
   10       -0.000   0.000   0.000   0.000
   11       -0.000   0.000  -0.000  -0.000
   12       -0.000   0.000   0.000   0.000
   13        0.000   0.000  -0.000  -0.000
   14        0.000   0.000  -0.000  -0.000
   15        0.000   0.000  -0.000  -0.000
   16        0.000   0.000  -0.000  -0.000
--------------------------------------------------
tot         -0.000  -0.001  -0.001  -0.002
 


 magnetization (z)
 
# of ion       s       p       d       tot
------------------------------------------
    1       -0.000  -0.009   0.000  -0.009
    2        0.000   0.009   0.000   0.009
    3        0.000   0.000   0.000   0.000
    4       -0.000  -0.000   0.000  -0.000
    5        0.000   0.009   0.000   0.009
    6       -0.000  -0.009   0.000  -0.009
    7        0.000   0.000   0.000   0.000
    8       -0.000  -0.000   0.000  -0.000
    9        0.000   0.001  -0.001  -0.000
   10       -0.000  -0.001   0.001   0.000
   11        0.000   0.001  -0.001  -0.000
   12       -0.000  -0.001   0.001   0.000
   13        0.020   0.054   3.666   3.740
   14       -0.020  -0.054  -3.666  -3.739
   15        0.020   0.054   3.666   3.740
   16       -0.020  -0.054  -3.666  -3.739
--------------------------------------------------
tot         -0.000  -0.000   0.000   0.000
 
    CHARGE:  cpu time    1.6608: real time    1.6743
    MIXING:  cpu time    0.0019: real time    0.0019
    --------------------------------------------
      LOOP:  cpu time  337.9249: real time  339.7471

 eigenvalue-minimisations  : 56832
 total energy-change (2. order) :-0.3548428E-03  (-0.2453058E-02)
 number of electron     172.0000065 magnetization      -0.0000000      0.0001241     -0.0000000
 augmentation part       70.5571305 magnetization      -0.0000000     -0.0007171     -0.0000000

 Broyden mixing:
  rms(total) = 0.80031E-02    rms(broyden)= 0.80030E-02
  rms(prec ) = 0.82720E-02
  weight for this iteration     100.00

 eigenvalues of (default mixing * dielectric matrix)
  average eigenvalue GAMMA=   0.7104
  1.5641  0.6303  0.3621  0.2849

 Free energy of the ion-electron system (eV)
  ---------------------------------------------------
  alpha Z        PSCENC =       589.18276830
  Ewald energy   TEWEN  =    -15619.25931351
  -Hartree energ DENC   =    -10737.34455544
  -exchange      EXHF   =         0.00000000
  -V(xc)+E(xc)   XCENC  =       821.61374642
  PAW double counting   =     28070.60746377   -28994.03964783
  entropy T*S    EENTRO =         0.00000000
  eigenvalues    EBANDS =     -2718.01321628
  atomic energy  EATOM  =     28505.01627691
  Solvation  Ediel_sol  =         0.00000000
  ---------------------------------------------------
  free energy    TOTEN  =       -82.23647765 eV

  energy without entropy =      -82.23647765  energy(sigma->0) =      -82.23647765


--------------------------------------------------------------------------------------------------------




--------------------------------------- Iteration      1(   6)  ---------------------------------------


    POTLOK:  cpu time    0.1359: real time    0.1377
    SETDIJ:  cpu time    0.6027: real time    0.6047
     EDDAV:  cpu time   82.8689: real time   83.3157
 BZINTS: Fermi energy:  4.888153;172.000000 electrons
         Band energy:***********;  BLOECHL correction:  0.000000
       DOS:  cpu time    0.0344: real time    0.0346
    CHARGE:  cpu time    1.4843: real time    1.4967
    MIXING:  cpu time    0.0020: real time    0.0020
    --------------------------------------------
      LOOP:  cpu time   85.1283: real time   85.5913

 eigenvalue-minimisations  : 30720
 total energy-change (2. order) : 0.1867173E-03  (-0.1833360E-02)
 number of electron     172.0000065 magnetization       0.0000000     -0.0001637      0.0000000
 augmentation part       70.5570287 magnetization       0.0000000      0.0007150      0.0000000

 Broyden mixing:
  rms(total) = 0.57273E-02    rms(broyden)= 0.57272E-02
  rms(prec ) = 0.57302E-02
  weight for this iteration     100.00

 eigenvalues of (default mixing * dielectric matrix)
  average eigenvalue GAMMA=   0.7666
  1.8771  0.8144  0.6208  0.3064  0.2144

 Free energy of the ion-electron system (eV)
  ---------------------------------------------------
  alpha Z        PSCENC =       589.18276830
  Ewald energy   TEWEN  =    -15619.25931351
  -Hartree energ DENC   =    -10737.39653930
  -exchange      EXHF   =         0.00000000
  -V(xc)+E(xc)   XCENC  =       821.61640293
  PAW double counting   =     28070.96307009   -28994.39884931
  entropy T*S    EENTRO =         0.00000000
  eigenvalues    EBANDS =     -2717.96010704
  atomic energy  EATOM  =     28505.01627691
  Solvation  Ediel_sol  =         0.00000000
  ---------------------------------------------------
  free energy    TOTEN  =       -82.23629094 eV

  energy without entropy =      -82.23629094  energy(sigma->0) =      -82.23629094


--------------------------------------------------------------------------------------------------------




--------------------------------------- Iteration      1(   7)  ---------------------------------------


    POTLOK:  cpu time    0.1350: real time    0.1391
    SETDIJ:  cpu time    0.6027: real time    0.6047
     EDDAV:  cpu time  234.4424: real time  235.6029
 BZINTS: Fermi energy:  4.887817;172.000000 electrons
         Band energy:***********;  BLOECHL correction:  0.000000
       DOS:  cpu time    0.0346: real time    0.0348
    CHARGE:  cpu time    1.4746: real time    1.4871
    MIXING:  cpu time    0.0023: real time    0.0023
    --------------------------------------------
      LOOP:  cpu time  236.6916: real time  237.8708

 eigenvalue-minimisations  : 46080
 total energy-change (2. order) :-0.1401753E-04  (-0.7807394E-03)
 number of electron     172.0000065 magnetization       0.0000000     -0.0000602      0.0000000
 augmentation part       70.5566106 magnetization       0.0000000     -0.0015218      0.0000000

 Broyden mixing:
  rms(total) = 0.29114E-02    rms(broyden)= 0.29114E-02
  rms(prec ) = 0.29447E-02
  weight for this iteration     100.00

 eigenvalues of (default mixing * dielectric matrix)
  average eigenvalue GAMMA=   0.7214
  1.9570  0.9235  0.6221  0.3041  0.3041  0.2172

 Free energy of the ion-electron system (eV)
  ---------------------------------------------------
  alpha Z        PSCENC =       589.18276830
  Ewald energy   TEWEN  =    -15619.25931351
  -Hartree energ DENC   =    -10737.41775658
  -exchange      EXHF   =         0.00000000
  -V(xc)+E(xc)   XCENC  =       821.61698413
  PAW double counting   =     28071.23951785   -28994.67708057
  entropy T*S    EENTRO =         0.00000000
  eigenvalues    EBANDS =     -2717.93770148
  atomic energy  EATOM  =     28505.01627691
  Solvation  Ediel_sol  =         0.00000000
  ---------------------------------------------------
  free energy    TOTEN  =       -82.23630495 eV

  energy without entropy =      -82.23630495  energy(sigma->0) =      -82.23630495


--------------------------------------------------------------------------------------------------------




--------------------------------------- Iteration      1(   8)  ---------------------------------------


    POTLOK:  cpu time    0.1344: real time    0.1378
    SETDIJ:  cpu time    0.6014: real time    0.6032
     EDDAV:  cpu time   82.6135: real time   83.0569
 BZINTS: Fermi energy:  4.887748;172.000000 electrons
         Band energy:***********;  BLOECHL correction:  0.000000
       DOS:  cpu time    0.0345: real time    0.0346
    CHARGE:  cpu time    1.4779: real time    1.4903
    MIXING:  cpu time    0.0021: real time    0.0021
    --------------------------------------------
      LOOP:  cpu time   84.8637: real time   85.3250

 eigenvalue-minimisations  : 30720
 total energy-change (2. order) :-0.1425985E-03  (-0.6328833E-03)
 number of electron     172.0000065 magnetization       0.0000000     -0.0002470      0.0000000
 augmentation part       70.5567343 magnetization       0.0000000      0.0010735      0.0000000

 Broyden mixing:
  rms(total) = 0.27878E-02    rms(broyden)= 0.27878E-02
  rms(prec ) = 0.27900E-02
  weight for this iteration     100.00

 eigenvalues of (default mixing * dielectric matrix)
  average eigenvalue GAMMA=   0.6999
  2.0533  1.0543  0.6213  0.4801  0.3056  0.2112  0.1736

 Free energy of the ion-electron system (eV)
  ---------------------------------------------------
  alpha Z        PSCENC =       589.18276830
  Ewald energy   TEWEN  =    -15619.25931351
  -Hartree energ DENC   =    -10737.40359579
  -exchange      EXHF   =         0.00000000
  -V(xc)+E(xc)   XCENC  =       821.61623777
  PAW double counting   =     28071.24544487   -28994.68138943
  entropy T*S    EENTRO =         0.00000000
  eigenvalues    EBANDS =     -2717.95287666
  atomic energy  EATOM  =     28505.01627691
  Solvation  Ediel_sol  =         0.00000000
  ---------------------------------------------------
  free energy    TOTEN  =       -82.23644755 eV

  energy without entropy =      -82.23644755  energy(sigma->0) =      -82.23644755


--------------------------------------------------------------------------------------------------------




--------------------------------------- Iteration      1(   9)  ---------------------------------------


    POTLOK:  cpu time    0.1351: real time    0.1371
    SETDIJ:  cpu time    0.6025: real time    0.6043
     EDDAV:  cpu time  178.7868: real time  180.2763
 BZINTS: Fermi energy:  4.887325;172.000000 electrons
         Band energy:***********;  BLOECHL correction:  0.000000
       DOS:  cpu time    0.0347: real time    0.0348
    CHARGE:  cpu time    1.4696: real time    1.5527
    MIXING:  cpu time    0.0028: real time    0.0685
    --------------------------------------------
      LOOP:  cpu time  181.0316: real time  182.6738

 eigenvalue-minimisations  : 40448
 total energy-change (2. order) : 0.6654667E-04  (-0.3051970E-03)
 number of electron     172.0000065 magnetization       0.0000000     -0.0003274      0.0000000
 augmentation part       70.5568657 magnetization       0.0000000     -0.0005483      0.0000000

 Broyden mixing:
  rms(total) = 0.14226E-02    rms(broyden)= 0.14226E-02
  rms(prec ) = 0.14366E-02
  weight for this iteration     100.00

 eigenvalues of (default mixing * dielectric matrix)
  average eigenvalue GAMMA=   0.6887
  2.1691  1.1750  0.6084  0.6084  0.2830  0.2830  0.2297  0.1531

 Free energy of the ion-electron system (eV)
  ---------------------------------------------------
  alpha Z        PSCENC =       589.18276830
  Ewald energy   TEWEN  =    -15619.25931351
  -Hartree energ DENC   =    -10737.39546114
  -exchange      EXHF   =         0.00000000
  -V(xc)+E(xc)   XCENC  =       821.61580999
  PAW double counting   =     28071.23184356   -28994.66673150
  entropy T*S    EENTRO =         0.00000000
  eigenvalues    EBANDS =     -2717.96157362
  atomic energy  EATOM  =     28505.01627691
  Solvation  Ediel_sol  =         0.00000000
  ---------------------------------------------------
  free energy    TOTEN  =       -82.23638101 eV

  energy without entropy =      -82.23638101  energy(sigma->0) =      -82.23638101


--------------------------------------------------------------------------------------------------------




--------------------------------------- Iteration      1(  10)  ---------------------------------------


    POTLOK:  cpu time    0.1371: real time    0.1573
    SETDIJ:  cpu time    0.6031: real time    0.6050
     EDDAV:  cpu time  133.7592: real time  134.4281
 BZINTS: Fermi energy:  4.887430;172.000000 electrons
         Band energy:***********;  BLOECHL correction:  0.000000
       DOS:  cpu time    0.0347: real time    0.0348
 


 total charge     
 
# of ion       s       p       d       tot
------------------------------------------
    1        1.314   2.410   0.000   3.723
    2        1.314   2.410   0.000   3.723
    3        1.314   2.408   0.000   3.722
    4        1.313   2.412   0.000   3.724
    5        1.314   2.410   0.000   3.723
    6        1.314   2.410   0.000   3.723
    7        1.314   2.408   0.000   3.722
    8        1.313   2.412   0.000   3.724
    9        0.260   6.203   8.916  15.379
   10        0.260   6.203   8.916  15.378
[...]
     0.0000000     0.0000000     0.0000000     0.0000000     0.0000000     0.0000000     0.0000000

 Ion:    5  E_soc:     -0.0017367
 l=   1
     0.0000000    -0.0002479    -0.0003675
    -0.0002479     0.0000000    -0.0002530
    -0.0003675    -0.0002530     0.0000000
 l=   2
     0.0000000     0.0000000     0.0000000     0.0000000     0.0000000
     0.0000000     0.0000000     0.0000000     0.0000000     0.0000000
     0.0000000     0.0000000     0.0000000     0.0000000     0.0000000
     0.0000000     0.0000000     0.0000000     0.0000000     0.0000000
     0.0000000     0.0000000     0.0000000     0.0000000     0.0000000
 l=   3
     0.0000000     0.0000000     0.0000000     0.0000000     0.0000000     0.0000000     0.0000000
     0.0000000     0.0000000     0.0000000     0.0000000     0.0000000     0.0000000     0.0000000
     0.0000000     0.0000000     0.0000000     0.0000000     0.0000000     0.0000000     0.0000000
     0.0000000     0.0000000     0.0000000     0.0000000     0.0000000     0.0000000     0.0000000
     0.0000000     0.0000000     0.0000000     0.0000000     0.0000000     0.0000000     0.0000000
     0.0000000     0.0000000     0.0000000     0.0000000     0.0000000     0.0000000     0.0000000
     0.0000000     0.0000000     0.0000000     0.0000000     0.0000000     0.0000000     0.0000000

 Ion:    6  E_soc:     -0.0017367
 l=   1
     0.0000000    -0.0002479    -0.0003675
    -0.0002479     0.0000000    -0.0002530
    -0.0003675    -0.0002530     0.0000000
 l=   2
     0.0000000     0.0000000     0.0000000     0.0000000     0.0000000
     0.0000000     0.0000000     0.0000000     0.0000000     0.0000000
     0.0000000     0.0000000     0.0000000     0.0000000     0.0000000
     0.0000000     0.0000000     0.0000000     0.0000000     0.0000000
     0.0000000     0.0000000     0.0000000     0.0000000     0.0000000
 l=   3
     0.0000000     0.0000000     0.0000000     0.0000000     0.0000000     0.0000000     0.0000000
     0.0000000     0.0000000     0.0000000     0.0000000     0.0000000     0.0000000     0.0000000
     0.0000000     0.0000000     0.0000000     0.0000000     0.0000000     0.0000000     0.0000000
     0.0000000     0.0000000     0.0000000     0.0000000     0.0000000     0.0000000     0.0000000
     0.0000000     0.0000000     0.0000000     0.0000000     0.0000000     0.0000000     0.0000000
     0.0000000     0.0000000     0.0000000     0.0000000     0.0000000     0.0000000     0.0000000
     0.0000000     0.0000000     0.0000000     0.0000000     0.0000000     0.0000000     0.0000000

 Ion:    7  E_soc:     -0.0017540
 l=   1
     0.0000000    -0.0002527    -0.0003765
    -0.0002527     0.0000000    -0.0002478
    -0.0003765    -0.0002478     0.0000000
 l=   2
     0.0000000     0.0000000     0.0000000     0.0000000     0.0000000
     0.0000000     0.0000000     0.0000000     0.0000000     0.0000000
     0.0000000     0.0000000     0.0000000     0.0000000     0.0000000
     0.0000000     0.0000000     0.0000000     0.0000000     0.0000000
     0.0000000     0.0000000     0.0000000     0.0000000     0.0000000
 l=   3
     0.0000000     0.0000000     0.0000000     0.0000000     0.0000000     0.0000000     0.0000000
     0.0000000     0.0000000     0.0000000     0.0000000     0.0000000     0.0000000     0.0000000
     0.0000000     0.0000000     0.0000000     0.0000000     0.0000000     0.0000000     0.0000000
     0.0000000     0.0000000     0.0000000     0.0000000     0.0000000     0.0000000     0.0000000
     0.0000000     0.0000000     0.0000000     0.0000000     0.0000000     0.0000000     0.0000000
     0.0000000     0.0000000     0.0000000     0.0000000     0.0000000     0.0000000     0.0000000
     0.0000000     0.0000000     0.0000000     0.0000000     0.0000000     0.0000000     0.0000000

 Ion:    8  E_soc:     -0.0017175
 l=   1
     0.0000000    -0.0002528    -0.0003580
    -0.0002528     0.0000000    -0.0002479
    -0.0003580    -0.0002479     0.0000000
 l=   2
     0.0000000     0.0000000     0.0000000     0.0000000     0.0000000
     0.0000000     0.0000000     0.0000000     0.0000000     0.0000000
     0.0000000     0.0000000     0.0000000     0.0000000     0.0000000
     0.0000000     0.0000000     0.0000000     0.0000000     0.0000000
     0.0000000     0.0000000     0.0000000     0.0000000     0.0000000
 l=   3
     0.0000000     0.0000000     0.0000000     0.0000000     0.0000000     0.0000000     0.0000000
     0.0000000     0.0000000     0.0000000     0.0000000     0.0000000     0.0000000     0.0000000
     0.0000000     0.0000000     0.0000000     0.0000000     0.0000000     0.0000000     0.0000000
     0.0000000     0.0000000     0.0000000     0.0000000     0.0000000     0.0000000     0.0000000
     0.0000000     0.0000000     0.0000000     0.0000000     0.0000000     0.0000000     0.0000000
     0.0000000     0.0000000     0.0000000     0.0000000     0.0000000     0.0000000     0.0000000
     0.0000000     0.0000000     0.0000000     0.0000000     0.0000000     0.0000000     0.0000000

 Ion:    9  E_soc:     -0.0618281
 l=   1
     0.0000000    -0.0085617    -0.0085505
    -0.0085617     0.0000000    -0.0085619
    -0.0085505    -0.0085619     0.0000000
 l=   2
     0.0000000    -0.0004016     0.0000000    -0.0004009    -0.0013476
    -0.0004016     0.0000000    -0.0010627    -0.0002935    -0.0003374
     0.0000000    -0.0010627     0.0000000    -0.0010597     0.0000000
    -0.0004009    -0.0002935    -0.0010597     0.0000000    -0.0003364
    -0.0013476    -0.0003374     0.0000000    -0.0003364     0.0000000
 l=   3
     0.0000000     0.0000000     0.0000000     0.0000000     0.0000000     0.0000000     0.0000000
     0.0000000     0.0000000     0.0000000     0.0000000     0.0000000     0.0000000     0.0000000
     0.0000000     0.0000000     0.0000000     0.0000000     0.0000000     0.0000000     0.0000000
     0.0000000     0.0000000     0.0000000     0.0000000     0.0000000     0.0000000     0.0000000
     0.0000000     0.0000000     0.0000000     0.0000000     0.0000000     0.0000000     0.0000000
     0.0000000     0.0000000     0.0000000     0.0000000     0.0000000     0.0000000     0.0000000
     0.0000000     0.0000000     0.0000000     0.0000000     0.0000000     0.0000000     0.0000000

 Ion:   10  E_soc:     -0.0618281
 l=   1
     0.0000000    -0.0085617    -0.0085505
    -0.0085617     0.0000000    -0.0085619
    -0.0085505    -0.0085619     0.0000000
 l=   2
     0.0000000    -0.0004016     0.0000000    -0.0004009    -0.0013476
    -0.0004016     0.0000000    -0.0010627    -0.0002935    -0.0003374
     0.0000000    -0.0010627     0.0000000    -0.0010597     0.0000000
    -0.0004009    -0.0002935    -0.0010597     0.0000000    -0.0003364
    -0.0013476    -0.0003374     0.0000000    -0.0003364     0.0000000
 l=   3
     0.0000000     0.0000000     0.0000000     0.0000000     0.0000000     0.0000000     0.0000000
     0.0000000     0.0000000     0.0000000     0.0000000     0.0000000     0.0000000     0.0000000
     0.0000000     0.0000000     0.0000000     0.0000000     0.0000000     0.0000000     0.0000000
     0.0000000     0.0000000     0.0000000     0.0000000     0.0000000     0.0000000     0.0000000
     0.0000000     0.0000000     0.0000000     0.0000000     0.0000000     0.0000000     0.0000000
     0.0000000     0.0000000     0.0000000     0.0000000     0.0000000     0.0000000     0.0000000
     0.0000000     0.0000000     0.0000000     0.0000000     0.0000000     0.0000000     0.0000000

 Ion:   11  E_soc:     -0.0618281
 l=   1
     0.0000000    -0.0085617    -0.0085505
    -0.0085617     0.0000000    -0.0085619
    -0.0085505    -0.0085619     0.0000000
 l=   2
     0.0000000    -0.0004016     0.0000000    -0.0004009    -0.0013476
    -0.0004016     0.0000000    -0.0010627    -0.0002935    -0.0003374
     0.0000000    -0.0010627     0.0000000    -0.0010597     0.0000000
    -0.0004009    -0.0002935    -0.0010597     0.0000000    -0.0003364
    -0.0013476    -0.0003374     0.0000000    -0.0003364     0.0000000
 l=   3
     0.0000000     0.0000000     0.0000000     0.0000000     0.0000000     0.0000000     0.0000000
     0.0000000     0.0000000     0.0000000     0.0000000     0.0000000     0.0000000     0.0000000
     0.0000000     0.0000000     0.0000000     0.0000000     0.0000000     0.0000000     0.0000000
     0.0000000     0.0000000     0.0000000     0.0000000     0.0000000     0.0000000     0.0000000
     0.0000000     0.0000000     0.0000000     0.0000000     0.0000000     0.0000000     0.0000000
     0.0000000     0.0000000     0.0000000     0.0000000     0.0000000     0.0000000     0.0000000
     0.0000000     0.0000000     0.0000000     0.0000000     0.0000000     0.0000000     0.0000000

 Ion:   12  E_soc:     -0.0618281
 l=   1
     0.0000000    -0.0085617    -0.0085505
    -0.0085617     0.0000000    -0.0085619
    -0.0085505    -0.0085619     0.0000000
 l=   2
     0.0000000    -0.0004016     0.0000000    -0.0004009    -0.0013476
    -0.0004016     0.0000000    -0.0010627    -0.0002935    -0.0003374
     0.0000000    -0.0010627     0.0000000    -0.0010597     0.0000000
    -0.0004009    -0.0002935    -0.0010597     0.0000000    -0.0003364
    -0.0013476    -0.0003374     0.0000000    -0.0003364     0.0000000
 l=   3
     0.0000000     0.0000000     0.0000000     0.0000000     0.0000000     0.0000000     0.0000000
     0.0000000     0.0000000     0.0000000     0.0000000     0.0000000     0.0000000     0.0000000
     0.0000000     0.0000000     0.0000000     0.0000000     0.0000000     0.0000000     0.0000000
     0.0000000     0.0000000     0.0000000     0.0000000     0.0000000     0.0000000     0.0000000
     0.0000000     0.0000000     0.0000000     0.0000000     0.0000000     0.0000000     0.0000000
     0.0000000     0.0000000     0.0000000     0.0000000     0.0000000     0.0000000     0.0000000
     0.0000000     0.0000000     0.0000000     0.0000000     0.0000000     0.0000000     0.0000000

 Ion:   13  E_soc:     -0.0363869
 l=   1
     0.0000000    -0.0042783    -0.0043114
    -0.0042783     0.0000000    -0.0042781
    -0.0043114    -0.0042781     0.0000000
 l=   2
     0.0000000    -0.0003497     0.0000000    -0.0003501    -0.0008582
    -0.0003497     0.0000000    -0.0013056    -0.0002977    -0.0004283
     0.0000000    -0.0013056     0.0000000    -0.0013069     0.0000000
    -0.0003501    -0.0002977    -0.0013069     0.0000000    -0.0004291
    -0.0008582    -0.0004283     0.0000000    -0.0004291     0.0000000
 l=   3
     0.0000000     0.0000000     0.0000000     0.0000000     0.0000000     0.0000000     0.0000000
     0.0000000     0.0000000     0.0000000     0.0000000     0.0000000     0.0000000     0.0000000
     0.0000000     0.0000000     0.0000000     0.0000000     0.0000000     0.0000000     0.0000000
     0.0000000     0.0000000     0.0000000     0.0000000     0.0000000     0.0000000     0.0000000
     0.0000000     0.0000000     0.0000000     0.0000000     0.0000000     0.0000000     0.0000000
     0.0000000     0.0000000     0.0000000     0.0000000     0.0000000     0.0000000     0.0000000
     0.0000000     0.0000000     0.0000000     0.0000000     0.0000000     0.0000000     0.0000000

 Ion:   14  E_soc:     -0.0363869
 l=   1
     0.0000000    -0.0042783    -0.0043114
    -0.0042783     0.0000000    -0.0042781
    -0.0043114    -0.0042781     0.0000000
 l=   2
     0.0000000    -0.0003497     0.0000000    -0.0003501    -0.0008582
    -0.0003497     0.0000000    -0.0013056    -0.0002977    -0.0004283
     0.0000000    -0.0013056     0.0000000    -0.0013069     0.0000000
    -0.0003501    -0.0002977    -0.0013069     0.0000000    -0.0004291
    -0.0008582    -0.0004283     0.0000000    -0.0004291     0.0000000
 l=   3
     0.0000000     0.0000000     0.0000000     0.0000000     0.0000000     0.0000000     0.0000000
     0.0000000     0.0000000     0.0000000     0.0000000     0.0000000     0.0000000     0.0000000
     0.0000000     0.0000000     0.0000000     0.0000000     0.0000000     0.0000000     0.0000000
     0.0000000     0.0000000     0.0000000     0.0000000     0.0000000     0.0000000     0.0000000
     0.0000000     0.0000000     0.0000000     0.0000000     0.0000000     0.0000000     0.0000000
     0.0000000     0.0000000     0.0000000     0.0000000     0.0000000     0.0000000     0.0000000
     0.0000000     0.0000000     0.0000000     0.0000000     0.0000000     0.0000000     0.0000000

 Ion:   15  E_soc:     -0.0363869
 l=   1
     0.0000000    -0.0042783    -0.0043114
    -0.0042783     0.0000000    -0.0042781
    -0.0043114    -0.0042781     0.0000000
 l=   2
     0.0000000    -0.0003497     0.0000000    -0.0003501    -0.0008582
    -0.0003497     0.0000000    -0.0013056    -0.0002977    -0.0004283
     0.0000000    -0.0013056     0.0000000    -0.0013069     0.0000000
    -0.0003501    -0.0002977    -0.0013069     0.0000000    -0.0004291
    -0.0008582    -0.0004283     0.0000000    -0.0004291     0.0000000
 l=   3
     0.0000000     0.0000000     0.0000000     0.0000000     0.0000000     0.0000000     0.0000000
     0.0000000     0.0000000     0.0000000     0.0000000     0.0000000     0.0000000     0.0000000
     0.0000000     0.0000000     0.0000000     0.0000000     0.0000000     0.0000000     0.0000000
     0.0000000     0.0000000     0.0000000     0.0000000     0.0000000     0.0000000     0.0000000
     0.0000000     0.0000000     0.0000000     0.0000000     0.0000000     0.0000000     0.0000000
     0.0000000     0.0000000     0.0000000     0.0000000     0.0000000     0.0000000     0.0000000
     0.0000000     0.0000000     0.0000000     0.0000000     0.0000000     0.0000000     0.0000000

 Ion:   16  E_soc:     -0.0363869
 l=   1
     0.0000000    -0.0042783    -0.0043114
    -0.0042783     0.0000000    -0.0042781
    -0.0043114    -0.0042781     0.0000000
 l=   2
     0.0000000    -0.0003497     0.0000000    -0.0003501    -0.0008582
    -0.0003497     0.0000000    -0.0013056    -0.0002977    -0.0004283
     0.0000000    -0.0013056     0.0000000    -0.0013069     0.0000000
    -0.0003501    -0.0002977    -0.0013069     0.0000000    -0.0004291
    -0.0008582    -0.0004283     0.0000000    -0.0004291     0.0000000
 l=   3
     0.0000000     0.0000000     0.0000000     0.0000000     0.0000000     0.0000000     0.0000000
     0.0000000     0.0000000     0.0000000     0.0000000     0.0000000     0.0000000     0.0000000
     0.0000000     0.0000000     0.0000000     0.0000000     0.0000000     0.0000000     0.0000000
     0.0000000     0.0000000     0.0000000     0.0000000     0.0000000     0.0000000     0.0000000
     0.0000000     0.0000000     0.0000000     0.0000000     0.0000000     0.0000000     0.0000000
     0.0000000     0.0000000     0.0000000     0.0000000     0.0000000     0.0000000     0.0000000
     0.0000000     0.0000000     0.0000000     0.0000000     0.0000000     0.0000000     0.0000000
 


 total charge     
 
# of ion       s       p       d       tot
------------------------------------------
    1        1.314   2.410   0.000   3.723
    2        1.314   2.410   0.000   3.723
    3        1.314   2.408   0.000   3.722
    4        1.313   2.412   0.000   3.724
    5        1.314   2.410   0.000   3.723
    6        1.314   2.410   0.000   3.723
    7        1.314   2.408   0.000   3.722
    8        1.313   2.412   0.000   3.724
    9        0.260   6.203   8.916  15.378
   10        0.260   6.203   8.916  15.378
   11        0.260   6.203   8.916  15.378
   12        0.260   6.203   8.916  15.378
   13        0.350   6.351   5.822  12.522
   14        0.350   6.351   5.822  12.522
   15        0.350   6.351   5.822  12.522
   16        0.350   6.351   5.822  12.522
--------------------------------------------------
tot         12.946  69.491  58.952 141.389
 


 magnetization (x)
 
# of ion       s       p       d       tot
------------------------------------------
    1       -0.000   0.000   0.000   0.000
    2        0.000  -0.000   0.000  -0.000
    3       -0.000  -0.000   0.000  -0.000
    4       -0.000  -0.000   0.000  -0.000
    5        0.000  -0.000   0.000  -0.000
    6       -0.000   0.000   0.000   0.000
    7       -0.000  -0.000   0.000  -0.000
    8       -0.000  -0.000   0.000  -0.000
    9        0.000  -0.000  -0.000  -0.000
   10        0.000   0.000  -0.000  -0.000
   11        0.000  -0.000  -0.000  -0.000
   12        0.000   0.000  -0.000  -0.000
   13       -0.000   0.000   0.001   0.001
   14       -0.000  -0.000  -0.001  -0.001
   15       -0.000   0.000   0.001   0.001
   16       -0.000  -0.000  -0.001  -0.001
--------------------------------------------------
tot         -0.000  -0.000  -0.000  -0.001
 


 magnetization (y)
 
# of ion       s       p       d       tot
------------------------------------------
    1       -0.000  -0.000   0.000  -0.000
    2        0.000  -0.000   0.000  -0.000
    3       -0.000   0.000   0.000   0.000
    4        0.000  -0.000   0.000  -0.000
    5        0.000  -0.000   0.000  -0.000
    6       -0.000  -0.000   0.000  -0.000
    7       -0.000   0.000   0.000   0.000
    8        0.000  -0.000   0.000  -0.000
    9       -0.000   0.000  -0.000  -0.000
   10       -0.000   0.000   0.000   0.000
   11       -0.000   0.000  -0.000  -0.000
   12       -0.000   0.000   0.000   0.000
   13        0.000  -0.000  -0.001  -0.001
   14       -0.000  -0.000  -0.001  -0.001
   15        0.000  -0.000  -0.001  -0.001
   16       -0.000  -0.000  -0.001  -0.001
--------------------------------------------------
tot         -0.000   0.000  -0.003  -0.003
 


 magnetization (z)
 
# of ion       s       p       d       tot
------------------------------------------
    1       -0.000  -0.009   0.000  -0.009
    2        0.000   0.009   0.000   0.009
    3        0.000   0.000   0.000   0.000
    4       -0.000  -0.000   0.000  -0.000
    5        0.000   0.009   0.000   0.009
    6       -0.000  -0.009   0.000  -0.009
    7        0.000   0.000   0.000   0.000
    8       -0.000  -0.000   0.000  -0.000
    9        0.000   0.001  -0.001  -0.000
   10       -0.000  -0.001   0.001   0.000
   11        0.000   0.001  -0.001  -0.000
   12       -0.000  -0.001   0.001   0.000
   13        0.020   0.054   3.665   3.739
   14       -0.020  -0.054  -3.665  -3.739
   15        0.020   0.054   3.665   3.739
   16       -0.020  -0.054  -3.665  -3.739
--------------------------------------------------
tot         -0.000  -0.000   0.000   0.000
 
 BZINTS: Fermi energy:  4.887400;172.000000 electrons
         Band energy:***********;  BLOECHL correction:  0.000000
 BZINTS: Fermi energy:  4.887400;172.000000 electrons
         Band energy:***********;  BLOECHL correction:  0.000000
 BZINTS: Fermi energy:  4.887400;172.000000 electrons
         Band energy:***********;  BLOECHL correction:  0.000000
 BZINTS: Fermi energy:  4.887400;172.000000 electrons
         Band energy:***********;  BLOECHL correction:  0.000000

 total amount of memory used by VASP MPI-rank0   410429. kBytes
=======================================================================

   base      :      30000. kBytes
   nonl-proj :     321650. kBytes
   fftplans  :       2735. kBytes
   grid      :      30965. kBytes
   one-center:        995. kBytes
   wavefun   :      24084. kBytes
 
  
  
 General timing and accounting informations for this job:
 ========================================================
  
                  Total CPU time used (sec):     5175.932
                            User time (sec):     5164.501
                          System time (sec):       11.431
                         Elapsed time (sec):     5380.127
  
                   Maximum memory used (kb):      872540.
                   Average memory used (kb):           0.
  
                          Minor page faults:       294984
                          Major page faults:         5603
                 Voluntary context switches:         7333
