       N       E                     dE             d eps       ncg     rms          ort
SDA:   1    -0.817229482363E+02   -0.81723E+02    0.00000E+00  7488   0.154E-04 0.000E+00
CGA:   2    -0.817229539409E+02   -0.57046E-05   -0.27795E-06  7488   0.839E-05 0.112E-04
CGA:   3    -0.817229576518E+02   -0.37109E-05   -0.12749E-06  7488   0.535E-05 0.659E-05
CGA:   4    -0.817229601759E+02   -0.25242E-05   -0.72403E-07  7488   0.394E-05 0.455E-05
CGA:   5    -0.817229618422E+02   -0.16663E-05   -0.50003E-07  7488   0.313E-05 0.348E-05
CGA:   6    -0.817229630326E+02   -0.11904E-05   -0.41790E-07  7488   0.258E-05 0.282E-05
CGA:   7    -0.817229641028E+02   -0.10702E-05   -0.43928E-07  7488   0.210E-05 0.231E-05
CGA:   8    -0.817229657022E+02   -0.15995E-05   -0.66675E-07  7488   0.147E-05 0.171E-05
CGA:   9    -0.817229683813E+02   -0.26791E-05   -0.11625E-06  7488   0.769E-06 0.694E-06
CGA:  10    -0.817229685672E+02   -0.18590E-06   -0.12830E-07  7488   0.617E-06 0.991E-06
CGA:  11    -0.817229687525E+02   -0.18524E-06   -0.57937E-08  7488   0.556E-06 0.576E-06
CGA:  12    -0.817229689723E+02   -0.21983E-06   -0.69723E-08  7488   0.487E-06 0.507E-06
CGA:  13    -0.817229693050E+02   -0.33269E-06   -0.78587E-08  7488   0.428E-06 0.448E-06
CGA:  14    -0.817229695892E+02   -0.28421E-06   -0.52249E-08  7488   0.439E-06 0.349E-06
CGA:  15    -0.817229696820E+02   -0.92765E-07   -0.24375E-08  7488   0.413E-06 0.266E-06
CGA:  16    -0.817229697492E+02   -0.67237E-07   -0.21550E-08  7488   0.544E-06 0.190E-06
CGA:  17    -0.817229698624E+02   -0.11321E-06   -0.37356E-08  7488   0.298E-06 0.674E-06
CGA:  18    -0.817229698874E+02   -0.25011E-07   -0.29338E-07  7488   0.519E-06-0.131E-06
CGA:  19    -0.817229699049E+02   -0.17521E-07   -0.45871E-09  7488   0.488E-06 0.232E-06
CGA:  20    -0.817229699481E+02   -0.43186E-07   -0.16515E-08  7488   0.360E-06 0.508E-06
CGA:  21    -0.817229699703E+02   -0.22181E-07   -0.13413E-08  7488   0.334E-06 0.339E-06
CGA:  22    -0.817229699983E+02   -0.27976E-07   -0.23976E-08  7488   0.289E-06 0.302E-06
CGA:  23    -0.817229700184E+02   -0.20096E-07   -0.24462E-08  7488   0.231E-06 0.237E-06
CGA:  24    -0.817229700566E+02   -0.38250E-07   -0.39338E-08  7488   0.313E-06 0.101E-06
CGA:  25    -0.817229700648E+02   -0.81782E-08   -0.97040E-09  7488   0.455E-06 0.154E-06
   1 F= -.81722970E+02 E0= -.81722970E+02  d E =0.000000E+00  mag=     0.0000    -0.0000     0.0000
