 vasp.5.4.4.18Apr17-6-g9f103f2a35 (build Oct 30 2023 17:49:44) complex          
  
 executed on             LinuxIFC date 2024.12.09  14:49:40
 running on  256 total cores
 distrk:  each k-point on  256 cores,    1 groups
 distr:  one band on NCORES_PER_BAND=  32 cores,    8 groups


--------------------------------------------------------------------------------------------------------


 INCAR:
 POTCAR:    PAW_PBE S 06Sep2000                   
 POTCAR:     PAW_PBE Cu_pv 06Sep2000              
 POTCAR:     PAW_PBE Fe_pv 02Aug2007              
 POTCAR:    PAW_PBE S 06Sep2000                   
   SHA256 =  0fc7481fb0695f01bdc6462160264c5c84044ae9ec85a907d398b887a2bc3132 S/
   COPYR  = (c) Copyright 06Sep2000 Georg Kresse                                
   COPYR  = This file is part of the software VASP. Any use, copying, and all ot
   COPYR  = If you do not have a valid VASP license, you may not use, copy or di
   VRHFIN =S : s2p4                                                             
   LEXCH  = PE                                                                  
   EATOM  =   276.8230 eV,   20.3459 Ry                                         
                                                                                
   TITEL  = PAW_PBE S 06Sep2000                                                 
   LULTRA =        F    use ultrasoft PP ?                                      
   IUNSCR =        1    unscreen: 0-lin 1-nonlin 2-no                           
   RPACOR =    1.500    partial core radius                                     
   POMASS =   32.066; ZVAL   =    6.000    mass and valenz                      
   RCORE  =    1.900    outmost cutoff radius                                   
   RWIGS  =    2.200; RWIGS  =    1.164    wigner-seitz radius (au A)           
   ENMAX  =  258.689; ENMIN  =  194.016 eV                                      
   ICORE  =        2    local potential                                         
   LCOR   =        T    correct aug charges                                     
   LPAW   =        T    paw PP                                                  
   EAUG   =  335.092                                                            
   DEXC   =    0.000                                                            
   RMAX   =    1.942    core radius for proj-oper                               
   RAUG   =    1.300    factor for augmentation sphere                          
   RDEP   =    1.954    radius for radial grids                                 
   RDEPT  =    1.744    core radius for aug-charge                              
                                                                                
   Atomic configuration                                                         
    6 entries                                                                   
     n  l   j            E        occ.                                          
     1  0  0.50     -2405.8406   2.0000                                         
     2  0  0.50      -211.7007   2.0000                                         
     2  1  1.50      -156.4958   6.0000                                         
     3  0  0.50       -17.2562   2.0000                                         
     3  1  0.50        -7.0085   4.0000                                         
     3  2  1.50        -6.8029   0.0000                                         
   Description                                                                  
     l       E           TYP  RCUT    TYP  RCUT                                 
     0    -17.2561641     23  1.900                                             
     0    -15.8743224     23  1.900                                             
     1     -7.0085400     23  1.900                                             
     1     -2.7779785     23  1.900                                             
     2     -6.8029130     23  1.900                                             
  local pseudopotential read in
  partial core-charges read in
  partial kinetic energy density read in
  atomic valenz-charges read in
  non local Contribution for L=           0  read in
    real space projection operators read in
  non local Contribution for L=           0  read in
    real space projection operators read in
  non local Contribution for L=           1  read in
    real space projection operators read in
  non local Contribution for L=           1  read in
    real space projection operators read in
    PAW grid and wavefunctions read in
 
   number of l-projection  operators is LMAX  =           4
   number of lm-projection operators is LMMAX =           8
 
 POTCAR:     PAW_PBE Cu_pv 06Sep2000              
   SHA256 =  cb7b504e2ea725fe1f25c85a9ac77d4012ce94cd394135b722c4e25ec297f1cb Cu
   COPYR  = (c) Copyright 06Sep2000 Georg Kresse                                
   COPYR  = This file is part of the software VASP. Any use, copying, and all ot
   COPYR  = If you do not have a valid VASP license, you may not use, copy or di
   VRHFIN =Cu: d10 p1                                                           
   LEXCH  = PE                                                                  
   EATOM  =  4120.1201 eV,  302.8203 Ry                                         
                                                                                
   TITEL  = PAW_PBE Cu_pv 06Sep2000                                             
   LULTRA =        F    use ultrasoft PP ?                                      
   IUNSCR =        1    unscreen: 0-lin 1-nonlin 2-no                           
   RPACOR =    1.500    partial core radius                                     
   POMASS =   63.546; ZVAL   =   17.000    mass and valenz                      
   RCORE  =    2.000    outmost cutoff radius                                   
   RWIGS  =    2.000; RWIGS  =    1.058    wigner-seitz radius (au A)           
   ENMAX  =  368.648; ENMIN  =  276.486 eV                                      
   RCLOC  =    1.304    cutoff for local pot                                    
   LCOR   =        T    correct aug charges                                     
   LPAW   =        T    paw PP                                                  
   EAUG   =  758.233                                                            
   DEXC   =    0.000                                                            
   RMAX   =    2.046    core radius for proj-oper                               
   RAUG   =    1.300    factor for augmentation sphere                          
   RDEP   =    2.025    radius for radial grids                                 
   RDEPT  =    1.558    core radius for aug-charge                              
                                                                                
   Atomic configuration                                                         
    8 entries                                                                   
     n  l   j            E        occ.                                          
     1  0  0.50     -8850.2467   2.0000                                         
     2  0  0.50     -1062.3498   2.0000                                         
     2  1  1.50      -916.8226   6.0000                                         
     3  0  0.50      -114.6929   2.0000                                         
     3  1  1.50       -72.1325   6.0000                                         
     3  2  2.50        -5.0394  10.0000                                         
     4  0  0.50        -4.6097   1.0000                                         
     4  3  2.50        -1.3606   0.0000                                         
   Description                                                                  
     l       E           TYP  RCUT    TYP  RCUT                                 
     1    -72.1324777     23  1.700                                             
     1     -1.3605826     23  1.700                                             
     2     -5.0393776     23  2.000                                             
     2     -6.3999602     23  2.000                                             
     0     -4.6097062     23  1.800                                             
     0     14.1620818     23  1.800                                             
  local pseudopotential read in
  partial core-charges read in
  partial kinetic energy density read in
  atomic valenz-charges read in
  non local Contribution for L=           1  read in
    real space projection operators read in
  non local Contribution for L=           1  read in
    real space projection operators read in
  non local Contribution for L=           2  read in
    real space projection operators read in
  non local Contribution for L=           2  read in
    real space projection operators read in
  non local Contribution for L=           0  read in
    real space projection operators read in
  non local Contribution for L=           0  read in
    real space projection operators read in
    PAW grid and wavefunctions read in
 
   number of l-projection  operators is LMAX  =           6
   number of lm-projection operators is LMMAX =          18
 
 POTCAR:     PAW_PBE Fe_pv 02Aug2007              
   SHA256 =  5d22e414b1f82158bf2c7ecb8b97b28fd0923e48cadc1c3bf74d524558f5dd32 Fe
   COPYR  = (c) Copyright 02Aug2007 Georg Kresse                                
   COPYR  = This file is part of the software VASP. Any use, copying, and all ot
   COPYR  = If you do not have a valid VASP license, you may not use, copy or di
   VRHFIN =Fe:  3pd7s1                                                          
   LEXCH  = PE                                                                  
   EATOM  =  2457.4239 eV,  180.6156 Ry                                         
                                                                                
   TITEL  = PAW_PBE Fe_pv 02Aug2007                                             
   LULTRA =        F    use ultrasoft PP ?                                      
   IUNSCR =        1    unscreen: 0-lin 1-nonlin 2-no                           
   RPACOR =    1.750    partial core radius                                     
   POMASS =   55.847; ZVAL   =   14.000    mass and valenz                      
   RCORE  =    2.200    outmost cutoff radius                                   
   RWIGS  =    2.200; RWIGS  =    1.164    wigner-seitz radius (au A)           
   ENMAX  =  293.238; ENMIN  =  219.928 eV                                      
   ICORE  =        3    local potential                                         
   LCOR   =        T    correct aug charges                                     
   LPAW   =        T    paw PP                                                  
   EAUG   =  578.342                                                            
   DEXC   =    0.000                                                            
   RMAX   =    2.249    core radius for proj-oper                               
   RAUG   =    1.300    factor for augmentation sphere                          
   RDEP   =    2.296    radius for radial grids                                 
   RDEPT  =    1.766    core radius for aug-charge                              
                                                                                
   Atomic configuration                                                         
    8 entries                                                                   
     n  l   j            E        occ.                                          
     1  0  0.50     -6993.8440   2.0000                                         
     2  0  0.50      -814.6047   2.0000                                         
     2  1  1.50      -693.3689   6.0000                                         
     3  0  0.50       -89.4732   2.0000                                         
     3  1  1.50       -55.6373   6.0000                                         
     3  2  2.50        -3.8151   7.0000                                         
     4  0  0.50        -4.2551   1.0000                                         
     4  3  2.50        -1.3606   0.0000                                         
   Description                                                                  
     l       E           TYP  RCUT    TYP  RCUT                                 
     1    -55.6372668     23  2.000                                             
     1     -5.4423304     23  2.000                                             
     2     -3.8151096     23  2.200                                             
     2     -5.1756922     23  2.200                                             
     0     -4.2550951     23  2.200                                             
     0     27.2116520     23  2.200                                             
     3     -1.3605826     23  2.200                                             
  local pseudopotential read in
  partial core-charges read in
  partial kinetic energy density read in
  atomic valenz-charges read in
  non local Contribution for L=           1  read in
    real space projection operators read in
  non local Contribution for L=           1  read in
    real space projection operators read in
  non local Contribution for L=           2  read in
    real space projection operators read in
  non local Contribution for L=           2  read in
    real space projection operators read in
  non local Contribution for L=           0  read in
    real space projection operators read in
  non local Contribution for L=           0  read in
    real space projection operators read in
    PAW grid and wavefunctions read in
 
   number of l-projection  operators is LMAX  =           6
   number of lm-projection operators is LMMAX =          18
 

 ----------------------------------------------------------------------------- 
|                                                                             |
|  ADVICE TO THIS USER RUNNING 'VASP/VAMP'   (HEAR YOUR MASTER'S VOICE ...):  |
|                                                                             |
|      You enforced a specific xc-type in the INCAR file,                     |
|      a different type was found on the POTCAR file                          |
|          I HOPE YOU KNOW, WHAT YOU ARE  DOING                               |
|                                                                             |
 ----------------------------------------------------------------------------- 

  PAW_PBE S 06Sep2000                   :
 energy of atom  1       EATOM= -276.8230
 kinetic energy error for atom=    0.0007 (will be added to EATOM!!)
   PAW_PBE Cu_pv 06Sep2000              :
 energy of atom  2       EATOM=-4120.1201
 kinetic energy error for atom=    0.0094 (will be added to EATOM!!)
   PAW_PBE Fe_pv 02Aug2007              :
 energy of atom  3       EATOM=-2457.4239
 kinetic energy error for atom=    0.0025 (will be added to EATOM!!)
 
 
 POSCAR: sm_isp_SD0310437-standardized_unitcell  
  positions in direct lattice
  velocities in cartesian coordinates
 exchange correlation table for  LEXCH =       14
   RHO(1)=    0.500       N(1)  =     2000
   RHO(2)=  100.500       N(2)  =     4000
 


--------------------------------------------------------------------------------------------------------


 ion  position               nearest neighbor table
   1  0.252  0.250  0.125-  10 2.29  11 2.29  13 2.30  16 2.30
   2  0.748  0.750  0.125-  10 2.29  11 2.29  13 2.30  16 2.30
   3  0.250  0.748  0.875-  11 2.29  12 2.29  13 2.30  14 2.30
   4  0.750  0.252  0.875-  11 2.29  12 2.29  13 2.30  14 2.30
   5  0.248  0.250  0.625-   9 2.29  12 2.29  14 2.30  15 2.30
   6  0.752  0.750  0.625-   9 2.29  12 2.29  14 2.30  15 2.30
   7  0.750  0.248  0.375-   9 2.29  10 2.29  15 2.30  16 2.30
   8  0.250  0.752  0.375-   9 2.29  10 2.29  15 2.30  16 2.30
   9  0.000  0.000  0.500-   7 2.29   8 2.29   5 2.29   6 2.29
  10  0.500  0.000  0.250-   7 2.29   8 2.29   1 2.29   2 2.29
  11  0.500  0.500  1.000-   4 2.29   3 2.29   1 2.29   2 2.29
  12  0.000  0.500  0.750-   4 2.29   3 2.29   5 2.29   6 2.29
  13  0.000  0.000  1.000-   3 2.30   4 2.30   2 2.30   1 2.30
  14  0.500  0.000  0.750-   3 2.30   4 2.30   6 2.30   5 2.30
  15  0.500  0.500  0.500-   8 2.30   7 2.30   6 2.30   5 2.30
  16  0.000  0.500  0.250-   8 2.30   7 2.30   2 2.30   1 2.30
 
  LATTYP: Found a simple orthorhombic cell.
 ALAT       =     4.9022957333
 B/A-ratio  =     1.1263549240
 C/A-ratio  =     2.2293129742
  
  Lattice vectors:
  
 A1 = (   0.0000000000,  -4.9022957333,   0.0000000000)
 A2 = (  -5.5217249383,   0.0000000000,   0.0000000000)
 A3 = (   0.0000000000,   0.0000000000, -10.9287514815)


Analysis of symmetry for initial positions (statically):
=====================================================================
 Subroutine PRICEL returns following result:
 
  LATTYP: Found a body centered orthorhombic cell.
 ALAT       =     4.9022957333
 B/A-ratio  =     1.1263549240
 C/A-ratio  =     2.2293129742
  
  Lattice vectors:
  
 A1 = (  -2.7608624691,  -2.4511478667,   5.4643757408)
 A2 = (   2.7608624691,   2.4511478667,   5.4643757408)
 A3 = (  -2.7608624691,   2.4511478667,  -5.4643757408)
 
   2 primitive cells build up your supercell.
 

 Routine SETGRP: Setting up the symmetry group for a 
 simple orthorhombic supercell.


 Subroutine GETGRP returns: Found  4 space group operations
 (whereof  2 operations were pure point group operations)
 out of a pool of  8 trial point group operations.


The static configuration has the point symmetry C_2 .
 The point group associated with its full space group is D_2 .


Analysis of symmetry for dynamics (positions and initial velocities):
=====================================================================
 Subroutine PRICEL returns following result:
 
  LATTYP: Found a body centered orthorhombic cell.
 ALAT       =     4.9022957333
 B/A-ratio  =     1.1263549240
 C/A-ratio  =     2.2293129742
  
  Lattice vectors:
  
 A1 = (  -2.7608624691,  -2.4511478667,   5.4643757408)
 A2 = (   2.7608624691,   2.4511478667,   5.4643757408)
 A3 = (  -2.7608624691,   2.4511478667,  -5.4643757408)
 
   2 primitive cells build up your supercell.
 

 Routine SETGRP: Setting up the symmetry group for a 
 simple orthorhombic supercell.


 Subroutine GETGRP returns: Found  4 space group operations
 (whereof  2 operations were pure point group operations)
 out of a pool of  8 trial point group operations.


The dynamic configuration has the point symmetry C_2 .
 The point group associated with its full space group is D_2 .


Analysis of structural, dynamic, and magnetic symmetry:
=====================================================================
 Subroutine PRICEL returns following result:
 
  LATTYP: Found a body centered orthorhombic cell.
 ALAT       =     4.9022957333
 B/A-ratio  =     1.1263549240
 C/A-ratio  =     2.2293129742
  
  Lattice vectors:
  
 A1 = (  -2.7608624691,  -2.4511478667,   5.4643757408)
 A2 = (   2.7608624691,   2.4511478667,   5.4643757408)
 A3 = (  -2.7608624691,   2.4511478667,  -5.4643757408)
 
   2 primitive cells build up your supercell.
 

 Routine SETGRP: Setting up the symmetry group for a 
 simple orthorhombic supercell.


 Subroutine GETGRP returns: Found  4 space group operations
 (whereof  2 operations were pure point group operations)
 out of a pool of  8 trial point group operations.


The (compounded) configuration has the point symmetry C_2 .
 The point group associated with its full space group is D_2 .


 Subroutine INISYM returns: Found  4 space group operations
 (whereof  2 operations are pure point group operations),
 and found     2 'primitive' translations

 
 
 KPOINTS: Automatic mesh                          

Automatic generation of k-mesh.
Space group operators:
 irot       det(A)        alpha          n_x          n_y          n_z        tau_x        tau_y        tau_z
    1     1.000000     0.000000     1.000000     0.000000     0.000000     0.000000     0.000000     0.000000
    2     1.000000   180.000000     0.000000     0.000000     1.000000     0.000000     0.000000     0.000000
    3     1.000000   180.000000     1.000000     0.000000     0.000000     0.000000     0.500000     0.250000
    4     1.000000   180.000000     0.000000     1.000000     0.000000     0.000000     0.500000     0.250000
 
 Subroutine IBZKPT returns following result:
 ===========================================
 
 Found     36 irreducible k-points:
 
 Following reciprocal coordinates:
            Coordinates               Weight
  0.000000  0.000000  0.000000      1.000000
  0.166667  0.000000  0.000000      2.000000
  0.333333  0.000000  0.000000      2.000000
  0.500000  0.000000  0.000000      1.000000
  0.000000  0.166667  0.000000      2.000000
  0.166667  0.166667  0.000000      4.000000
  0.333333  0.166667  0.000000      4.000000
  0.500000  0.166667  0.000000      2.000000
  0.000000  0.333333  0.000000      2.000000
  0.166667  0.333333  0.000000      4.000000
  0.333333  0.333333  0.000000      4.000000
  0.500000  0.333333  0.000000      2.000000
  0.000000  0.500000  0.000000      1.000000
  0.166667  0.500000  0.000000      2.000000
  0.333333  0.500000  0.000000      2.000000
  0.500000  0.500000  0.000000      1.000000
  0.000000  0.000000  0.333333      2.000000
  0.166667  0.000000  0.333333      4.000000
  0.333333  0.000000  0.333333      4.000000
  0.500000  0.000000  0.333333      2.000000
  0.000000  0.166667  0.333333      4.000000
  0.166667  0.166667  0.333333      4.000000
  0.333333  0.166667  0.333333      4.000000
  0.500000  0.166667  0.333333      4.000000
 -0.333333  0.166667  0.333333      4.000000
 -0.166667  0.166667  0.333333      4.000000
  0.000000  0.333333  0.333333      4.000000
  0.166667  0.333333  0.333333      4.000000
  0.333333  0.333333  0.333333      4.000000
  0.500000  0.333333  0.333333      4.000000
 -0.333333  0.333333  0.333333      4.000000
 -0.166667  0.333333  0.333333      4.000000
  0.000000  0.500000  0.333333      2.000000
  0.166667  0.500000  0.333333      4.000000
  0.333333  0.500000  0.333333      4.000000
  0.500000  0.500000  0.333333      2.000000
 
 Following cartesian coordinates:
            Coordinates               Weight
  0.000000  0.000000  0.000000      1.000000
  0.030184  0.000000  0.000000      2.000000
  0.060368  0.000000  0.000000      2.000000
  0.090551  0.000000  0.000000      1.000000
  0.000000  0.033998  0.000000      2.000000
  0.030184  0.033998  0.000000      4.000000
  0.060368  0.033998  0.000000      4.000000
  0.090551  0.033998  0.000000      2.000000
  0.000000  0.067995  0.000000      2.000000
  0.030184  0.067995  0.000000      4.000000
  0.060368  0.067995  0.000000      4.000000
  0.090551  0.067995  0.000000      2.000000
  0.000000  0.101993  0.000000      1.000000
  0.030184  0.101993  0.000000      2.000000
  0.060368  0.101993  0.000000      2.000000
  0.090551  0.101993  0.000000      1.000000
  0.000000  0.000000  0.030501      2.000000
  0.030184  0.000000  0.030501      4.000000
  0.060368  0.000000  0.030501      4.000000
  0.090551  0.000000  0.030501      2.000000
  0.000000  0.033998  0.030501      4.000000
  0.030184  0.033998  0.030501      4.000000
  0.060368  0.033998  0.030501      4.000000
  0.090551  0.033998  0.030501      4.000000
 -0.060368  0.033998  0.030501      4.000000
 -0.030184  0.033998  0.030501      4.000000
  0.000000  0.067995  0.030501      4.000000
  0.030184  0.067995  0.030501      4.000000
  0.060368  0.067995  0.030501      4.000000
  0.090551  0.067995  0.030501      4.000000
 -0.060368  0.067995  0.030501      4.000000
 -0.030184  0.067995  0.030501      4.000000
  0.000000  0.101993  0.030501      2.000000
  0.030184  0.101993  0.030501      4.000000
  0.060368  0.101993  0.030501      4.000000
  0.090551  0.101993  0.030501      2.000000
 
 TETIRR: Found    544 inequivalent tetrahedra from      648


--------------------------------------------------------------------------------------------------------




 Dimension of arrays:
   k-points           NKPTS =     36   k-points in BZ     NKDIM =     36   number of bands    NBANDS=    208
   number of dos      NEDOS =    301   number of ions     NIONS =     16
   non local maximal  LDIM  =      6   non local SUM 2l+1 LMDIM =     18
   total plane-waves  NPLWV = 193536
   max r-space proj   IRMAX =      1   max aug-charges    IRDMAX=  20808
   dimension x,y,z NGX =    48 NGY =   42 NGZ =   96
   dimension x,y,z NGXF=    96 NGYF=   84 NGZF=  192
   support grid    NGXF=    96 NGYF=   84 NGZF=  192
   ions per type =               8   4   4
   NGX,Y,Z   is equivalent  to a cutoff of  14.45, 14.24, 14.60 a.u.
   NGXF,Y,Z  is equivalent  to a cutoff of  28.90, 28.49, 29.21 a.u.

 SYSTEM =  CuFeS2                                  
 POSCAR =  sm_isp_SD0310437-standardized_unitcell  

 Startparameter for this run:
   NWRITE =      2    write-flag & timer
   PREC   = accura    normal or accurate (medium, high low for compatibility)
   ISTART =      1    job   : 0-new  1-cont  2-samecut
   ICHARG =      1    charge: 1-file 2-atom 10-const
   ISPIN  =      1    spin polarized calculation?
   LNONCOLLINEAR =      T non collinear calculations
   LSORBIT =      F    spin-orbit coupling
   INIWAV =      1    electr: 0-lowe 1-rand  2-diag
   LASPH  =      T    aspherical Exc in radial PAW
   METAGGA=      F    non-selfconsistent MetaGGA calc.

 Electronic Relaxation 1
   ENCUT  =  700.0 eV  51.45 Ry    7.17 a.u.  11.91 10.58 23.58*2*pi/ulx,y,z
   ENINI  =  700.0     initial cutoff
   ENAUG  =  758.2 eV  augmentation charge cutoff
   NELM   =    200;   NELMIN=  2; NELMDL=  0     # of ELM steps 
   EDIFF  = 0.1E-07   stopping-criterion for ELM
   LREAL  =      F    real-space projection
   NLSPLINE    = F    spline interpolate recip. space projectors
   LCOMPAT=      F    compatible to vasp.4.4
   GGA_COMPAT  = T    GGA compatible to vasp.4.4-vasp.4.6
   LMAXPAW     = -100 max onsite density
   LMAXMIX     =    4 max onsite mixed and CHGCAR
   VOSKOWN=      0    Vosko Wilk Nusair interpolation
   ROPT   =    0.00000   0.00000   0.00000
 Ionic relaxation
   EDIFFG = -.1E-04   stopping-criterion for IOM
   NSW    =      0    number of steps for IOM
   NBLOCK =      1;   KBLOCK =      1    inner block; outer block 
   IBRION =     -1    ionic relax: 0-MD 1-quasi-New 2-CG
   NFREE  =      0    steps in history (QN), initial steepest desc. (CG)
   ISIF   =      2    stress and relaxation
   IWAVPR =     10    prediction:  0-non 1-charg 2-wave 3-comb
   ISYM   =      1    0-nonsym 1-usesym 2-fastsym
   LCORR  =      T    Harris-Foulkes like correction to forces

   POTIM  = 0.1000    time-step for ionic-motion
   TEIN   =    0.0    initial temperature
   TEBEG  =    0.0;   TEEND  =   0.0 temperature during run
   SMASS  =  -3.00    Nose mass-parameter (am)
   estimated Nose-frequenzy (Omega)   =  0.10E-29 period in steps =****** mass=  -0.697E-27a.u.
   SCALEE = 1.0000    scale energy and forces
   NPACO  =    256;   APACO  = 16.0  distance and # of slots for P.C.
   PSTRESS=    0.0 pullay stress

  Mass of Ions in am
   POMASS =  32.07 63.55 55.85
  Ionic Valenz
   ZVAL   =   6.00 17.00 14.00
  Atomic Wigner-Seitz radii
   RWIGS  =  -1.00 -1.00 -1.00
  virtual crystal weights 
   VCA    =   1.00  1.00  1.00
   NELECT =     172.0000    total number of electrons
   NUPDOWN=      -1.0000    fix difference up-down

 DOS related values:
   EMIN   =  10.00;   EMAX   =-10.00  energy-range for DOS
   EFERMI =   0.00
   ISMEAR =    -5;   SIGMA  =   0.03  broadening in eV -4-tet -1-fermi 0-gaus

 Electronic relaxation 2 (details)
   IALGO  =     58    algorithm
   LDIAG  =      T    sub-space diagonalisation (order eigenvalues)
   LSUBROT=      F    optimize rotation matrix (better conditioning)
   TURBO    =      0    0=normal 1=particle mesh
   IRESTART =      0    0=no restart 2=restart with 2 vectors
   NREBOOT  =      0    no. of reboots
   NMIN     =      0    reboot dimension
   EREF     =   0.00    reference energy to select bands
   IMIX   =      4    mixing-type and parameters
     AMIX     =   0.40;   BMIX     =  1.00
     AMIX_MAG =   1.60;   BMIX_MAG =  1.00
     AMIN     =   0.10
     WC   =   100.;   INIMIX=   1;  MIXPRE=   1;  MAXMIX= -45

 Intra band minimization:
   WEIMIN = 0.0000     energy-eigenvalue tresh-hold
   EBREAK =  0.12E-10  absolut break condition
   DEPER  =   0.30     relativ break condition  

   TIME   =   0.40     timestep for ELM

  volume/ion in A,a.u.               =      18.49       124.77
  Fermi-wavevector in a.u.,A,eV,Ry     =   1.366373  2.582071 25.401751  1.866976
  Thomas-Fermi vector in A             =   2.492520
 
 Write flags
   LWAVE        =      T    write WAVECAR
   LDOWNSAMPLE  =      F    k-point downsampling of WAVECAR
   LCHARG       =      T    write CHGCAR
   LVTOT        =      F    write LOCPOT, total local potential
   LVHAR        =      F    write LOCPOT, Hartree potential only
   LELF         =      F    write electronic localiz. function (ELF)
   LORBIT       =     11    0 simple, 1 ext, 2 COOP (PROOUT), +10 PAW based schemes


 Dipole corrections
   LMONO  =      F    monopole corrections only (constant potential shift)
   LDIPOL =      F    correct potential (dipole corrections)
   IDIPOL =      0    1-x, 2-y, 3-z, 4-all directions 
   EPSILON=  1.0000000 bulk dielectric constant

 LDA+U is selected, type is set to LDAUTYPE =  2
   angular momentum for each species LDAUL =     2    2    2
   U (eV)           for each species LDAUU =   0.0  0.1  4.7
   J (eV)           for each species LDAUJ =   0.0  0.0  0.0
 Exchange correlation treatment:
   GGA     =    PS    GGA type
   LEXCH   =    14    internal setting for exchange type
   VOSKOWN=      0    Vosko Wilk Nusair interpolation
   LHFCALC =     F    Hartree Fock is set to
   LHFONE  =     F    Hartree Fock one center treatment
   AEXX    =    0.0000 exact exchange contribution

 Linear response parameters
   LEPSILON=     F    determine dielectric tensor
   LRPA    =     F    only Hartree local field effects (RPA)
   LNABLA  =     F    use nabla operator in PAW spheres
   LVEL    =     F    velocity operator in full k-point grid
   LINTERFAST=   F  fast interpolation
   KINTER  =     0    interpolate to denser k-point grid
   CSHIFT  =0.1000    complex shift for real part using Kramers Kronig
   OMEGAMAX=  -1.0    maximum frequency
   DEG_THRESHOLD= 0.2000000E-02 threshold for treating states as degnerate
   RTIME   =   -0.100 relaxation time in fs
  (WPLASMAI=    0.000 imaginary part of plasma frequency in eV, 0.658/RTIME)
   DFIELD  = 0.0000000 0.0000000 0.0000000 field for delta impulse in time
 
 Orbital magnetization related:
   ORBITALMAG=     F  switch on orbital magnetization
   LCHIMAG   =     F  perturbation theory with respect to B field
   DQ        =  0.001000  dq finite difference perturbation B field
   LLRAUG    =     F  two centre corrections for induced B field



--------------------------------------------------------------------------------------------------------


 Static calculation
 charge density and potential will be updated during run
 non collinear spin polarized calculation
 Conjugate gradient for all bands (Freysoldt, et al. PRB 79, 241103 (2009))
 preconditioned conjugated gradient                                        
 perform sub-space diagonalisation
    before iterative eigenvector-optimisation
 modified Broyden-mixing scheme, WC =      100.0
 initial mixing is a Kerker type mixing with AMIX =  0.4000 and BMIX =      1.0000
 Hartree-type preconditioning will be used
 using additional bands          122
 reciprocal scheme for non local part
 use partial core corrections
 no Harris-corrections to forces 
 use gradient corrections 
 use of overlap-Matrix (Vanderbilt PP)
 Fermi weights with tetrahedron method with Bloechl corrections


--------------------------------------------------------------------------------------------------------


  energy-cutoff  :      700.00
  volume of cell :      295.83
      direct lattice vectors                 reciprocal lattice vectors
     5.521724938  0.000000000  0.000000000     0.181102828  0.000000000  0.000000000
     0.000000000  4.902295733  0.000000000     0.000000000  0.203986062  0.000000000
     0.000000000  0.000000000 10.928751482     0.000000000  0.000000000  0.091501760

  length of vectors
     5.521724938  4.902295733 10.928751482     0.181102828  0.203986062  0.091501760


 
 old parameters found on file WAVECAR:
  energy-cutoff  :      700.00
  volume of cell :      295.91
      direct lattice vectors                 reciprocal lattice vectors
     5.521724938  0.000000000  0.000000000     0.181102828  0.000000000  0.000000000
     0.000000000  4.903596350  0.000000000     0.000000000  0.203931957  0.000000000
     0.000000000  0.000000000 10.928751482     0.000000000  0.000000000  0.091501760

  length of vectors

 
 k-points in units of 2pi/SCALE and weight: Automatic mesh                          
   0.00000000  0.00000000  0.00000000       0.009
   0.03018380  0.00000000  0.00000000       0.019
   0.06036761  0.00000000  0.00000000       0.019
   0.09055141  0.00000000  0.00000000       0.009
   0.00000000  0.03399768  0.00000000       0.019
   0.03018380  0.03399768  0.00000000       0.037
   0.06036761  0.03399768  0.00000000       0.037
   0.09055141  0.03399768  0.00000000       0.019
   0.00000000  0.06799535  0.00000000       0.019
   0.03018380  0.06799535  0.00000000       0.037
   0.06036761  0.06799535  0.00000000       0.037
   0.09055141  0.06799535  0.00000000       0.019
   0.00000000  0.10199303  0.00000000       0.009
   0.03018380  0.10199303  0.00000000       0.019
   0.06036761  0.10199303  0.00000000       0.019
   0.09055141  0.10199303  0.00000000       0.009
   0.00000000  0.00000000  0.03050059       0.019
   0.03018380  0.00000000  0.03050059       0.037
   0.06036761  0.00000000  0.03050059       0.037
   0.09055141  0.00000000  0.03050059       0.019
   0.00000000  0.03399768  0.03050059       0.037
   0.03018380  0.03399768  0.03050059       0.037
   0.06036761  0.03399768  0.03050059       0.037
   0.09055141  0.03399768  0.03050059       0.037
  -0.06036761  0.03399768  0.03050059       0.037
  -0.03018380  0.03399768  0.03050059       0.037
   0.00000000  0.06799535  0.03050059       0.037
   0.03018380  0.06799535  0.03050059       0.037
   0.06036761  0.06799535  0.03050059       0.037
   0.09055141  0.06799535  0.03050059       0.037
  -0.06036761  0.06799535  0.03050059       0.037
  -0.03018380  0.06799535  0.03050059       0.037
   0.00000000  0.10199303  0.03050059       0.019
   0.03018380  0.10199303  0.03050059       0.037
   0.06036761  0.10199303  0.03050059       0.037
   0.09055141  0.10199303  0.03050059       0.019
 
 k-points in reciprocal lattice and weights: Automatic mesh                          
   0.00000000  0.00000000  0.00000000       0.009
   0.16666667  0.00000000  0.00000000       0.019
   0.33333333  0.00000000  0.00000000       0.019
   0.50000000  0.00000000  0.00000000       0.009
   0.00000000  0.16666667  0.00000000       0.019
   0.16666667  0.16666667  0.00000000       0.037
   0.33333333  0.16666667  0.00000000       0.037
   0.50000000  0.16666667  0.00000000       0.019
   0.00000000  0.33333333  0.00000000       0.019
   0.16666667  0.33333333  0.00000000       0.037
   0.33333333  0.33333333  0.00000000       0.037
   0.50000000  0.33333333  0.00000000       0.019
   0.00000000  0.50000000  0.00000000       0.009
   0.16666667  0.50000000  0.00000000       0.019
   0.33333333  0.50000000  0.00000000       0.019
   0.50000000  0.50000000  0.00000000       0.009
   0.00000000  0.00000000  0.33333333       0.019
   0.16666667  0.00000000  0.33333333       0.037
   0.33333333  0.00000000  0.33333333       0.037
   0.50000000  0.00000000  0.33333333       0.019
   0.00000000  0.16666667  0.33333333       0.037
   0.16666667  0.16666667  0.33333333       0.037
   0.33333333  0.16666667  0.33333333       0.037
   0.50000000  0.16666667  0.33333333       0.037
  -0.33333333  0.16666667  0.33333333       0.037
  -0.16666667  0.16666667  0.33333333       0.037
   0.00000000  0.33333333  0.33333333       0.037
   0.16666667  0.33333333  0.33333333       0.037
   0.33333333  0.33333333  0.33333333       0.037
   0.50000000  0.33333333  0.33333333       0.037
  -0.33333333  0.33333333  0.33333333       0.037
  -0.16666667  0.33333333  0.33333333       0.037
   0.00000000  0.50000000  0.33333333       0.019
   0.16666667  0.50000000  0.33333333       0.037
   0.33333333  0.50000000  0.33333333       0.037
   0.50000000  0.50000000  0.33333333       0.019
 
 position of ions in fractional coordinates (direct lattice) 
   0.25187093  0.25000000  0.12500000
   0.74812910  0.75000000  0.12500000
   0.25000000  0.74803880  0.87500000
   0.75000000  0.25196123  0.87500000
   0.24812907  0.25000000  0.62500000
   0.75187090  0.75000000  0.62500000
   0.75000000  0.24803877  0.37500000
   0.25000000  0.75196120  0.37500000
   0.00000000  0.00000000  0.49954132
   0.50000000  0.00000000  0.25045868
   0.50000000  0.50000000  0.99954132
   0.00000000  0.50000000  0.75045868
   0.00000000  0.00000000  0.99974328
   0.50000000  0.00000000  0.75025672
   0.50000000  0.50000000  0.49974328
   0.00000000  0.50000000  0.25025672
 
 position of ions in cartesian coordinates  (Angst):
   1.39076199  1.22557393  1.36609394
   4.13096311  3.67672180  1.36609394
   1.38043123  3.66710741  9.56265755
   4.14129370  1.23518847  9.56265755
   1.37010048  1.22557393  6.83046968
   4.15162430  3.67672180  6.83046968
   4.14129370  1.21595939  4.09828181
   1.38043123  3.68633619  4.09828181
   0.00000000  0.00000000  5.45936298
   2.76086247  0.00000000  2.73720063
   2.76086247  2.45114787 10.92373872
   0.00000000  2.45114787  8.20157638
   0.00000000  0.00000000 10.92594586
   2.76086247  0.00000000  8.19936923
   2.76086247  2.45114787  5.46157012
   0.00000000  2.45114787  2.73499349
 
 Euler angles ALPHA=     0.0000000  BETA=     0.0000000

 transformation matrix from SAXIS to cartesian coordinates
 ---------------------------------------------------------
     1.0000000 m_x     0.0000000 m_y     0.0000000 m_z
     0.0000000 m_x     1.0000000 m_y     0.0000000 m_z
     0.0000000 m_x     0.0000000 m_y     1.0000000 m_z

 transformation matrix from cartesian coordinates to SAXIS
 ---------------------------------------------------------
     1.0000000 m_x     0.0000000 m_y     0.0000000 m_z
     0.0000000 m_x     1.0000000 m_y     0.0000000 m_z
     0.0000000 m_x     0.0000000 m_y     1.0000000 m_z




--------------------------------------------------------------------------------------------------------


 k-point  1 :   0.0000 0.0000 0.0000  plane waves:   24842
 k-point  2 :   0.1667 0.0000 0.0000  plane waves:   24960
 k-point  3 :   0.3333 0.0000 0.0000  plane waves:   24956
 k-point  4 :   0.5000 0.0000 0.0000  plane waves:   24920
 k-point  5 :   0.0000 0.1667 0.0000  plane waves:   24870
 k-point  6 :   0.1667 0.1667 0.0000  plane waves:   24892
 k-point  7 :   0.3333 0.1667 0.0000  plane waves:   24880
 k-point  8 :   0.5000 0.1667 0.0000  plane waves:   24908
 k-point  9 :   0.0000 0.3333 0.0000  plane waves:   24894
 k-point 10 :   0.1667 0.3333 0.0000  plane waves:   24854
 k-point 11 :   0.3333 0.3333 0.0000  plane waves:   24890
 k-point 12 :   0.5000 0.3333 0.0000  plane waves:   24912
 k-point 13 :   0.0000 0.5000 0.0000  plane waves:   24900
 k-point 14 :   0.1667 0.5000 0.0000  plane waves:   24844
 k-point 15 :   0.3333 0.5000 0.0000  plane waves:   24872
 k-point 16 :   0.5000 0.5000 0.0000  plane waves:   24912
 k-point 17 :   0.0000 0.0000 0.3333  plane waves:   24854
 k-point 18 :   0.1667 0.0000 0.3333  plane waves:   24870
 k-point 19 :   0.3333 0.0000 0.3333  plane waves:   24932
 k-point 20 :   0.5000 0.0000 0.3333  plane waves:   24920
 k-point 21 :   0.0000 0.1667 0.3333  plane waves:   24864
 k-point 22 :   0.1667 0.1667 0.3333  plane waves:   24880
 k-point 23 :   0.3333 0.1667 0.3333  plane waves:   24926
 k-point 24 :   0.5000 0.1667 0.3333  plane waves:   24932
 k-point 25 :  -0.3333 0.1667 0.3333  plane waves:   24926
 k-point 26 :  -0.1667 0.1667 0.3333  plane waves:   24880
 k-point 27 :   0.0000 0.3333 0.3333  plane waves:   24870
 k-point 28 :   0.1667 0.3333 0.3333  plane waves:   24854
 k-point 29 :   0.3333 0.3333 0.3333  plane waves:   24878
 k-point 30 :   0.5000 0.3333 0.3333  plane waves:   24888
 k-point 31 :  -0.3333 0.3333 0.3333  plane waves:   24878
 k-point 32 :  -0.1667 0.3333 0.3333  plane waves:   24854
 k-point 33 :   0.0000 0.5000 0.3333  plane waves:   24872
 k-point 34 :   0.1667 0.5000 0.3333  plane waves:   24848
 k-point 35 :   0.3333 0.5000 0.3333  plane waves:   24832
 k-point 36 :   0.5000 0.5000 0.3333  plane waves:   24800

 maximum and minimum number of plane-waves per node :       820      746

 maximum number of plane-waves:     24960
 maximum index in each direction: 
   IXMAX=   12   IYMAX=   10   IZMAX=   23
   IXMIN=  -12   IYMIN=  -11   IZMIN=  -23


 parallel 3D FFT for wavefunctions:
    minimum data exchange during FFTs selected (reduces bandwidth)
 parallel 3D FFT for charge:
    minimum data exchange during FFTs selected (reduces bandwidth)


 total amount of memory used by VASP MPI-rank0    80077. kBytes
=======================================================================

   base      :      30000. kBytes
   nonl-proj :       6196. kBytes
   fftplans  :       1279. kBytes
   grid      :       5160. kBytes
   one-center:         62. kBytes
   wavefun   :      37380. kBytes
 
     INWAV:  cpu time    7.7343: real time    7.8133
 Broyden mixing: mesh for mixing (old mesh)
   NGX = 23   NGY = 21   NGZ = 47
  (NGX  = 96   NGY  = 84   NGZ  =192)
  gives a total of  22701 points

 initial charge density was supplied:
 number of electron     172.0000122 magnetization      -0.0000000      0.0000000     -0.0000000
 charge density for first step will be calculated from the start-wavefunctions


--------------------------------------------------------------------------------------------------------


 BZINTS: Fermi energy:  4.679510;172.000000 electrons
         Band energy:***********;  BLOECHL correction:  0.000000
 Maximum index for augmentation-charges          859 (set IRDMAX)


--------------------------------------------------------------------------------------------------------


 initial charge from wavefunction
 First call to EWALD:  gamma=   0.266
 Maximum number of real-space cells 3x 4x 2
 Maximum number of reciprocal cells 2x 2x 4

    FEWALD:  cpu time    0.0244: real time    0.0245

 ----------------------------------------------------------------------------- 
|                                                                             |
|           W    W    AA    RRRRR   N    N  II  N    N   GGGG   !!!           |
|           W    W   A  A   R    R  NN   N  II  NN   N  G    G  !!!           |
|           W    W  A    A  R    R  N N  N  II  N N  N  G       !!!           |
|           W WW W  AAAAAA  RRRRR   N  N N  II  N  N N  G  GGG   !            |
|           WW  WW  A    A  R   R   N   NN  II  N   NN  G    G                |
|           W    W  A    A  R    R  N    N  II  N    N   GGGG   !!!           |
|                                                                             |
|      ALGO=A and IALGO=5X tend to fail with the tetrahedron method           |
|      (e.g. Bloechls method ISMEAR=-5 is not variational)                    |
|      please switch to IMSEAR=0-n, except for DOS calculations               |
|      For DOS calculations use IALGO=53 after preconverging with ISMEAR>=0   |
|          I HOPE YOU KNOW, WHAT YOU ARE  DOING                               |
|                                                                             |
 ----------------------------------------------------------------------------- 



--------------------------------------- Iteration      1(   1)  ---------------------------------------


    POTLOK:  cpu time    0.1823: real time    0.1833
    SETDIJ:  cpu time    0.5959: real time    0.5979
    TRIAL :  cpu time    3.9012: real time    3.9405
 BZINTS: Fermi energy:  4.679504;172.000000 electrons
         Band energy:***********;  BLOECHL correction:  0.000000
 BZINTS: Fermi energy:  4.679509;172.000000 electrons
         Band energy:***********;  BLOECHL correction:  0.000000
    CORREC:  cpu time    3.4765: real time    3.4938
    CHARGE:  cpu time    0.9478: real time    0.9525
    --------------------------------------------
      LOOP:  cpu time    9.1163: real time    9.2288

 eigenvalue-minimisations  :     0
 total energy-change (2. order) :-0.8172295E+02  (-0.2779530E-06)
 number of electron     172.0000122 magnetization       0.0000000      0.0000000      0.0000000
 augmentation part       70.5809481 magnetization      -0.0000011      0.0000004      0.0006235

 Free energy of the ion-electron system (eV)
  ---------------------------------------------------
  alpha Z        PSCENC =       572.78129289
  Ewald energy   TEWEN  =    -15494.05455125
  -Hartree energ DENC   =    -10809.15669501
  -exchange      EXHF   =         0.00000000
  -V(xc)+E(xc)   XCENC  =       820.56363001
  PAW double counting   =     27748.60707569   -28670.74134603
  entropy T*S    EENTRO =         0.00000000
  eigenvalues    EBANDS =     -2754.73863145
  atomic energy  EATOM  =     28505.01627691
  ---------------------------------------------------
  free energy    TOTEN  =       -81.72294824 eV

  energy without entropy =      -81.72294824  energy(sigma->0) =      -81.72294824


--------------------------------------------------------------------------------------------------------




--------------------------------------- Iteration      1(   2)  ---------------------------------------


    POTLOK:  cpu time    0.0839: real time    0.0843
    SETDIJ:  cpu time    0.5911: real time    0.5932
    TRIAL :  cpu time    3.7573: real time    3.7800
 BZINTS: Fermi energy:  4.679503;172.000000 electrons
         Band energy:***********;  BLOECHL correction:  0.000000
 BZINTS: Fermi energy:  4.679508;172.000000 electrons
         Band energy:***********;  BLOECHL correction:  0.000000
    CORREC:  cpu time    3.4468: real time    3.4634
    CHARGE:  cpu time    0.9526: real time    0.9574
    --------------------------------------------
      LOOP:  cpu time    8.8499: real time    8.8986

 eigenvalue-minimisations  :     0
 total energy-change (2. order) :-0.5704645E-05  (-0.1274856E-06)
 number of electron     172.0000122 magnetization       0.0000000      0.0000000      0.0000000
 augmentation part       70.5809481 magnetization      -0.0000011      0.0000004      0.0006235

 Free energy of the ion-electron system (eV)
  ---------------------------------------------------
  alpha Z        PSCENC =       572.78129289
  Ewald energy   TEWEN  =    -15494.05455125
  -Hartree energ DENC   =    -10809.15664642
  -exchange      EXHF   =         0.00000000
  -V(xc)+E(xc)   XCENC  =       820.56361673
  PAW double counting   =     27748.60687946   -28670.74114796
  entropy T*S    EENTRO =         0.00000000
  eigenvalues    EBANDS =     -2754.73867431
  atomic energy  EATOM  =     28505.01627691
  ---------------------------------------------------
  free energy    TOTEN  =       -81.72295394 eV

  energy without entropy =      -81.72295394  energy(sigma->0) =      -81.72295394


--------------------------------------------------------------------------------------------------------




--------------------------------------- Iteration      1(   3)  ---------------------------------------


    POTLOK:  cpu time    0.0835: real time    0.0840
    SETDIJ:  cpu time    0.5935: real time    0.5955
    TRIAL :  cpu time    3.7485: real time    3.7711
 BZINTS: Fermi energy:  4.679503;172.000000 electrons
         Band energy:***********;  BLOECHL correction:  0.000000
 BZINTS: Fermi energy:  4.679508;172.000000 electrons
         Band energy:***********;  BLOECHL correction:  0.000000
    CORREC:  cpu time    3.4144: real time    3.4310
    CHARGE:  cpu time    0.9684: real time    0.9733
    --------------------------------------------
      LOOP:  cpu time    8.8207: real time    8.8698

 eigenvalue-minimisations  :     0
 total energy-change (2. order) :-0.3710858E-05  (-0.7240273E-07)
 number of electron     172.0000122 magnetization       0.0000000      0.0000000      0.0000000
 augmentation part       70.5809480 magnetization      -0.0000010      0.0000004      0.0006235

 Free energy of the ion-electron system (eV)
  ---------------------------------------------------
  alpha Z        PSCENC =       572.78129289
  Ewald energy   TEWEN  =    -15494.05455125
  -Hartree energ DENC   =    -10809.15661432
  -exchange      EXHF   =         0.00000000
  -V(xc)+E(xc)   XCENC  =       820.56360786
  PAW double counting   =     27748.60673620   -28670.74100359
  entropy T*S    EENTRO =         0.00000000
  eigenvalues    EBANDS =     -2754.73870236
  atomic energy  EATOM  =     28505.01627691
  ---------------------------------------------------
  free energy    TOTEN  =       -81.72295765 eV

  energy without entropy =      -81.72295765  energy(sigma->0) =      -81.72295765


--------------------------------------------------------------------------------------------------------




--------------------------------------- Iteration      1(   4)  ---------------------------------------


    POTLOK:  cpu time    0.0843: real time    0.0848
    SETDIJ:  cpu time    0.5947: real time    0.5967
    TRIAL :  cpu time    3.6681: real time    3.6903
 BZINTS: Fermi energy:  4.679503;172.000000 electrons
         Band energy:***********;  BLOECHL correction:  0.000000
 BZINTS: Fermi energy:  4.679508;172.000000 electrons
         Band energy:***********;  BLOECHL correction:  0.000000
    CORREC:  cpu time    3.4253: real time    3.4421
    CHARGE:  cpu time    0.9528: real time    0.9576
    --------------------------------------------
      LOOP:  cpu time    8.7429: real time    8.7899

 eigenvalue-minimisations  :     0
 total energy-change (2. order) :-0.2524153E-05  (-0.5000305E-07)
 number of electron     172.0000122 magnetization       0.0000000      0.0000000      0.0000000
 augmentation part       70.5809480 magnetization      -0.0000010      0.0000004      0.0006235

 Free energy of the ion-electron system (eV)
  ---------------------------------------------------
  alpha Z        PSCENC =       572.78129289
  Ewald energy   TEWEN  =    -15494.05455125
  -Hartree energ DENC   =    -10809.15659046
  -exchange      EXHF   =         0.00000000
  -V(xc)+E(xc)   XCENC  =       820.56360173
  PAW double counting   =     27748.60662019   -28670.74088679
  entropy T*S    EENTRO =         0.00000000
  eigenvalues    EBANDS =     -2754.73872340
  atomic energy  EATOM  =     28505.01627691
  ---------------------------------------------------
  free energy    TOTEN  =       -81.72296018 eV

  energy without entropy =      -81.72296018  energy(sigma->0) =      -81.72296018


--------------------------------------------------------------------------------------------------------




--------------------------------------- Iteration      1(   5)  ---------------------------------------


    POTLOK:  cpu time    0.0818: real time    0.0823
    SETDIJ:  cpu time    0.5932: real time    0.5951
    TRIAL :  cpu time    3.6347: real time    3.6567
 BZINTS: Fermi energy:  4.679503;172.000000 electrons
         Band energy:***********;  BLOECHL correction:  0.000000
 BZINTS: Fermi energy:  4.679507;172.000000 electrons
         Band energy:***********;  BLOECHL correction:  0.000000
    CORREC:  cpu time    3.4043: real time    3.4209
    CHARGE:  cpu time    0.9549: real time    0.9599
    --------------------------------------------
      LOOP:  cpu time    8.6814: real time    8.7301

 eigenvalue-minimisations  :     0
 total energy-change (2. order) :-0.1666289E-05  (-0.4179041E-07)
 number of electron     172.0000122 magnetization       0.0000000      0.0000000      0.0000000
 augmentation part       70.5809480 magnetization      -0.0000009      0.0000004      0.0006235

 Free energy of the ion-electron system (eV)
  ---------------------------------------------------
  alpha Z        PSCENC =       572.78129289
  Ewald energy   TEWEN  =    -15494.05455125
  -Hartree energ DENC   =    -10809.15657116
  -exchange      EXHF   =         0.00000000
  -V(xc)+E(xc)   XCENC  =       820.56359762
  PAW double counting   =     27748.60652018   -28670.74078617
  entropy T*S    EENTRO =         0.00000000
  eigenvalues    EBANDS =     -2754.73874086
  atomic energy  EATOM  =     28505.01627691
  ---------------------------------------------------
  free energy    TOTEN  =       -81.72296184 eV

  energy without entropy =      -81.72296184  energy(sigma->0) =      -81.72296184


--------------------------------------------------------------------------------------------------------




--------------------------------------- Iteration      1(   6)  ---------------------------------------


    POTLOK:  cpu time    0.0822: real time    0.0827
    SETDIJ:  cpu time    0.5934: real time    0.5953
    TRIAL :  cpu time    3.6965: real time    3.7193
 BZINTS: Fermi energy:  4.679504;172.000000 electrons
         Band energy:***********;  BLOECHL correction:  0.000000
 BZINTS: Fermi energy:  4.679507;172.000000 electrons
         Band energy:***********;  BLOECHL correction:  0.000000
    CORREC:  cpu time    3.4202: real time    3.4369
    CHARGE:  cpu time    0.9519: real time    0.9564
    --------------------------------------------
      LOOP:  cpu time    8.7592: real time    8.8060

 eigenvalue-minimisations  :     0
 total energy-change (2. order) :-0.1190361E-05  (-0.4392848E-07)
 number of electron     172.0000122 magnetization       0.0000000      0.0000000      0.0000000
 augmentation part       70.5809480 magnetization      -0.0000009      0.0000005      0.0006235

 Free energy of the ion-electron system (eV)
  ---------------------------------------------------
  alpha Z        PSCENC =       572.78129289
  Ewald energy   TEWEN  =    -15494.05455125
  -Hartree energ DENC   =    -10809.15655330
  -exchange      EXHF   =         0.00000000
  -V(xc)+E(xc)   XCENC  =       820.56359462
  PAW double counting   =     27748.60642223   -28670.74068769
  entropy T*S    EENTRO =         0.00000000
  eigenvalues    EBANDS =     -2754.73875745
  atomic energy  EATOM  =     28505.01627691
  ---------------------------------------------------
  free energy    TOTEN  =       -81.72296303 eV

  energy without entropy =      -81.72296303  energy(sigma->0) =      -81.72296303


--------------------------------------------------------------------------------------------------------




--------------------------------------- Iteration      1(   7)  ---------------------------------------


    POTLOK:  cpu time    0.0827: real time    0.0831
    SETDIJ:  cpu time    0.5932: real time    0.5951
    TRIAL :  cpu time    3.7049: real time    3.7274
 BZINTS: Fermi energy:  4.679504;172.000000 electrons
         Band energy:***********;  BLOECHL correction:  0.000000
 BZINTS: Fermi energy:  4.679506;172.000000 electrons
         Band energy:***********;  BLOECHL correction:  0.000000
    CORREC:  cpu time    3.4321: real time    3.4490
    CHARGE:  cpu time    0.9501: real time    0.9549
    --------------------------------------------
      LOOP:  cpu time    8.7793: real time    8.8283

 eigenvalue-minimisations  :     0
 total energy-change (2. order) :-0.1070177E-05  (-0.6667509E-07)
 number of electron     172.0000122 magnetization       0.0000000      0.0000000      0.0000000
 augmentation part       70.5809480 magnetization      -0.0000009      0.0000005      0.0006235

 Free energy of the ion-electron system (eV)
  ---------------------------------------------------
  alpha Z        PSCENC =       572.78129289
  Ewald energy   TEWEN  =    -15494.05455125
  -Hartree energ DENC   =    -10809.15653345
  -exchange      EXHF   =         0.00000000
  -V(xc)+E(xc)   XCENC  =       820.56359188
  PAW double counting   =     27748.60630656   -28670.74057150
  entropy T*S    EENTRO =         0.00000000
  eigenvalues    EBANDS =     -2754.73877615
  atomic energy  EATOM  =     28505.01627691
  ---------------------------------------------------
  free energy    TOTEN  =       -81.72296410 eV

  energy without entropy =      -81.72296410  energy(sigma->0) =      -81.72296410


--------------------------------------------------------------------------------------------------------




--------------------------------------- Iteration      1(   8)  ---------------------------------------


    POTLOK:  cpu time    0.0811: real time    0.0817
    SETDIJ:  cpu time    0.5938: real time    0.5958
    TRIAL :  cpu time    3.6841: real time    3.7068
 BZINTS: Fermi energy:  4.679505;172.000000 electrons
         Band energy:***********;  BLOECHL correction:  0.000000
 BZINTS: Fermi energy:  4.679506;172.000000 electrons
         Band energy:***********;  BLOECHL correction:  0.000000
    CORREC:  cpu time    3.4040: real time    3.4209
    CHARGE:  cpu time    0.9514: real time    0.9562
    --------------------------------------------
      LOOP:  cpu time    8.7301: real time    8.7780

 eigenvalue-minimisations  :     0
 total energy-change (2. order) :-0.1599463E-05  (-0.1162477E-06)
 number of electron     172.0000122 magnetization       0.0000000      0.0000000      0.0000000
 augmentation part       70.5809479 magnetization      -0.0000008      0.0000004      0.0006235

 Free energy of the ion-electron system (eV)
  ---------------------------------------------------
  alpha Z        PSCENC =       572.78129289
  Ewald energy   TEWEN  =    -15494.05455125
  -Hartree energ DENC   =    -10809.15650249
  -exchange      EXHF   =         0.00000000
  -V(xc)+E(xc)   XCENC  =       820.56358780
  PAW double counting   =     27748.60611106   -28670.74037542
  entropy T*S    EENTRO =         0.00000000
  eigenvalues    EBANDS =     -2754.73880521
  atomic energy  EATOM  =     28505.01627691
  ---------------------------------------------------
  free energy    TOTEN  =       -81.72296570 eV

  energy without entropy =      -81.72296570  energy(sigma->0) =      -81.72296570


--------------------------------------------------------------------------------------------------------




--------------------------------------- Iteration      1(   9)  ---------------------------------------


    POTLOK:  cpu time    0.0820: real time    0.0825
    SETDIJ:  cpu time    0.5936: real time    0.5956
    TRIAL :  cpu time    3.6631: real time    3.6860
 BZINTS: Fermi energy:  4.679505;172.000000 electrons
         Band energy:***********;  BLOECHL correction:  0.000000
 BZINTS: Fermi energy:  4.679506;172.000000 electrons
         Band energy:***********;  BLOECHL correction:  0.000000
    CORREC:  cpu time    3.4388: real time    3.4559
    CHARGE:  cpu time    0.9538: real time    0.9586
    --------------------------------------------
      LOOP:  cpu time    8.7463: real time    8.7950

 eigenvalue-minimisations  :     0
 total energy-change (2. order) :-0.2679091E-05  (-0.1283049E-07)
 number of electron     172.0000122 magnetization       0.0000000      0.0000000      0.0000000
 augmentation part       70.5809479 magnetization      -0.0000007      0.0000004      0.0006235

 Free energy of the ion-electron system (eV)
  ---------------------------------------------------
  alpha Z        PSCENC =       572.78129289
  Ewald energy   TEWEN  =    -15494.05455125
  -Hartree energ DENC   =    -10809.15644888
  -exchange      EXHF   =         0.00000000
  -V(xc)+E(xc)   XCENC  =       820.56358089
  PAW double counting   =     27748.60570701   -28670.73997172
  entropy T*S    EENTRO =         0.00000000
  eigenvalues    EBANDS =     -2754.73885424
  atomic energy  EATOM  =     28505.01627691
  ---------------------------------------------------
  free energy    TOTEN  =       -81.72296838 eV

  energy without entropy =      -81.72296838  energy(sigma->0) =      -81.72296838


--------------------------------------------------------------------------------------------------------




--------------------------------------- Iteration      1(  10)  ---------------------------------------


    POTLOK:  cpu time    0.0817: real time    0.0823
    SETDIJ:  cpu time    0.5927: real time    0.5949
    TRIAL :  cpu time    3.6451: real time    3.6711
 BZINTS: Fermi energy:  4.679506;172.000000 electrons
         Band energy:***********;  BLOECHL correction:  0.000000
 BZINTS: Fermi energy:  4.679506;172.000000 electrons
         Band energy:***********;  BLOECHL correction:  0.000000
    CORREC:  cpu time    3.4083: real time    3.4268
    CHARGE:  cpu time    0.9520: real time    0.9568
    --------------------------------------------
      LOOP:  cpu time    8.6961: real time    8.7486

 eigenvalue-minimisations  :     0
 total energy-change (2. order) :-0.1858971E-06  (-0.5793720E-08)
 number of electron     172.0000122 magnetization       0.0000000      0.0000000      0.0000000
 augmentation part       70.5809479 magnetization      -0.0000007      0.0000004      0.0006235

 Free energy of the ion-electron system (eV)
  ---------------------------------------------------
  alpha Z        PSCENC =       572.78129289
  Ewald energy   TEWEN  =    -15494.05455125
  -Hartree energ DENC   =    -10809.15644271
  -exchange      EXHF   =         0.00000000
  -V(xc)+E(xc)   XCENC  =       820.56358038
  PAW double counting   =     27748.60564154   -28670.73990670
  entropy T*S    EENTRO =         0.00000000
  eigenvalues    EBANDS =     -2754.73885963
  atomic energy  EATOM  =     28505.01627691
  ---------------------------------------------------
  free energy    TOTEN  =       -81.72296857 eV

  energy without entropy =      -81.72296857  energy(sigma->0) =      -81.72296857


--------------------------------------------------------------------------------------------------------




--------------------------------------- Iteration      1(  11)  ---------------------------------------


    POTLOK:  cpu time    0.0824: real time    0.0829
    SETDIJ:  cpu time    0.5929: real time    0.5949
    TRIAL :  cpu time    3.7589: real time    3.7815
 BZINTS: Fermi energy:  4.679506;172.000000 electrons
         Band energy:***********;  BLOECHL correction:  0.000000
 BZINTS: Fermi energy:  4.679506;172.000000 electrons
         Band energy:***********;  BLOECHL correction:  0.000000
    CORREC:  cpu time    3.4073: real time    3.4239
    CHARGE:  cpu time    0.9529: real time    0.9578
    --------------------------------------------
      LOOP:  cpu time    8.8120: real time    8.8588

 eigenvalue-minimisations  :     0
 total energy-change (2. order) :-0.1852386E-06  (-0.6972303E-08)
 number of electron     172.0000122 magnetization       0.0000000      0.0000000      0.0000000
 augmentation part       70.5809479 magnetization      -0.0000007      0.0000004      0.0006235

 Free energy of the ion-electron system (eV)
  ---------------------------------------------------
  alpha Z        PSCENC =       572.78129289
  Ewald energy   TEWEN  =    -15494.05455125
  -Hartree energ DENC   =    -10809.15644141
  -exchange      EXHF   =         0.00000000
  -V(xc)+E(xc)   XCENC  =       820.56357998
  PAW double counting   =     27748.60561467   -28670.73988020
  entropy T*S    EENTRO =         0.00000000
  eigenvalues    EBANDS =     -2754.73886034
  atomic energy  EATOM  =     28505.01627691
  ---------------------------------------------------
  free energy    TOTEN  =       -81.72296875 eV

  energy without entropy =      -81.72296875  energy(sigma->0) =      -81.72296875


--------------------------------------------------------------------------------------------------------




--------------------------------------- Iteration      1(  12)  ---------------------------------------


    POTLOK:  cpu time    0.0824: real time    0.0829
    SETDIJ:  cpu time    0.5932: real time    0.5950
    TRIAL :  cpu time    3.6870: real time    3.7099
 BZINTS: Fermi energy:  4.679505;172.000000 electrons
         Band energy:***********;  BLOECHL correction:  0.000000
 BZINTS: Fermi energy:  4.679506;172.000000 electrons
         Band energy:***********;  BLOECHL correction:  0.000000
    CORREC:  cpu time    3.4389: real time    3.4560
    CHARGE:  cpu time    0.9445: real time    0.9492
    --------------------------------------------
      LOOP:  cpu time    8.7618: real time    8.8105

 eigenvalue-minimisations  :     0
 total energy-change (2. order) :-0.2198285E-06  (-0.7858725E-08)
 number of electron     172.0000122 magnetization       0.0000000      0.0000000      0.0000000
 augmentation part       70.5809480 magnetization      -0.0000007      0.0000004      0.0006235

 Free energy of the ion-electron system (eV)
  ---------------------------------------------------
  alpha Z        PSCENC =       572.78129289
  Ewald energy   TEWEN  =    -15494.05455125
  -Hartree energ DENC   =    -10809.15643977
  -exchange      EXHF   =         0.00000000
  -V(xc)+E(xc)   XCENC  =       820.56357949
  PAW double counting   =     27748.60557948   -28670.73984551
  entropy T*S    EENTRO =         0.00000000
  eigenvalues    EBANDS =     -2754.73886123
  atomic energy  EATOM  =     28505.01627691
  ---------------------------------------------------
  free energy    TOTEN  =       -81.72296897 eV

  energy without entropy =      -81.72296897  energy(sigma->0) =      -81.72296897


--------------------------------------------------------------------------------------------------------




--------------------------------------- Iteration      1(  13)  ---------------------------------------


    POTLOK:  cpu time    0.0822: real time    0.0827
    SETDIJ:  cpu time    0.5940: real time    0.5960
    TRIAL :  cpu time    3.6427: real time    3.6654
 BZINTS: Fermi energy:  4.679505;172.000000 electrons
         Band energy:***********;  BLOECHL correction:  0.000000
 BZINTS: Fermi energy:  4.679506;172.000000 electrons
         Band energy:***********;  BLOECHL correction:  0.000000
    CORREC:  cpu time    3.3964: real time    3.4131
    CHARGE:  cpu time    0.9461: real time    0.9509
    --------------------------------------------
      LOOP:  cpu time    8.6768: real time    8.7253

 eigenvalue-minimisations  :     0
 total energy-change (2. order) :-0.3326932E-06  (-0.5224935E-08)
 number of electron     172.0000122 magnetization       0.0000000      0.0000000      0.0000000
 augmentation part       70.5809480 magnetization      -0.0000007      0.0000004      0.0006235

 Free energy of the ion-electron system (eV)
  ---------------------------------------------------
  alpha Z        PSCENC =       572.78129289
  Ewald energy   TEWEN  =    -15494.05455125
  -Hartree energ DENC   =    -10809.15643775
  -exchange      EXHF   =         0.00000000
  -V(xc)+E(xc)   XCENC  =       820.56357876
  PAW double counting   =     27748.60553565   -28670.73980229
  entropy T*S    EENTRO =         0.00000000
  eigenvalues    EBANDS =     -2754.73886223
  atomic energy  EATOM  =     28505.01627691
  ---------------------------------------------------
  free energy    TOTEN  =       -81.72296930 eV

  energy without entropy =      -81.72296930  energy(sigma->0) =      -81.72296930


--------------------------------------------------------------------------------------------------------




--------------------------------------- Iteration      1(  14)  ---------------------------------------


    POTLOK:  cpu time    0.0818: real time    0.0822
    SETDIJ:  cpu time    0.5935: real time    0.5954
    TRIAL :  cpu time    3.6804: real time    3.7030
 BZINTS: Fermi energy:  4.679505;172.000000 electrons
         Band energy:***********;  BLOECHL correction:  0.000000
 BZINTS: Fermi energy:  4.679505;172.000000 electrons
         Band energy:***********;  BLOECHL correction:  0.000000
    CORREC:  cpu time    3.3921: real time    3.4091
    CHARGE:  cpu time    0.9815: real time    0.9865
    --------------------------------------------
      LOOP:  cpu time    8.7438: real time    8.7925

 eigenvalue-minimisations  :     0
 total energy-change (2. order) :-0.2842062E-06  (-0.2437473E-08)
 number of electron     172.0000122 magnetization       0.0000000      0.0000000      0.0000000
 augmentation part       70.5809480 magnetization      -0.0000006      0.0000004      0.0006235

 Free energy of the ion-electron system (eV)
  ---------------------------------------------------
  alpha Z        PSCENC =       572.78129289
  Ewald energy   TEWEN  =    -15494.05455125
  -Hartree energ DENC   =    -10809.15643631
  -exchange      EXHF   =         0.00000000
  -V(xc)+E(xc)   XCENC  =       820.56357813
  PAW double counting   =     27748.60550408   -28670.73977117
  entropy T*S    EENTRO =         0.00000000
  eigenvalues    EBANDS =     -2754.73886288
  atomic energy  EATOM  =     28505.01627691
  ---------------------------------------------------
  free energy    TOTEN  =       -81.72296959 eV

  energy without entropy =      -81.72296959  energy(sigma->0) =      -81.72296959


--------------------------------------------------------------------------------------------------------




--------------------------------------- Iteration      1(  15)  ---------------------------------------


    POTLOK:  cpu time    0.0819: real time    0.0823
    SETDIJ:  cpu time    0.5933: real time    0.5952
    TRIAL :  cpu time    3.6748: real time    3.6978
 BZINTS: Fermi energy:  4.679505;172.000000 electrons
         Band energy:***********;  BLOECHL correction:  0.000000
 BZINTS: Fermi energy:  4.679505;172.000000 electrons
         Band energy:***********;  BLOECHL correction:  0.000000
    CORREC:  cpu time    3.4092: real time    3.4259
    CHARGE:  cpu time    0.9413: real time    0.9460
    --------------------------------------------
      LOOP:  cpu time    8.7146: real time    8.7634

 eigenvalue-minimisations  :     0
 total energy-change (2. order) :-0.9276482E-07  (-0.2154998E-08)
 number of electron     172.0000122 magnetization       0.0000000      0.0000000      0.0000000
 augmentation part       70.5809480 magnetization      -0.0000006      0.0000004      0.0006235

 Free energy of the ion-electron system (eV)
  ---------------------------------------------------
  alpha Z        PSCENC =       572.78129289
  Ewald energy   TEWEN  =    -15494.05455125
  -Hartree energ DENC   =    -10809.15643570
  -exchange      EXHF   =         0.00000000
  -V(xc)+E(xc)   XCENC  =       820.56357793
  PAW double counting   =     27748.60549026   -28670.73975754
  entropy T*S    EENTRO =         0.00000000
  eigenvalues    EBANDS =     -2754.73886319
  atomic energy  EATOM  =     28505.01627691
  ---------------------------------------------------
  free energy    TOTEN  =       -81.72296968 eV

  energy without entropy =      -81.72296968  energy(sigma->0) =      -81.72296968


--------------------------------------------------------------------------------------------------------




--------------------------------------- Iteration      1(  16)  ---------------------------------------


    POTLOK:  cpu time    0.0818: real time    0.0822
    SETDIJ:  cpu time    0.5930: real time    0.5950
    TRIAL :  cpu time    3.6773: real time    3.6997
 BZINTS: Fermi energy:  4.679505;172.000000 electrons
         Band energy:***********;  BLOECHL correction:  0.000000
 BZINTS: Fermi energy:  4.679505;172.000000 electrons
         Band energy:***********;  BLOECHL correction:  0.000000
    CORREC:  cpu time    3.3968: real time    3.4132
    CHARGE:  cpu time    0.9694: real time    0.9743
    --------------------------------------------
      LOOP:  cpu time    8.7371: real time    8.7837

 eigenvalue-minimisations  :     0
 total energy-change (2. order) :-0.6723712E-07  (-0.3735612E-08)
 number of electron     172.0000122 magnetization       0.0000000      0.0000000      0.0000000
 augmentation part       70.5809480 magnetization      -0.0000006      0.0000004      0.0006235

 Free energy of the ion-electron system (eV)
  ---------------------------------------------------
  alpha Z        PSCENC =       572.78129289
  Ewald energy   TEWEN  =    -15494.05455125
  -Hartree energ DENC   =    -10809.15643514
  -exchange      EXHF   =         0.00000000
  -V(xc)+E(xc)   XCENC  =       820.56357779
  PAW double counting   =     27748.60547743   -28670.73974489
  entropy T*S    EENTRO =         0.00000000
  eigenvalues    EBANDS =     -2754.73886349
  atomic energy  EATOM  =     28505.01627691
  ---------------------------------------------------
  free energy    TOTEN  =       -81.72296975 eV

  energy without entropy =      -81.72296975  energy(sigma->0) =      -81.72296975


--------------------------------------------------------------------------------------------------------




--------------------------------------- Iteration      1(  17)  ---------------------------------------


    POTLOK:  cpu time    0.0817: real time    0.0822
    SETDIJ:  cpu time    0.5930: real time    0.5949
    TRIAL :  cpu time    3.6781: real time    3.7009
 BZINTS: Fermi energy:  4.679505;172.000000 electrons
         Band energy:***********;  BLOECHL correction:  0.000000
 BZINTS: Fermi energy:  4.679505;172.000000 electrons
         Band energy:***********;  BLOECHL correction:  0.000000
    CORREC:  cpu time    3.4108: real time    3.4278
    CHARGE:  cpu time    0.9456: real time    0.9503
    --------------------------------------------
      LOOP:  cpu time    8.7246: real time    8.7726

 eigenvalue-minimisations  :     0
 total energy-change (2. order) :-0.1132103E-06  (-0.2933804E-07)
 number of electron     172.0000122 magnetization       0.0000000      0.0000000      0.0000000
 augmentation part       70.5809480 magnetization      -0.0000005      0.0000003      0.0006235

 Free energy of the ion-electron system (eV)
  ---------------------------------------------------
  alpha Z        PSCENC =       572.78129289
  Ewald energy   TEWEN  =    -15494.05455125
  -Hartree energ DENC   =    -10809.15643398
  -exchange      EXHF   =         0.00000000
  -V(xc)+E(xc)   XCENC  =       820.56357754
  PAW double counting   =     27748.60545085   -28670.73971870
  entropy T*S    EENTRO =         0.00000000
  eigenvalues    EBANDS =     -2754.73886413
  atomic energy  EATOM  =     28505.01627691
  ---------------------------------------------------
  free energy    TOTEN  =       -81.72296986 eV

  energy without entropy =      -81.72296986  energy(sigma->0) =      -81.72296986


--------------------------------------------------------------------------------------------------------




--------------------------------------- Iteration      1(  18)  ---------------------------------------


    POTLOK:  cpu time    0.0821: real time    0.0826
    SETDIJ:  cpu time    0.5931: real time    0.5951
    TRIAL :  cpu time    3.6478: real time    3.6703
 BZINTS: Fermi energy:  4.679504;172.000000 electrons
         Band energy:***********;  BLOECHL correction:  0.000000
 BZINTS: Fermi energy:  4.679505;172.000000 electrons
         Band energy:***********;  BLOECHL correction:  0.000000
    CORREC:  cpu time    3.3916: real time    3.4081
    CHARGE:  cpu time    0.9447: real time    0.9496
    --------------------------------------------
      LOOP:  cpu time    8.6743: real time    8.7225

 eigenvalue-minimisations  :     0
 total energy-change (2. order) :-0.2501110E-07  (-0.4587131E-09)
 number of electron     172.0000122 magnetization       0.0000000      0.0000000      0.0000000
 augmentation part       70.5809480 magnetization      -0.0000005      0.0000003      0.0006235

 Free energy of the ion-electron system (eV)
  ---------------------------------------------------
  alpha Z        PSCENC =       572.78129289
  Ewald energy   TEWEN  =    -15494.05455125
  -Hartree energ DENC   =    -10809.15642399
  -exchange      EXHF   =         0.00000000
  -V(xc)+E(xc)   XCENC  =       820.56357732
  PAW double counting   =     27748.60522274   -28670.73949392
  entropy T*S    EENTRO =         0.00000000
  eigenvalues    EBANDS =     -2754.73887058
  atomic energy  EATOM  =     28505.01627691
  ---------------------------------------------------
  free energy    TOTEN  =       -81.72296989 eV

  energy without entropy =      -81.72296989  energy(sigma->0) =      -81.72296989


--------------------------------------------------------------------------------------------------------




--------------------------------------- Iteration      1(  19)  ---------------------------------------


    POTLOK:  cpu time    0.0818: real time    0.0822
    SETDIJ:  cpu time    0.5934: real time    0.5953
    TRIAL :  cpu time    3.6455: real time    3.6676
 BZINTS: Fermi energy:  4.679504;172.000000 electrons
         Band energy:***********;  BLOECHL correction:  0.000000
 BZINTS: Fermi energy:  4.679505;172.000000 electrons
         Band energy:***********;  BLOECHL correction:  0.000000
    CORREC:  cpu time    3.4140: real time    3.4309
    CHARGE:  cpu time    0.9482: real time    0.9529
    --------------------------------------------
      LOOP:  cpu time    8.6968: real time    8.7456

 eigenvalue-minimisations  :     0
 total energy-change (2. order) :-0.1752051E-07  (-0.1651518E-08)
 number of electron     172.0000122 magnetization       0.0000000      0.0000000      0.0000000
 augmentation part       70.5809480 magnetization      -0.0000005      0.0000003      0.0006235

 Free energy of the ion-electron system (eV)
  ---------------------------------------------------
  alpha Z        PSCENC =       572.78129289
  Ewald energy   TEWEN  =    -15494.05455125
  -Hartree energ DENC   =    -10809.15642357
  -exchange      EXHF   =         0.00000000
  -V(xc)+E(xc)   XCENC  =       820.56357727
  PAW double counting   =     27748.60521400   -28670.73948529
  entropy T*S    EENTRO =         0.00000000
  eigenvalues    EBANDS =     -2754.73887087
  atomic energy  EATOM  =     28505.01627691
  ---------------------------------------------------
  free energy    TOTEN  =       -81.72296990 eV

  energy without entropy =      -81.72296990  energy(sigma->0) =      -81.72296990


--------------------------------------------------------------------------------------------------------




--------------------------------------- Iteration      1(  20)  ---------------------------------------


    POTLOK:  cpu time    0.0818: real time    0.0822
    SETDIJ:  cpu time    0.5943: real time    0.5962
    TRIAL :  cpu time    3.6541: real time    3.6765
 BZINTS: Fermi energy:  4.679505;172.000000 electrons
         Band energy:***********;  BLOECHL correction:  0.000000
 BZINTS: Fermi energy:  4.679505;172.000000 electrons
         Band energy:***********;  BLOECHL correction:  0.000000
    CORREC:  cpu time    3.4028: real time    3.4201
    CHARGE:  cpu time    0.9446: real time    0.9494
    --------------------------------------------
      LOOP:  cpu time    8.6933: real time    8.7406

 eigenvalue-minimisations  :     0
 total energy-change (2. order) :-0.4318645E-07  (-0.1341317E-08)
 number of electron     172.0000122 magnetization       0.0000000      0.0000000      0.0000000
 augmentation part       70.5809480 magnetization      -0.0000005      0.0000003      0.0006235

 Free energy of the ion-electron system (eV)
  ---------------------------------------------------
[...]
  0.000  -0.000   0.000  -0.000  -0.000  -0.000   0.000  -0.000  -0.000   0.000  -0.000  -0.000   0.000  -0.000  -0.000   0.000
 pseudopotential strength for first ion, spin component:           3
 -0.000  -0.000  -0.000  -0.000  -0.000  -0.000   0.000  -0.000   0.000   0.000  -0.000  -0.000   0.000  -0.000   0.000   0.000
 -0.000  -0.000  -0.000  -0.000  -0.000  -0.000   0.000  -0.000   0.000   0.000  -0.000  -0.000   0.000  -0.000   0.000   0.000
 -0.000  -0.000  -0.000  -0.000  -0.000   0.000   0.000  -0.000  -0.000   0.000  -0.000   0.000   0.000  -0.000  -0.000   0.000
  0.000  -0.000   0.000  -0.000   0.000  -0.000  -0.000   0.000   0.000   0.000   0.000  -0.000  -0.000   0.000   0.000   0.000
  0.000   0.000   0.000   0.000  -0.000   0.000   0.000   0.000  -0.000  -0.000  -0.000   0.000   0.000   0.000  -0.000  -0.000
 -0.000  -0.000  -0.000  -0.000  -0.000   0.000   0.000  -0.000  -0.000   0.000  -0.000   0.000   0.000  -0.000  -0.000   0.000
  0.000  -0.000   0.000  -0.000   0.000  -0.000  -0.000   0.000   0.000   0.000   0.000  -0.000  -0.000   0.000   0.000   0.000
  0.000   0.000   0.000   0.000  -0.000   0.000   0.000   0.000  -0.000  -0.000  -0.000   0.000   0.000   0.000  -0.000  -0.000
 pseudopotential strength for first ion, spin component:           4
 39.580   0.000  45.456   0.000   0.000   0.000  -0.001   0.000  -0.004   0.000   0.000   0.000  -0.001   0.000  -0.005   0.000
 45.456   0.000  52.206   0.000   0.000   0.000  -0.001   0.000  -0.004   0.000   0.000   0.000  -0.001   0.000  -0.006   0.000
  0.000   0.000   0.000   0.000   8.212   0.000   0.002   0.000  -0.001   0.000  11.131   0.000   0.002   0.000  -0.001   0.000
 -0.001   0.000  -0.001   0.000   0.002   0.000   8.214   0.000  -0.000   0.000   0.002   0.000  11.134   0.000  -0.001   0.000
 -0.004   0.000  -0.004   0.000  -0.001   0.000  -0.000   0.000   8.215   0.000  -0.001   0.000  -0.001   0.000  11.134   0.000
  0.000   0.000   0.000   0.000  11.131   0.000   0.002   0.000  -0.001   0.000  15.107   0.000   0.003   0.000  -0.001   0.000
 -0.001   0.000  -0.001   0.000   0.002   0.000  11.134   0.000  -0.001   0.000   0.003   0.000  15.111   0.000  -0.001   0.000
 -0.005   0.000  -0.006   0.000  -0.001   0.000  -0.001   0.000  11.134   0.000  -0.001   0.000  -0.001   0.000  15.111   0.000
 total augmentation occupancy for first ion, spin component:           1
 10.402  -6.407   0.000   0.000  -0.618   0.000   0.000   0.177
 -6.407   4.659   0.000   0.000   0.511   0.000   0.000  -0.115
  0.000   0.000   3.386   0.080   0.000  -0.897  -0.043   0.000
  0.000   0.000   0.080   3.594   0.000  -0.043  -1.012   0.000
 -0.618   0.511   0.000   0.000   3.614   0.000   0.000  -1.024
  0.000   0.000  -0.897  -0.043   0.000   0.292   0.015   0.000
  0.000   0.000  -0.043  -1.012   0.000   0.015   0.335   0.000
  0.177  -0.115   0.000   0.000  -1.024   0.000   0.000   0.340
 total augmentation occupancy for first ion, spin component:           2
  0.000  -0.000   0.000   0.000   0.000  -0.000   0.000  -0.000
 -0.000   0.000  -0.000   0.000   0.000   0.000   0.000   0.000
  0.000   0.000  -0.000   0.000   0.000   0.000  -0.000  -0.000
  0.000   0.000   0.000  -0.000   0.000  -0.000   0.000   0.000
  0.000   0.000   0.000  -0.000   0.000   0.000   0.000  -0.000
  0.000   0.000   0.000  -0.000   0.000  -0.000   0.000   0.000
  0.000   0.000  -0.000   0.000   0.000   0.000  -0.000   0.000
 -0.000   0.000   0.000   0.000  -0.000   0.000   0.000   0.000
 total augmentation occupancy for first ion, spin component:           3
  0.000   0.000  -0.000  -0.000   0.000   0.000   0.000   0.000
  0.000   0.000   0.000   0.000  -0.000  -0.000  -0.000   0.000
 -0.000   0.000  -0.000   0.000   0.000  -0.000   0.000  -0.000
 -0.000   0.000   0.000   0.000  -0.000   0.000   0.000   0.000
  0.000  -0.000   0.000  -0.000   0.000  -0.000   0.000  -0.000
  0.000  -0.000   0.000  -0.000  -0.000   0.000   0.000   0.000
  0.000  -0.000   0.000   0.000   0.000   0.000   0.000  -0.000
 -0.000   0.000  -0.000   0.000  -0.000   0.000  -0.000   0.000
 total augmentation occupancy for first ion, spin component:           4
 -0.000   0.000   0.136   0.108  -0.000   0.068   0.069  -0.000
  0.000   0.000  -0.112  -0.086   0.000  -0.078  -0.077   0.000
  0.136  -0.112   0.000   0.000   0.003   0.000   0.000   0.000
  0.108  -0.086   0.000   0.000   0.006   0.000  -0.000  -0.004
  0.000   0.000   0.003   0.006  -0.000   0.000  -0.004   0.000
  0.068  -0.078   0.000   0.000   0.000   0.000   0.000   0.013
  0.069  -0.077   0.000  -0.000  -0.004   0.000  -0.000   0.014
 -0.000   0.000   0.000  -0.004   0.000   0.013   0.014   0.000


------------------------ aborting loop because EDIFF is reached ----------------------------------------


 


 total charge     
 
# of ion       s       p       d       tot
------------------------------------------
    1        1.314   2.394   0.000   3.708
    2        1.314   2.394   0.000   3.708
    3        1.314   2.398   0.000   3.712
    4        1.314   2.398   0.000   3.712
    5        1.314   2.394   0.000   3.708
    6        1.314   2.394   0.000   3.708
    7        1.314   2.398   0.000   3.712
    8        1.314   2.398   0.000   3.712
    9        0.250   6.187   8.921  15.358
   10        0.250   6.187   8.921  15.358
   11        0.250   6.187   8.921  15.358
   12        0.250   6.187   8.921  15.358
   13        0.341   6.331   5.797  12.469
   14        0.341   6.331   5.797  12.469
   15        0.341   6.331   5.797  12.469
   16        0.341   6.331   5.797  12.469
--------------------------------------------------
tot         12.877  69.239  58.871 140.987
 


 magnetization (x)
 
# of ion       s       p       d       tot
------------------------------------------
    1        0.000   0.000   0.000   0.000
    2       -0.000  -0.000   0.000  -0.000
    3        0.000  -0.000   0.000  -0.000
    4        0.000  -0.000   0.000  -0.000
    5       -0.000  -0.000   0.000  -0.000
    6        0.000   0.000   0.000   0.000
    7        0.000  -0.000   0.000  -0.000
    8        0.000  -0.000   0.000  -0.000
    9        0.000  -0.000   0.000   0.000
   10       -0.000   0.000  -0.000  -0.000
   11        0.000  -0.000   0.000   0.000
   12       -0.000   0.000  -0.000  -0.000
   13       -0.000  -0.000   0.000   0.000
   14        0.000   0.000   0.000   0.000
   15       -0.000  -0.000   0.000   0.000
   16        0.000   0.000   0.000   0.000
--------------------------------------------------
tot          0.000   0.000   0.000   0.000
 


 magnetization (y)
 
# of ion       s       p       d       tot
------------------------------------------
    1       -0.000   0.000   0.000  -0.000
    2       -0.000   0.000   0.000   0.000
    3        0.000  -0.000   0.000  -0.000
    4       -0.000   0.000   0.000   0.000
    5       -0.000   0.000   0.000   0.000
    6       -0.000   0.000   0.000  -0.000
    7        0.000  -0.000   0.000  -0.000
    8       -0.000   0.000   0.000   0.000
    9        0.000   0.000  -0.000  -0.000
   10       -0.000   0.000  -0.000  -0.000
   11        0.000   0.000  -0.000  -0.000
   12       -0.000   0.000  -0.000  -0.000
   13       -0.000   0.000  -0.000  -0.000
   14        0.000  -0.000  -0.000  -0.000
   15       -0.000   0.000  -0.000  -0.000
   16        0.000  -0.000  -0.000  -0.000
--------------------------------------------------
tot         -0.000  -0.000  -0.000  -0.000
 


 magnetization (z)
 
# of ion       s       p       d       tot
------------------------------------------
    1        0.000  -0.003   0.000  -0.003
    2        0.000  -0.003   0.000  -0.003
    3       -0.000   0.004   0.000   0.003
    4       -0.000   0.002   0.000   0.002
    5        0.000  -0.003   0.000  -0.003
    6        0.000  -0.003   0.000  -0.003
    7       -0.000   0.004   0.000   0.003
    8       -0.000   0.002   0.000   0.002
    9        0.000  -0.001   0.002   0.002
   10       -0.000   0.001  -0.002  -0.002
   11        0.000  -0.001   0.002   0.002
   12       -0.000   0.001  -0.002  -0.002
   13        0.022   0.051   3.706   3.779
   14       -0.022  -0.051  -3.706  -3.778
   15        0.022   0.051   3.706   3.779
   16       -0.022  -0.051  -3.706  -3.778
--------------------------------------------------
tot          0.000  -0.000   0.001   0.000
 
    FORLOC:  cpu time    0.0020: real time    0.0020
    FORNL :  cpu time    1.1644: real time    1.1703
    STRESS:  cpu time    1.1034: real time    1.1086
    FORCOR:  cpu time    0.0718: real time    0.0721
    OFIELD:  cpu time    0.0004: real time    0.0004

  FORCE on cell =-STRESS in cart. coord.  units (eV):
  Direction    XX          YY          ZZ          XY          YZ          ZX
  --------------------------------------------------------------------------------------
  Alpha Z   572.78129   572.78129   572.78129
  Ewald   -4974.09341 -5535.80507 -4984.19305    -0.00000     0.00000     0.00000
  Hartree  3691.88185  3408.70906  3708.56551    -0.00000    -0.00000    -0.00000
  E(xc)   -1049.54748 -1049.91516 -1049.55935    -0.00000    -0.00000    -0.00000
  Local   -1578.22620  -736.56927 -1583.29771    -0.00000    -0.00000    -0.00000
  n-local   118.97776   113.10813   119.14286    -0.29780    -0.01459    -0.00833
  augment  1181.94257  1178.42249  1180.44947    -0.00000     0.00000    -0.00000
  Kinetic  2028.83406  2049.26813  2029.40129    -0.91588     0.00349    -0.00900
  Fock        0.00000     0.00000     0.00000     0.00000     0.00000     0.00000
  -------------------------------------------------------------------------------------
  Total      -7.44955    -0.00039    -6.70969     0.00000     0.00000     0.00000
  in kB     -40.34555    -0.00210   -36.33863     0.00000     0.00000     0.00000
  external pressure =      -25.56 kB  Pullay stress =        0.00 kB


 VOLUME and BASIS-vectors are now :
 -----------------------------------------------------------------------------
  energy-cutoff  :      700.00
  volume of cell :      295.83
      direct lattice vectors                 reciprocal lattice vectors
     5.521724938  0.000000000  0.000000000     0.181102828  0.000000000  0.000000000
     0.000000000  4.902295733  0.000000000     0.000000000  0.203986062  0.000000000
     0.000000000  0.000000000 10.928751482     0.000000000  0.000000000  0.091501760

  length of vectors
     5.521724938  4.902295733 10.928751482     0.181102828  0.203986062  0.091501760


 FORCES acting on ions:
    Electron-Ion                     Ewald-Force                    Non-Local-Force
 -----------------------------------------------------------------------------------------------
   0.444E+02 0.332E-12 0.838E-13   -.451E+02 0.126E-10 -.642E-11   0.748E+00 -.217E-18 0.304E-17
   -.444E+02 -.746E-12 0.404E-13   0.451E+02 -.129E-10 -.651E-11   -.748E+00 -.542E-18 -.867E-18
   0.288E-12 -.353E+02 0.252E-12   0.680E-12 0.358E+02 0.284E-13   0.000E+00 -.540E+00 -.325E-18
   0.268E-12 0.353E+02 -.819E-12   -.987E-12 -.358E+02 0.142E-13   0.000E+00 0.540E+00 0.000E+00
   -.444E+02 0.309E-12 0.381E-13   0.451E+02 0.126E-10 0.638E-11   -.748E+00 -.325E-18 0.867E-18
   0.444E+02 -.857E-12 0.881E-12   -.451E+02 -.130E-10 0.654E-11   0.748E+00 0.217E-18 0.434E-18
   0.206E-12 -.353E+02 0.674E-12   -.108E-11 0.358E+02 -.284E-13   0.000E+00 -.540E+00 -.325E-18
   0.124E-12 0.353E+02 -.234E-12   0.597E-12 -.358E+02 -.853E-13   0.000E+00 0.540E+00 0.000E+00
   -.111E-11 -.191E-12 0.504E+01   0.667E-05 -.201E-04 -.510E+01   0.000E+00 0.000E+00 0.649E-01
   0.484E-12 0.226E-12 -.504E+01   -.667E-05 -.201E-04 0.510E+01   0.000E+00 -.217E-18 -.649E-01
   0.515E-12 0.153E-10 0.504E+01   -.667E-05 0.201E-04 -.510E+01   0.000E+00 0.000E+00 0.649E-01
   -.112E-11 0.400E-12 -.504E+01   0.667E-05 0.201E-04 0.510E+01   0.000E+00 -.217E-18 -.649E-01
   -.896E-12 -.522E-13 -.116E+02   -.489E-05 0.167E-04 0.116E+02   0.000E+00 0.000E+00 -.157E-01
   -.185E-12 0.104E-12 0.116E+02   0.489E-05 0.167E-04 -.116E+02   -.867E-18 0.000E+00 0.157E-01
   -.154E-12 -.110E-11 -.116E+02   0.489E-05 -.167E-04 0.116E+02   0.000E+00 0.000E+00 -.157E-01
   -.824E-12 0.117E-11 0.116E+02   -.489E-05 -.167E-04 -.116E+02   -.867E-18 0.000E+00 0.157E-01
 -----------------------------------------------------------------------------------------------
   0.508E-11 0.319E-10 0.560E-11   0.517E-13 0.130E-12 -.888E-13   -.173E-17 0.111E-15 -.173E-16
 
 
 POSITION                                       TOTAL-FORCE (eV/Angst)
 -----------------------------------------------------------------------------------
      1.39076      1.22557      1.36609        -0.000004      0.000000      0.000000
      4.13096      3.67672      1.36609         0.000004      0.000000      0.000000
      1.38043      3.66711      9.56266         0.000000     -0.000006      0.000000
      4.14129      1.23519      9.56266         0.000000      0.000006     -0.000000
      1.37010      1.22557      6.83047         0.000004      0.000000      0.000000
      4.15162      3.67672      6.83047        -0.000004      0.000000      0.000000
      4.14129      1.21596      4.09828         0.000000     -0.000006      0.000000
      1.38043      3.68634      4.09828         0.000000      0.000006     -0.000000
      0.00000      0.00000      5.45936         0.000000      0.000000      0.000006
      2.76086      0.00000      2.73720         0.000000      0.000000     -0.000006
      2.76086      2.45115     10.92374         0.000000      0.000000      0.000006
      0.00000      2.45115      8.20158         0.000000      0.000000     -0.000006
      0.00000      0.00000     10.92595         0.000000      0.000000     -0.000005
      2.76086      0.00000      8.19937         0.000000      0.000000      0.000005
      2.76086      2.45115      5.46157         0.000000      0.000000     -0.000005
      0.00000      2.45115      2.73499         0.000000      0.000000      0.000005
 -----------------------------------------------------------------------------------
    total drift:                                0.000000      0.000000      0.000000


--------------------------------------------------------------------------------------------------------



  FREE ENERGIE OF THE ION-ELECTRON SYSTEM (eV)
  ---------------------------------------------------
  free  energy   TOTEN  =       -81.72297006 eV

  energy  without entropy=      -81.72297006  energy(sigma->0) =      -81.72297006
 


--------------------------------------------------------------------------------------------------------


    POTLOK:  cpu time    0.6646: real time    0.6671


--------------------------------------------------------------------------------------------------------


 writing wavefunctions
     LOOP+:  cpu time  249.4430: real time  373.8997
    4ORBIT:  cpu time    0.0000: real time    0.0000
 


 total charge     
 
# of ion       s       p       d       tot
------------------------------------------
    1        1.314   2.394   0.000   3.708
    2        1.314   2.394   0.000   3.708
    3        1.314   2.398   0.000   3.712
    4        1.314   2.398   0.000   3.712
    5        1.314   2.394   0.000   3.708
    6        1.314   2.394   0.000   3.708
    7        1.314   2.398   0.000   3.712
    8        1.314   2.398   0.000   3.712
    9        0.250   6.187   8.921  15.358
   10        0.250   6.187   8.921  15.358
   11        0.250   6.187   8.921  15.358
   12        0.250   6.187   8.921  15.358
   13        0.341   6.331   5.797  12.469
   14        0.341   6.331   5.797  12.469
   15        0.341   6.331   5.797  12.469
   16        0.341   6.331   5.797  12.469
--------------------------------------------------
tot         12.877  69.239  58.871 140.987
 


 magnetization (x)
 
# of ion       s       p       d       tot
------------------------------------------
    1        0.000   0.000   0.000   0.000
    2       -0.000  -0.000   0.000  -0.000
    3        0.000  -0.000   0.000  -0.000
    4        0.000  -0.000   0.000  -0.000
    5       -0.000  -0.000   0.000  -0.000
    6        0.000   0.000   0.000   0.000
    7        0.000  -0.000   0.000  -0.000
    8        0.000  -0.000   0.000  -0.000
    9        0.000  -0.000   0.000   0.000
   10       -0.000   0.000  -0.000  -0.000
   11        0.000  -0.000   0.000   0.000
   12       -0.000   0.000  -0.000  -0.000
   13       -0.000  -0.000   0.000   0.000
   14        0.000   0.000   0.000   0.000
   15       -0.000  -0.000   0.000   0.000
   16        0.000   0.000   0.000   0.000
--------------------------------------------------
tot          0.000   0.000   0.000   0.000
 


 magnetization (y)
 
# of ion       s       p       d       tot
------------------------------------------
    1       -0.000   0.000   0.000  -0.000
    2       -0.000   0.000   0.000   0.000
    3        0.000  -0.000   0.000  -0.000
    4       -0.000   0.000   0.000   0.000
    5       -0.000   0.000   0.000   0.000
    6       -0.000   0.000   0.000  -0.000
    7        0.000  -0.000   0.000  -0.000
    8       -0.000   0.000   0.000   0.000
    9        0.000   0.000  -0.000  -0.000
   10       -0.000   0.000  -0.000  -0.000
   11        0.000   0.000  -0.000  -0.000
   12       -0.000   0.000  -0.000  -0.000
   13       -0.000   0.000  -0.000  -0.000
   14        0.000  -0.000  -0.000  -0.000
   15       -0.000   0.000  -0.000  -0.000
   16        0.000  -0.000  -0.000  -0.000
--------------------------------------------------
tot         -0.000  -0.000  -0.000  -0.000
 


 magnetization (z)
 
# of ion       s       p       d       tot
------------------------------------------
    1        0.000  -0.003   0.000  -0.003
    2        0.000  -0.003   0.000  -0.003
    3       -0.000   0.004   0.000   0.003
    4       -0.000   0.002   0.000   0.002
    5        0.000  -0.003   0.000  -0.003
    6        0.000  -0.003   0.000  -0.003
    7       -0.000   0.004   0.000   0.003
    8       -0.000   0.002   0.000   0.002
    9        0.000  -0.001   0.002   0.002
   10       -0.000   0.001  -0.002  -0.002
   11        0.000  -0.001   0.002   0.002
   12       -0.000   0.001  -0.002  -0.002
   13        0.022   0.051   3.706   3.779
   14       -0.022  -0.051  -3.706  -3.778
   15        0.022   0.051   3.706   3.779
   16       -0.022  -0.051  -3.706  -3.778
--------------------------------------------------
tot          0.000  -0.000   0.001   0.000
 
 BZINTS: Fermi energy:  4.679511;172.000000 electrons
         Band energy:***********;  BLOECHL correction:  0.000000
 BZINTS: Fermi energy:  4.679511;172.000000 electrons
         Band energy:***********;  BLOECHL correction:  0.000000
 BZINTS: Fermi energy:  4.679511;172.000000 electrons
         Band energy:***********;  BLOECHL correction:  0.000000
 BZINTS: Fermi energy:  4.679511;172.000000 electrons
         Band energy:***********;  BLOECHL correction:  0.000000

 total amount of memory used by VASP MPI-rank0    80077. kBytes
=======================================================================

   base      :      30000. kBytes
   nonl-proj :       6196. kBytes
   fftplans  :       1279. kBytes
   grid      :       5160. kBytes
   one-center:         62. kBytes
   wavefun   :      37380. kBytes
 
  
  
 General timing and accounting informations for this job:
 ========================================================
  
                  Total CPU time used (sec):      278.482
                            User time (sec):      268.714
                          System time (sec):        9.768
                         Elapsed time (sec):      405.302
  
                   Maximum memory used (kb):      503324.
                   Average memory used (kb):           0.
  
                          Minor page faults:       241272
                          Major page faults:         2985
                 Voluntary context switches:         6552
