       N       E                     dE             d eps       ncg     rms          rms(c)
DAV:   1     0.619772976592E+04    0.61977E+04   -0.50357E+05 12288   0.194E+03
DAV:   2    -0.104922996969E+03   -0.63027E+04   -0.61718E+04 13824   0.440E+02
DAV:   3    -0.371989624678E+03   -0.26707E+03   -0.26612E+03 16896   0.990E+01
DAV:   4    -0.375754115729E+03   -0.37645E+01   -0.37643E+01 15104   0.120E+01
DAV:   5    -0.375858920343E+03   -0.10480E+00   -0.10480E+00 15872   0.200E+00    0.751E+01
DAV:   6    -0.334399444187E+03    0.41459E+02   -0.59182E+02 12288   0.815E+01    0.100E+02
DAV:   7    -0.329097113351E+03    0.53023E+01   -0.11460E+02 13312   0.275E+01    0.437E+01
DAV:   8    -0.329159059387E+03   -0.61946E-01   -0.37161E+01 14848   0.211E+01    0.327E+01
DAV:   9    -0.330905048319E+03   -0.17460E+01   -0.10371E+02 15360   0.244E+01    0.235E+01
DAV:  10    -0.327241902669E+03    0.36631E+01   -0.21344E+01 16384   0.156E+01    0.275E+00
DAV:  11    -0.327362429613E+03   -0.12053E+00   -0.12487E+00 17408   0.187E+00    0.354E+00
DAV:  12    -0.327352903469E+03    0.95261E-02   -0.48982E-01 15616   0.179E+00    0.132E+00
DAV:  13    -0.327360071053E+03   -0.71676E-02   -0.48688E-02 16128   0.389E-01    0.900E-01
DAV:  14    -0.327371944307E+03   -0.11873E-01   -0.66890E-02 17408   0.398E-01    0.421E-01
DAV:  15    -0.327371683851E+03    0.26046E-03   -0.55935E-03 13056   0.191E-01    0.184E-01
DAV:  16    -0.327371929032E+03   -0.24518E-03   -0.58801E-04 18432   0.335E-02    0.129E-01
DAV:  17    -0.327372644865E+03   -0.71583E-03   -0.35869E-03 14336   0.688E-02    0.817E-02
DAV:  18    -0.327372716957E+03   -0.72092E-04   -0.23656E-04 14848   0.236E-02    0.542E-02
DAV:  19    -0.327372720433E+03   -0.34754E-05   -0.66130E-05 17920   0.144E-02    0.332E-02
DAV:  20    -0.327372727094E+03   -0.66612E-05   -0.44490E-05 15360   0.824E-03    0.229E-02
DAV:  21    -0.327372727918E+03   -0.82394E-06   -0.27550E-05 16896   0.801E-03    0.149E-02
DAV:  22    -0.327372728270E+03   -0.35181E-06   -0.16417E-06 12800   0.230E-03    0.123E-02
DAV:  23    -0.327372728601E+03   -0.33143E-06   -0.43832E-07 17408   0.908E-04    0.636E-03
DAV:  24    -0.327372728442E+03    0.15927E-06   -0.10739E-06 14336   0.208E-03    0.188E-03
DAV:  25    -0.327372728411E+03    0.30414E-07   -0.26155E-07 18944   0.939E-04    0.140E-03
DAV:  26    -0.327372728418E+03   -0.63010E-08   -0.24828E-08 12288   0.210E-04
   1 F= -.32737273E+03 E0= -.32737273E+03  d E =0.000000E+00  mag=     0.0000
