 vasp.5.4.4.18Apr17-6-g9f103f2a35 (build Oct 30 2023 17:30:16) complex          
  
 executed on             LinuxIFC date 2024.06.29  01:08:53
 running on  256 total cores
 distrk:  each k-point on  256 cores,    1 groups
 distr:  one band on NCORES_PER_BAND=   1 cores,  256 groups


--------------------------------------------------------------------------------------------------------


 INCAR:
 POTCAR:    PAW_PBE S 06Sep2000                   
 POTCAR:     PAW_PBE Cu_pv 06Sep2000              
 POTCAR:     PAW_PBE Fe_pv 02Aug2007              

 ----------------------------------------------------------------------------- 
|                                                                             |
|           W    W    AA    RRRRR   N    N  II  N    N   GGGG   !!!           |
|           W    W   A  A   R    R  NN   N  II  NN   N  G    G  !!!           |
|           W    W  A    A  R    R  N N  N  II  N N  N  G       !!!           |
|           W WW W  AAAAAA  RRRRR   N  N N  II  N  N N  G  GGG   !            |
|           WW  WW  A    A  R   R   N   NN  II  N   NN  G    G                |
|           W    W  A    A  R    R  N    N  II  N    N   GGGG   !!!           |
|                                                                             |
|      For optimal performance we recommend to set                            |
|        NCORE= 4 - approx SQRT( number of cores)                             |
|      NCORE specifies how many cores store one orbital (NPAR=cpu/NCORE).     |
|      This setting can  greatly improve the performance of VASP for DFT.     |
|      The default,   NCORE=1            might be grossly inefficient         |
|      on modern multi-core architectures or massively parallel machines.     |
|      Do your own testing !!!!                                               |
|      Unfortunately you need to use the default for GW and RPA calculations. |
|      (for HF NCORE is supported but not extensively tested yet)             |
|                                                                             |
 ----------------------------------------------------------------------------- 

 POTCAR:    PAW_PBE S 06Sep2000                   
   SHA256 =  0fc7481fb0695f01bdc6462160264c5c84044ae9ec85a907d398b887a2bc3132 S/
   COPYR  = (c) Copyright 06Sep2000 Georg Kresse                                
   COPYR  = This file is part of the software VASP. Any use, copying, and all ot
   COPYR  = If you do not have a valid VASP license, you may not use, copy or di
   VRHFIN =S : s2p4                                                             
   LEXCH  = PE                                                                  
   EATOM  =   276.8230 eV,   20.3459 Ry                                         
                                                                                
   TITEL  = PAW_PBE S 06Sep2000                                                 
   LULTRA =        F    use ultrasoft PP ?                                      
   IUNSCR =        1    unscreen: 0-lin 1-nonlin 2-no                           
   RPACOR =    1.500    partial core radius                                     
   POMASS =   32.066; ZVAL   =    6.000    mass and valenz                      
   RCORE  =    1.900    outmost cutoff radius                                   
   RWIGS  =    2.200; RWIGS  =    1.164    wigner-seitz radius (au A)           
   ENMAX  =  258.689; ENMIN  =  194.016 eV                                      
   ICORE  =        2    local potential                                         
   LCOR   =        T    correct aug charges                                     
   LPAW   =        T    paw PP                                                  
   EAUG   =  335.092                                                            
   DEXC   =    0.000                                                            
   RMAX   =    1.942    core radius for proj-oper                               
   RAUG   =    1.300    factor for augmentation sphere                          
   RDEP   =    1.954    radius for radial grids                                 
   RDEPT  =    1.744    core radius for aug-charge                              
                                                                                
   Atomic configuration                                                         
    6 entries                                                                   
     n  l   j            E        occ.                                          
     1  0  0.50     -2405.8406   2.0000                                         
     2  0  0.50      -211.7007   2.0000                                         
     2  1  1.50      -156.4958   6.0000                                         
     3  0  0.50       -17.2562   2.0000                                         
     3  1  0.50        -7.0085   4.0000                                         
     3  2  1.50        -6.8029   0.0000                                         
   Description                                                                  
     l       E           TYP  RCUT    TYP  RCUT                                 
     0    -17.2561641     23  1.900                                             
     0    -15.8743224     23  1.900                                             
     1     -7.0085400     23  1.900                                             
     1     -2.7779785     23  1.900                                             
     2     -6.8029130     23  1.900                                             
  local pseudopotential read in
  partial core-charges read in
  partial kinetic energy density read in
  atomic valenz-charges read in
  non local Contribution for L=           0  read in
    real space projection operators read in
  non local Contribution for L=           0  read in
    real space projection operators read in
  non local Contribution for L=           1  read in
    real space projection operators read in
  non local Contribution for L=           1  read in
    real space projection operators read in
    PAW grid and wavefunctions read in
 
   number of l-projection  operators is LMAX  =           4
   number of lm-projection operators is LMMAX =           8
 
 POTCAR:     PAW_PBE Cu_pv 06Sep2000              
   SHA256 =  cb7b504e2ea725fe1f25c85a9ac77d4012ce94cd394135b722c4e25ec297f1cb Cu
   COPYR  = (c) Copyright 06Sep2000 Georg Kresse                                
   COPYR  = This file is part of the software VASP. Any use, copying, and all ot
   COPYR  = If you do not have a valid VASP license, you may not use, copy or di
   VRHFIN =Cu: d10 p1                                                           
   LEXCH  = PE                                                                  
   EATOM  =  4120.1201 eV,  302.8203 Ry                                         
                                                                                
   TITEL  = PAW_PBE Cu_pv 06Sep2000                                             
   LULTRA =        F    use ultrasoft PP ?                                      
   IUNSCR =        1    unscreen: 0-lin 1-nonlin 2-no                           
   RPACOR =    1.500    partial core radius                                     
   POMASS =   63.546; ZVAL   =   17.000    mass and valenz                      
   RCORE  =    2.000    outmost cutoff radius                                   
   RWIGS  =    2.000; RWIGS  =    1.058    wigner-seitz radius (au A)           
   ENMAX  =  368.648; ENMIN  =  276.486 eV                                      
   RCLOC  =    1.304    cutoff for local pot                                    
   LCOR   =        T    correct aug charges                                     
   LPAW   =        T    paw PP                                                  
   EAUG   =  758.233                                                            
   DEXC   =    0.000                                                            
   RMAX   =    2.046    core radius for proj-oper                               
   RAUG   =    1.300    factor for augmentation sphere                          
   RDEP   =    2.025    radius for radial grids                                 
   RDEPT  =    1.558    core radius for aug-charge                              
                                                                                
   Atomic configuration                                                         
    8 entries                                                                   
     n  l   j            E        occ.                                          
     1  0  0.50     -8850.2467   2.0000                                         
     2  0  0.50     -1062.3498   2.0000                                         
     2  1  1.50      -916.8226   6.0000                                         
     3  0  0.50      -114.6929   2.0000                                         
     3  1  1.50       -72.1325   6.0000                                         
     3  2  2.50        -5.0394  10.0000                                         
     4  0  0.50        -4.6097   1.0000                                         
     4  3  2.50        -1.3606   0.0000                                         
   Description                                                                  
     l       E           TYP  RCUT    TYP  RCUT                                 
     1    -72.1324777     23  1.700                                             
     1     -1.3605826     23  1.700                                             
     2     -5.0393776     23  2.000                                             
     2     -6.3999602     23  2.000                                             
     0     -4.6097062     23  1.800                                             
     0     14.1620818     23  1.800                                             
  local pseudopotential read in
  partial core-charges read in
  partial kinetic energy density read in
  atomic valenz-charges read in
  non local Contribution for L=           1  read in
    real space projection operators read in
  non local Contribution for L=           1  read in
    real space projection operators read in
  non local Contribution for L=           2  read in
    real space projection operators read in
  non local Contribution for L=           2  read in
    real space projection operators read in
  non local Contribution for L=           0  read in
    real space projection operators read in
  non local Contribution for L=           0  read in
    real space projection operators read in
    PAW grid and wavefunctions read in
 
   number of l-projection  operators is LMAX  =           6
   number of lm-projection operators is LMMAX =          18
 
 POTCAR:     PAW_PBE Fe_pv 02Aug2007              
   SHA256 =  5d22e414b1f82158bf2c7ecb8b97b28fd0923e48cadc1c3bf74d524558f5dd32 Fe
   COPYR  = (c) Copyright 02Aug2007 Georg Kresse                                
   COPYR  = This file is part of the software VASP. Any use, copying, and all ot
   COPYR  = If you do not have a valid VASP license, you may not use, copy or di
   VRHFIN =Fe:  3pd7s1                                                          
   LEXCH  = PE                                                                  
   EATOM  =  2457.4239 eV,  180.6156 Ry                                         
                                                                                
   TITEL  = PAW_PBE Fe_pv 02Aug2007                                             
   LULTRA =        F    use ultrasoft PP ?                                      
   IUNSCR =        1    unscreen: 0-lin 1-nonlin 2-no                           
   RPACOR =    1.750    partial core radius                                     
   POMASS =   55.847; ZVAL   =   14.000    mass and valenz                      
   RCORE  =    2.200    outmost cutoff radius                                   
   RWIGS  =    2.200; RWIGS  =    1.164    wigner-seitz radius (au A)           
   ENMAX  =  293.238; ENMIN  =  219.928 eV                                      
   ICORE  =        3    local potential                                         
   LCOR   =        T    correct aug charges                                     
   LPAW   =        T    paw PP                                                  
   EAUG   =  578.342                                                            
   DEXC   =    0.000                                                            
   RMAX   =    2.249    core radius for proj-oper                               
   RAUG   =    1.300    factor for augmentation sphere                          
   RDEP   =    2.296    radius for radial grids                                 
   RDEPT  =    1.766    core radius for aug-charge                              
                                                                                
   Atomic configuration                                                         
    8 entries                                                                   
     n  l   j            E        occ.                                          
     1  0  0.50     -6993.8440   2.0000                                         
     2  0  0.50      -814.6047   2.0000                                         
     2  1  1.50      -693.3689   6.0000                                         
     3  0  0.50       -89.4732   2.0000                                         
     3  1  1.50       -55.6373   6.0000                                         
     3  2  2.50        -3.8151   7.0000                                         
     4  0  0.50        -4.2551   1.0000                                         
     4  3  2.50        -1.3606   0.0000                                         
   Description                                                                  
     l       E           TYP  RCUT    TYP  RCUT                                 
     1    -55.6372668     23  2.000                                             
     1     -5.4423304     23  2.000                                             
     2     -3.8151096     23  2.200                                             
     2     -5.1756922     23  2.200                                             
     0     -4.2550951     23  2.200                                             
     0     27.2116520     23  2.200                                             
     3     -1.3605826     23  2.200                                             
  local pseudopotential read in
  partial core-charges read in
  partial kinetic energy density read in
  atomic valenz-charges read in
  non local Contribution for L=           1  read in
    real space projection operators read in
  non local Contribution for L=           1  read in
    real space projection operators read in
  non local Contribution for L=           2  read in
    real space projection operators read in
  non local Contribution for L=           2  read in
    real space projection operators read in
  non local Contribution for L=           0  read in
    real space projection operators read in
  non local Contribution for L=           0  read in
    real space projection operators read in
    PAW grid and wavefunctions read in
 
   number of l-projection  operators is LMAX  =           6
   number of lm-projection operators is LMMAX =          18
 

 ----------------------------------------------------------------------------- 
|                                                                             |
|  ADVICE TO THIS USER RUNNING 'VASP/VAMP'   (HEAR YOUR MASTER'S VOICE ...):  |
|                                                                             |
|      You have a (more or less) 'large supercell' and for larger cells       |
|      it might be more efficient to use real space projection opertators     |
|      So try LREAL= Auto  in the INCAR   file.                               |
|      Mind:          For very  accurate calculation you might also keep the  |
|      reciprocal projection scheme          (i.e. LREAL=.FALSE.)             |
|                                                                             |
 ----------------------------------------------------------------------------- 


 ----------------------------------------------------------------------------- 
|                                                                             |
|  ADVICE TO THIS USER RUNNING 'VASP/VAMP'   (HEAR YOUR MASTER'S VOICE ...):  |
|                                                                             |
|      You enforced a specific xc-type in the INCAR file,                     |
|      a different type was found on the POTCAR file                          |
|          I HOPE YOU KNOW, WHAT YOU ARE  DOING                               |
|                                                                             |
 ----------------------------------------------------------------------------- 

  PAW_PBE S 06Sep2000                   :
 energy of atom  1       EATOM= -276.8230
 kinetic energy error for atom=    0.0007 (will be added to EATOM!!)
   PAW_PBE Cu_pv 06Sep2000              :
 energy of atom  2       EATOM=-4120.1201
 kinetic energy error for atom=    0.0094 (will be added to EATOM!!)
   PAW_PBE Fe_pv 02Aug2007              :
 energy of atom  3       EATOM=-2457.4239
 kinetic energy error for atom=    0.0025 (will be added to EATOM!!)
 
 
 POSCAR: Fe16 Cu16 S32                           
  positions in direct lattice
  No initial velocities read in
 exchange correlation table for  LEXCH =       14
   RHO(1)=    0.500       N(1)  =     2000
   RHO(2)=  100.500       N(2)  =     4000
 


--------------------------------------------------------------------------------------------------------


 ion  position               nearest neighbor table
   1  0.126  0.125  0.120-  37 2.25  61 2.27  41 2.27  49 2.29
   2  0.626  0.125  0.120-  38 2.25  62 2.27  42 2.27  50 2.29
   3  0.126  0.625  0.120-  39 2.25  63 2.27  43 2.27  51 2.29
   4  0.626  0.625  0.120-  40 2.25  64 2.27  44 2.27  52 2.29
   5  0.374  0.375  0.120-  39 2.25  62 2.27  41 2.27  52 2.29
   6  0.874  0.375  0.120-  40 2.25  61 2.27  42 2.27  51 2.29
   7  0.374  0.875  0.120-  37 2.25  64 2.27  43 2.27  50 2.29
   8  0.874  0.875  0.120-  38 2.25  63 2.27  44 2.27  49 2.29
   9  0.125  0.374  0.870-  41 2.25  51 2.27  45 2.27  55 2.29
  10  0.625  0.374  0.870-  42 2.25  52 2.27  46 2.27  56 2.29
  11  0.125  0.874  0.870-  43 2.25  49 2.27  47 2.27  53 2.29
  12  0.625  0.874  0.870-  44 2.25  50 2.27  48 2.27  54 2.29
  13  0.375  0.126  0.870-  41 2.25  50 2.27  46 2.27  53 2.29
  14  0.875  0.126  0.870-  42 2.25  49 2.27  45 2.27  54 2.29
  15  0.375  0.626  0.870-  43 2.25  52 2.27  48 2.27  55 2.29
  16  0.875  0.626  0.870-  44 2.25  51 2.27  47 2.27  56 2.29
  17  0.124  0.125  0.620-  45 2.25  53 2.27  33 2.27  57 2.29
  18  0.624  0.125  0.620-  46 2.25  54 2.27  34 2.27  58 2.29
  19  0.124  0.625  0.620-  47 2.25  55 2.27  35 2.27  59 2.29
  20  0.624  0.625  0.620-  48 2.25  56 2.27  36 2.27  60 2.29
  21  0.376  0.375  0.620-  46 2.25  55 2.27  36 2.27  57 2.29
  22  0.876  0.375  0.620-  45 2.25  56 2.27  35 2.27  58 2.29
  23  0.376  0.875  0.620-  48 2.25  53 2.27  34 2.27  59 2.29
  24  0.876  0.875  0.620-  47 2.25  54 2.27  33 2.27  60 2.29
  25  0.375  0.124  0.370-  34 2.25  57 2.27  37 2.27  62 2.29
  26  0.875  0.124  0.370-  33 2.25  58 2.27  38 2.27  61 2.29
  27  0.375  0.624  0.370-  36 2.25  59 2.27  39 2.27  64 2.29
  28  0.875  0.624  0.370-  35 2.25  60 2.27  40 2.27  63 2.29
  29  0.125  0.376  0.370-  35 2.25  57 2.27  39 2.27  61 2.29
  30  0.625  0.376  0.370-  36 2.25  58 2.27  40 2.27  62 2.29
  31  0.125  0.876  0.370-  33 2.25  59 2.27  37 2.27  63 2.29
  32  0.625  0.876  0.370-  34 2.25  60 2.27  38 2.27  64 2.29
  33  0.000  0.000  0.504-  26 2.25  31 2.25  17 2.27  24 2.27
  34  0.500  0.000  0.504-  25 2.25  32 2.25  18 2.27  23 2.27
  35  0.000  0.500  0.504-  28 2.25  29 2.25  19 2.27  22 2.27
  36  0.500  0.500  0.504-  27 2.25  30 2.25  20 2.27  21 2.27
  37  0.250  0.000  0.254-   1 2.25   7 2.25  25 2.27  31 2.27
  38  0.750  0.000  0.254-   2 2.25   8 2.25  26 2.27  32 2.27
  39  0.250  0.500  0.254-   3 2.25   5 2.25  27 2.27  29 2.27
  40  0.750  0.500  0.254-   4 2.25   6 2.25  28 2.27  30 2.27
  41  0.250  0.250  0.004-   9 2.25  13 2.25   1 2.27   5 2.27
  42  0.750  0.250  0.004-  10 2.25  14 2.25   2 2.27   6 2.27
  43  0.250  0.750  0.004-  11 2.25  15 2.25   3 2.27   7 2.27
  44  0.750  0.750  0.004-  12 2.25  16 2.25   4 2.27   8 2.27
  45  0.000  0.250  0.754-  17 2.25  22 2.25   9 2.27  14 2.27
  46  0.500  0.250  0.754-  18 2.25  21 2.25  10 2.27  13 2.27
  47  0.000  0.750  0.754-  19 2.25  24 2.25  11 2.27  16 2.27
  48  0.500  0.750  0.754-  20 2.25  23 2.25  12 2.27  15 2.27
  49  0.000  0.000  0.005-  11 2.27  14 2.27   1 2.29   8 2.29
  50  0.500  0.000  0.005-  12 2.27  13 2.27   2 2.29   7 2.29
  51  0.000  0.500  0.005-   9 2.27  16 2.27   3 2.29   6 2.29
  52  0.500  0.500  0.005-  10 2.27  15 2.27   4 2.29   5 2.29
  53  0.250  0.000  0.755-  17 2.27  23 2.27  11 2.29  13 2.29
  54  0.750  0.000  0.755-  18 2.27  24 2.27  12 2.29  14 2.29
  55  0.250  0.500  0.755-  19 2.27  21 2.27   9 2.29  15 2.29
  56  0.750  0.500  0.755-  20 2.27  22 2.27  10 2.29  16 2.29
  57  0.250  0.250  0.505-  25 2.27  29 2.27  17 2.29  21 2.29
  58  0.750  0.250  0.505-  26 2.27  30 2.27  18 2.29  22 2.29
  59  0.250  0.750  0.505-  27 2.27  31 2.27  19 2.29  23 2.29
  60  0.750  0.750  0.505-  28 2.27  32 2.27  20 2.29  24 2.29
  61  0.000  0.250  0.255-   1 2.27   6 2.27  26 2.29  29 2.29
  62  0.500  0.250  0.255-   2 2.27   5 2.27  25 2.29  30 2.29
  63  0.000  0.750  0.255-   3 2.27   8 2.27  28 2.29  31 2.29
  64  0.500  0.750  0.255-   4 2.27   7 2.27  27 2.29  32 2.29
 
  LATTYP: Found a base centered orthorhombic cell.
 ALAT       =    14.2224572972
 B/A-ratio  =     1.0874892958
 C/A-ratio  =     0.7334239634
  
  Lattice vectors:
  
 A1 = (  10.4967270000,   0.4399310000,   0.0000000000)
 A2 = (  -0.4399310000, -10.4967270000,   0.0000000000)
 A3 = (   0.0000000000,   0.0000000000, -10.4310910000)


Analysis of symmetry for initial positions (statically):
=====================================================================
 Subroutine PRICEL returns following result:
 
  LATTYP: Found a face centered orthorhombic cell.
 ALAT       =     7.1112286486
 B/A-ratio  =     1.0874892958
 C/A-ratio  =     1.4668479268
  
  Lattice vectors:
  
 A1 = (  -2.7341645000,  -2.7341645000,   5.2155455000)
 A2 = (  -2.5141990000,   2.5141990000,   5.2155455000)
 A3 = (  -5.2483635000,  -0.2199655000,  -0.0000000000)
 
   8 primitive cells build up your supercell.
 

 Routine SETGRP: Setting up the symmetry group for a 
 base centered orthorhombic supercell.


 Subroutine GETGRP returns: Found  4 space group operations
 (whereof  2 operations were pure point group operations)
 out of a pool of  8 trial point group operations.


The static configuration has the point symmetry C_2 .
 The point group associated with its full space group is C_2v.


Analysis of symmetry for dynamics (positions and initial velocities):
=====================================================================
 Subroutine PRICEL returns following result:
 
  LATTYP: Found a face centered orthorhombic cell.
 ALAT       =     7.1112286486
 B/A-ratio  =     1.0874892958
 C/A-ratio  =     1.4668479268
  
  Lattice vectors:
  
 A1 = (  -2.7341645000,  -2.7341645000,   5.2155455000)
 A2 = (  -2.5141990000,   2.5141990000,   5.2155455000)
 A3 = (  -5.2483635000,  -0.2199655000,  -0.0000000000)
 
   8 primitive cells build up your supercell.
 

 Routine SETGRP: Setting up the symmetry group for a 
 base centered orthorhombic supercell.


 Subroutine GETGRP returns: Found  4 space group operations
 (whereof  2 operations were pure point group operations)
 out of a pool of  8 trial point group operations.


The dynamic configuration has the point symmetry C_2 .
 The point group associated with its full space group is C_2v.


Analysis of structural, dynamic, and magnetic symmetry:
=====================================================================
 Subroutine PRICEL returns following result:
 
  LATTYP: Found a face centered orthorhombic cell.
 ALAT       =     7.1112286486
 B/A-ratio  =     1.0874892958
 C/A-ratio  =     1.4668479268
  
  Lattice vectors:
  
 A1 = (  -2.7341645000,  -2.7341645000,   5.2155455000)
 A2 = (  -2.5141990000,   2.5141990000,   5.2155455000)
 A3 = (  -5.2483635000,  -0.2199655000,  -0.0000000000)
 
   8 primitive cells build up your supercell.
 

 Routine SETGRP: Setting up the symmetry group for a 
 base centered orthorhombic supercell.


 Subroutine GETGRP returns: Found  4 space group operations
 (whereof  2 operations were pure point group operations)
 out of a pool of  8 trial point group operations.


The magnetic configuration has the point symmetry C_2 .
 The point group associated with its full space group is C_2v.


 Subroutine INISYM returns: Found  4 space group operations
 (whereof  2 operations are pure point group operations),
 and found     8 'primitive' translations

 
 
 KPOINTS: Automatic mesh                          

Automatic generation of k-mesh.
Space group operators:
 irot       det(A)        alpha          n_x          n_y          n_z        tau_x        tau_y        tau_z
    1     1.000000     0.000000     1.000000     0.000000     0.000000     0.000000     0.000000     0.000000
    2     1.000000   179.999999     0.000000     0.000000     1.000000     0.000000     0.000000     0.000000
    3    -1.000000   180.000000     0.707107     0.707107     0.000000    -0.750000    -0.000000     0.750000
    4    -1.000000   180.000000     0.707107    -0.707107     0.000000    -0.750000    -0.000000     0.750000
 
 Subroutine IBZKPT returns following result:
 ===========================================
 
 Found      6 irreducible k-points:
 
 Following reciprocal coordinates:
            Coordinates               Weight
  0.000000  0.000000  0.000000      1.000000
  0.500000  0.000000  0.000000      2.000000
  0.500000  0.500000  0.000000      1.000000
  0.000000  0.000000  0.500000      1.000000
  0.500000  0.000000  0.500000      2.000000
  0.500000  0.500000  0.500000      1.000000
 
 Following cartesian coordinates:
            Coordinates               Weight
  0.000000  0.000000  0.000000      1.000000
  0.047718 -0.002000  0.000000      2.000000
  0.045718  0.045718  0.000000      1.000000
  0.000000  0.000000  0.047934      1.000000
  0.047718 -0.002000  0.047934      2.000000
  0.045718  0.045718  0.047934      1.000000
 
 TETIRR: Found     12 inequivalent tetrahedra from       48
 
 Subroutine IBZKPT_HF returns following result:
 ==============================================
 
 Found      8 k-points in 1st BZ
 the following      8 k-points will be used (e.g. in the exchange kernel)
 Following reciprocal coordinates:   # in IRBZ
  0.000000  0.000000  0.000000    0.12500000   1 t-inv F
  0.500000  0.000000  0.000000    0.12500000   2 t-inv F
  0.500000  0.500000  0.000000    0.12500000   3 t-inv F
  0.000000  0.000000  0.500000    0.12500000   4 t-inv F
  0.500000  0.000000  0.500000    0.12500000   5 t-inv F
  0.500000  0.500000  0.500000    0.12500000   6 t-inv F
  0.000000 -0.500000  0.000000    0.12500000   2 t-inv F spinflp
  0.000000 -0.500000  0.500000    0.12500000   5 t-inv F spinflp


--------------------------------------------------------------------------------------------------------




 Dimension of arrays:
   k-points           NKPTS =      6   k-points in BZ     NKDIM =      6   number of bands    NBANDS=    512
   number of dos      NEDOS =    301   number of ions     NIONS =     64
   non local maximal  LDIM  =      6   non local SUM 2l+1 LMDIM =     18
   total plane-waves  NPLWV = 829440
   max r-space proj   IRMAX =      1   max aug-charges    IRDMAX=  22973
   dimension x,y,z NGX =    96 NGY =   96 NGZ =   90
   dimension x,y,z NGXF=   192 NGYF=  192 NGZF=  180
   support grid    NGXF=   192 NGYF=  192 NGZF=  180
   ions per type =              32  16  16
   NGX,Y,Z   is equivalent  to a cutoff of  15.19, 15.19, 14.34 a.u.
   NGXF,Y,Z  is equivalent  to a cutoff of  30.38, 30.38, 28.69 a.u.

 SYSTEM =  CuFeS2                                  
 POSCAR =  Fe16 Cu16 S32                           

 Startparameter for this run:
   NWRITE =      2    write-flag & timer
   PREC   = accura    normal or accurate (medium, high low for compatibility)
   ISTART =      0    job   : 0-new  1-cont  2-samecut
   ICHARG =      1    charge: 1-file 2-atom 10-const
   ISPIN  =      2    spin polarized calculation?
   LNONCOLLINEAR =      F non collinear calculations
   LSORBIT =      F    spin-orbit coupling
   INIWAV =      1    electr: 0-lowe 1-rand  2-diag
   LASPH  =      F    aspherical Exc in radial PAW
   METAGGA=      F    non-selfconsistent MetaGGA calc.

 Electronic Relaxation 1
   ENCUT  =  700.0 eV  51.45 Ry    7.17 a.u.  22.66 22.66 22.50*2*pi/ulx,y,z
   ENINI  =  700.0     initial cutoff
   ENAUG  =  758.2 eV  augmentation charge cutoff
   NELM   =    500;   NELMIN=  2; NELMDL=  0     # of ELM steps 
   EDIFF  = 0.1E-07   stopping-criterion for ELM
   LREAL  =      F    real-space projection
   NLSPLINE    = F    spline interpolate recip. space projectors
   LCOMPAT=      F    compatible to vasp.4.4
   GGA_COMPAT  = T    GGA compatible to vasp.4.4-vasp.4.6
   LMAXPAW     = -100 max onsite density
   LMAXMIX     =    4 max onsite mixed and CHGCAR
   VOSKOWN=      0    Vosko Wilk Nusair interpolation
   ROPT   =    0.00000   0.00000   0.00000
 Ionic relaxation
   EDIFFG = -.1E-04   stopping-criterion for IOM
   NSW    =      0    number of steps for IOM
   NBLOCK =      1;   KBLOCK =      1    inner block; outer block 
   IBRION =     -1    ionic relax: 0-MD 1-quasi-New 2-CG
   NFREE  =      0    steps in history (QN), initial steepest desc. (CG)
   ISIF   =      2    stress and relaxation
   IWAVPR =     10    prediction:  0-non 1-charg 2-wave 3-comb
   ISYM   =      2    0-nonsym 1-usesym 2-fastsym
   LCORR  =      T    Harris-Foulkes like correction to forces

   POTIM  = 0.5000    time-step for ionic-motion
   TEIN   =    0.0    initial temperature
   TEBEG  =    0.0;   TEEND  =   0.0 temperature during run
   SMASS  =  -3.00    Nose mass-parameter (am)
   estimated Nose-frequenzy (Omega)   =  0.10E-29 period in steps =****** mass=  -0.252E-26a.u.
   SCALEE = 1.0000    scale energy and forces
   NPACO  =    256;   APACO  = 16.0  distance and # of slots for P.C.
   PSTRESS=    0.0 pullay stress

  Mass of Ions in am
   POMASS =  32.07 63.55 55.85
  Ionic Valenz
   ZVAL   =   6.00 17.00 14.00
  Atomic Wigner-Seitz radii
   RWIGS  =  -1.00 -1.00 -1.00
  virtual crystal weights 
   VCA    =   1.00  1.00  1.00
   NELECT =     688.0000    total number of electrons
   NUPDOWN=      -1.0000    fix difference up-down

 DOS related values:
   EMIN   =  10.00;   EMAX   =-10.00  energy-range for DOS
   EFERMI =   0.00
   ISMEAR =    -5;   SIGMA  =   0.03  broadening in eV -4-tet -1-fermi 0-gaus

 Electronic relaxation 2 (details)
   IALGO  =     38    algorithm
   LDIAG  =      T    sub-space diagonalisation (order eigenvalues)
   LSUBROT=      F    optimize rotation matrix (better conditioning)
   TURBO    =      0    0=normal 1=particle mesh
   IRESTART =      0    0=no restart 2=restart with 2 vectors
   NREBOOT  =      0    no. of reboots
   NMIN     =      0    reboot dimension
   EREF     =   0.00    reference energy to select bands
   IMIX   =      4    mixing-type and parameters
     AMIX     =   0.40;   BMIX     =  1.00
     AMIX_MAG =   1.60;   BMIX_MAG =  1.00
     AMIN     =   0.10
     WC   =   100.;   INIMIX=   1;  MIXPRE=   1;  MAXMIX= -45

 Intra band minimization:
   WEIMIN = 0.0000     energy-eigenvalue tresh-hold
   EBREAK =  0.49E-11  absolut break condition
   DEPER  =   0.30     relativ break condition  

   TIME   =   0.40     timestep for ELM

  volume/ion in A,a.u.               =      17.93       120.97
  Fermi-wavevector in a.u.,A,eV,Ry     =   1.380531  2.608826 25.930896  1.905867
  Thomas-Fermi vector in A             =   2.505400
 
 Write flags
   LWAVE        =      T    write WAVECAR
   LDOWNSAMPLE  =      F    k-point downsampling of WAVECAR
   LCHARG       =      T    write CHGCAR
   LVTOT        =      F    write LOCPOT, total local potential
   LVHAR        =      F    write LOCPOT, Hartree potential only
   LELF         =      F    write electronic localiz. function (ELF)
   LORBIT       =     11    0 simple, 1 ext, 2 COOP (PROOUT), +10 PAW based schemes


 Dipole corrections
   LMONO  =      F    monopole corrections only (constant potential shift)
   LDIPOL =      F    correct potential (dipole corrections)
   IDIPOL =      0    1-x, 2-y, 3-z, 4-all directions 
   EPSILON=  1.0000000 bulk dielectric constant

 LDA+U is selected, type is set to LDAUTYPE =  2
   angular momentum for each species LDAUL =     2    2    2
   U (eV)           for each species LDAUU =   0.0  0.1  4.7
   J (eV)           for each species LDAUJ =   0.0  0.0  0.0
 Exchange correlation treatment:
   GGA     =    PS    GGA type
   LEXCH   =    14    internal setting for exchange type
   VOSKOWN=      0    Vosko Wilk Nusair interpolation
   LHFCALC =     F    Hartree Fock is set to
   LHFONE  =     F    Hartree Fock one center treatment
   AEXX    =    0.0000 exact exchange contribution

 Linear response parameters
   LEPSILON=     F    determine dielectric tensor
   LRPA    =     F    only Hartree local field effects (RPA)
   LNABLA  =     F    use nabla operator in PAW spheres
   LVEL    =     F    velocity operator in full k-point grid
   LINTERFAST=   F  fast interpolation
   KINTER  =     0    interpolate to denser k-point grid
   CSHIFT  =0.1000    complex shift for real part using Kramers Kronig
   OMEGAMAX=  -1.0    maximum frequency
   DEG_THRESHOLD= 0.2000000E-02 threshold for treating states as degnerate
   RTIME   =   -0.100 relaxation time in fs
  (WPLASMAI=    0.000 imaginary part of plasma frequency in eV, 0.658/RTIME)
   DFIELD  = 0.0000000 0.0000000 0.0000000 field for delta impulse in time
 
 Orbital magnetization related:
   ORBITALMAG=     F  switch on orbital magnetization
   LCHIMAG   =     F  perturbation theory with respect to B field
   DQ        =  0.001000  dq finite difference perturbation B field
   LLRAUG    =     F  two centre corrections for induced B field

 PEAD related settings:
   LPEAD      =     T    switch on PEAD
   IPEAD      =     4    finite difference order for dpsi/dk
   LCALCPOL   =     T    calculate macroscopic polarization
   LCALCEPS   =     F    calculate dielectric tensor
   EFIELD_PEAD=    0.0000    0.0000    0.0000
   SKIP_EDOTP =     F
   LRPA       =     F
   SKIP_SCF   =     F


--------------------------------------------------------------------------------------------------------


 Static calculation
 charge density and potential will be updated during run
 spin polarized calculation
 Variant of blocked Davidson
 Davidson routine will perform the subspace rotation
 perform sub-space diagonalisation
    after iterative eigenvector-optimisation
 modified Broyden-mixing scheme, WC =      100.0
 initial mixing is a Kerker type mixing with AMIX =  0.4000 and BMIX =      1.0000
 Hartree-type preconditioning will be used
 using additional bands          168
 reciprocal scheme for non local part
 use partial core corrections
 calculate Harris-corrections to forces 
   (improved forces if not selfconsistent)
 use gradient corrections 
 use of overlap-Matrix (Vanderbilt PP)
 Fermi weights with tetrahedron method with Bloechl corrections


--------------------------------------------------------------------------------------------------------


  energy-cutoff  :      700.00
  volume of cell :     1147.29
      direct lattice vectors                 reciprocal lattice vectors
    10.496727000  0.439931000  0.000000000     0.095435429 -0.003999819  0.000000000
     0.439931000 10.496727000  0.000000000    -0.003999819  0.095435429  0.000000000
     0.000000000  0.000000000 10.431091000     0.000000000  0.000000000  0.095867249

  length of vectors
    10.505941985 10.505941985 10.431091000     0.095519211  0.095519211  0.095867249


 
 k-points in units of 2pi/SCALE and weight: Automatic mesh                          
   0.00000000  0.00000000  0.00000000       0.125
   0.04771771 -0.00199991  0.00000000       0.250
   0.04571781  0.04571781  0.00000000       0.125
   0.00000000  0.00000000  0.04793362       0.125
   0.04771771 -0.00199991  0.04793362       0.250
   0.04571781  0.04571781  0.04793362       0.125
 
 k-points in reciprocal lattice and weights: Automatic mesh                          
   0.00000000  0.00000000  0.00000000       0.125
   0.50000000  0.00000000  0.00000000       0.250
   0.50000000  0.50000000  0.00000000       0.125
   0.00000000  0.00000000  0.50000000       0.125
   0.50000000  0.00000000  0.50000000       0.250
   0.50000000  0.50000000  0.50000000       0.125
 
 position of ions in fractional coordinates (direct lattice) 
   0.12607400  0.12547900  0.12044300
   0.62607400  0.12547900  0.12044300
   0.12607400  0.62547900  0.12044300
   0.62607400  0.62547900  0.12044300
   0.37392600  0.37452100  0.12044300
   0.87392600  0.37452100  0.12044300
   0.37392600  0.87452100  0.12044300
   0.87392600  0.87452100  0.12044300
   0.12452100  0.37392600  0.87044300
   0.62452100  0.37392600  0.87044300
   0.12452100  0.87392600  0.87044300
   0.62452100  0.87392600  0.87044300
   0.37547900  0.12607400  0.87044300
   0.87547900  0.12607400  0.87044300
   0.37547900  0.62607400  0.87044300
   0.87547900  0.62607400  0.87044300
   0.12392600  0.12452100  0.62044300
   0.62392600  0.12452100  0.62044300
   0.12392600  0.62452100  0.62044300
   0.62392600  0.62452100  0.62044300
   0.37607400  0.37547900  0.62044300
   0.87607400  0.37547900  0.62044300
   0.37607400  0.87547900  0.62044300
   0.87607400  0.87547900  0.62044300
   0.37452100  0.12392600  0.37044300
   0.87452100  0.12392600  0.37044300
   0.37452100  0.62392600  0.37044300
   0.87452100  0.62392600  0.37044300
   0.12547900  0.37607400  0.37044300
   0.62547900  0.37607400  0.37044300
   0.12547900  0.87607400  0.37044300
   0.62547900  0.87607400  0.37044300
   0.00000000  0.00000000  0.50393400
   0.50000000  0.00000000  0.50393400
   0.00000000  0.50000000  0.50393400
   0.50000000  0.50000000  0.50393400
   0.25000000  0.00000000  0.25393400
   0.75000000  0.00000000  0.25393400
   0.25000000  0.50000000  0.25393400
   0.75000000  0.50000000  0.25393400
   0.25000000  0.25000000  0.00393400
   0.75000000  0.25000000  0.00393400
   0.25000000  0.75000000  0.00393400
   0.75000000  0.75000000  0.00393400
   0.00000000  0.25000000  0.75393400
   0.50000000  0.25000000  0.75393400
   0.00000000  0.75000000  0.75393400
   0.50000000  0.75000000  0.75393400
   0.00000000  0.00000000  0.00517900
   0.50000000  0.00000000  0.00517900
   0.00000000  0.50000000  0.00517900
   0.50000000  0.50000000  0.00517900
   0.25000000  0.00000000  0.75517900
   0.75000000  0.00000000  0.75517900
   0.25000000  0.50000000  0.75517900
   0.75000000  0.50000000  0.75517900
   0.25000000  0.25000000  0.50517900
   0.75000000  0.25000000  0.50517900
   0.25000000  0.75000000  0.50517900
   0.75000000  0.75000000  0.50517900
   0.00000000  0.25000000  0.25517900
   0.50000000  0.25000000  0.25517900
   0.00000000  0.75000000  0.25517900
   0.50000000  0.75000000  0.25517900
 
 position of ions in cartesian coordinates  (Angst):
   1.37856646  1.37258267  1.25635189
   6.62692996  1.59254817  1.25635189
   1.59853196  6.62094617  1.25635189
   6.84689546  6.84091167  1.25635189
   4.08976254  4.09574633  1.25635189
   9.33812604  4.31571183  1.25635189
   4.30972804  9.34410983  1.25635189
   9.55809154  9.56407533  1.25635189
   1.47156458  3.97977979  9.07967014
   6.71992808  4.19974529  9.07967014
   1.69153008  9.22814329  9.07967014
   6.93989358  9.44810879  9.07967014
   3.99676442  1.48854921  9.07967014
   9.24512792  1.70851471  9.07967014
   4.21672992  6.73691271  9.07967014
   9.46509342  6.95687821  9.07967014
   1.35559804  1.36158183  6.47189739
   6.60396154  1.58154733  6.47189739
   1.57556354  6.60994533  6.47189739
   6.82392704  6.82991083  6.47189739
   4.11273096  4.10674717  6.47189739
   9.36109446  4.32671267  6.47189739
   4.33269646  9.35511067  6.47189739
   9.58105996  9.57507617  6.47189739
   3.98576358  1.46558079  3.86412464
   9.23412708  1.68554629  3.86412464
   4.20572908  6.71394429  3.86412464
   9.45409258  6.93390979  3.86412464
   1.48256542  4.00274821  3.86412464
   6.73092892  4.22271371  3.86412464
   1.70253092  9.25111171  3.86412464
   6.95089442  9.47107721  3.86412464
   0.00000000  0.00000000  5.25658141
   5.24836350  0.21996550  5.25658141
   0.21996550  5.24836350  5.25658141
   5.46832900  5.46832900  5.25658141
   2.62418175  0.10998275  2.64880866
   7.87254525  0.32994825  2.64880866
   2.84414725  5.35834625  2.64880866
   8.09251075  5.57831175  2.64880866
   2.73416450  2.73416450  0.04103591
   7.98252800  2.95413000  0.04103591
   2.95413000  7.98252800  0.04103591
   8.20249350  8.20249350  0.04103591
   0.10998275  2.62418175  7.86435416
   5.35834625  2.84414725  7.86435416
   0.32994825  7.87254525  7.86435416
   5.57831175  8.09251075  7.86435416
   0.00000000  0.00000000  0.05402262
   5.24836350  0.21996550  0.05402262
   0.21996550  5.24836350  0.05402262
   5.46832900  5.46832900  0.05402262
   2.62418175  0.10998275  7.87734087
   7.87254525  0.32994825  7.87734087
   2.84414725  5.35834625  7.87734087
   8.09251075  5.57831175  7.87734087
   2.73416450  2.73416450  5.26956812
   7.98252800  2.95413000  5.26956812
   2.95413000  7.98252800  5.26956812
   8.20249350  8.20249350  5.26956812
   0.10998275  2.62418175  2.66179537
   5.35834625  2.84414725  2.66179537
   0.32994825  7.87254525  2.66179537
   5.57831175  8.09251075  2.66179537
 


--------------------------------------------------------------------------------------------------------


 k-point  1 :   0.0000 0.0000 0.0000  plane waves:   48283
 k-point  2 :   0.5000 0.0000 0.0000  plane waves:   48252
 k-point  3 :   0.5000 0.5000 0.0000  plane waves:   48252
 k-point  4 :   0.0000 0.0000 0.5000  plane waves:   48246
 k-point  5 :   0.5000 0.0000 0.5000  plane waves:   48208
 k-point  6 :   0.5000 0.5000 0.5000  plane waves:   48136

 maximum and minimum number of plane-waves per node :     48283    48136

 maximum number of plane-waves:     48283
 maximum index in each direction: 
   IXMAX=   22   IYMAX=   22   IZMAX=   22
   IXMIN=  -23   IYMIN=  -23   IZMIN=  -23


 serial   3D FFT for wavefunctions
 parallel 3D FFT for charge:
    minimum data exchange during FFTs selected (reduces bandwidth)


 total amount of memory used by VASP MPI-rank0   300225. kBytes
=======================================================================

   base      :      30000. kBytes
   nonl-proj :     174956. kBytes
   fftplans  :       4588. kBytes
   grid      :      69719. kBytes
   one-center:       1990. kBytes
   wavefun   :      18972. kBytes
 
     INWAV:  cpu time    0.0000: real time    0.0000
 Broyden mixing: mesh for mixing (old mesh)
   NGX = 45   NGY = 45   NGZ = 45
  (NGX  =192   NGY  =192   NGZ  =180)
  gives a total of  91125 points

 initial charge density was supplied:
 charge density of overlapping atoms calculated
 number of electron     688.0000000 magnetization       0.0000000
 keeping initial charge density in first step


--------------------------------------------------------------------------------------------------------


 Maximum index for augmentation-charges          897 (set IRDMAX)


--------------------------------------------------------------------------------------------------------


 First call to EWALD:  gamma=   0.169
 Maximum number of real-space cells 3x 3x 3
 Maximum number of reciprocal cells 3x 3x 3

    FEWALD:  cpu time    0.0031: real time    0.0031


--------------------------------------- Iteration      1(   1)  ---------------------------------------


    POTLOK:  cpu time    0.3411: real time    1.1157
    SETDIJ:  cpu time    0.0148: real time    0.0149
     EDDAV:  cpu time   63.9285: real time   65.4078
 BZINTS: Fermi energy: 16.841208;688.000000 electrons
         Band energy:***********;  BLOECHL correction: -0.009775
       DOS:  cpu time    0.0191: real time    0.0192
    --------------------------------------------
      LOOP:  cpu time   64.3036: real time   66.5576

 eigenvalue-minimisations  : 12288
 total energy-change (2. order) : 0.6197730E+04  (-0.5035687E+05)
 number of electron     688.0000000 magnetization       0.0000000
 augmentation part      688.0000000 magnetization       0.0000000

 Free energy of the ion-electron system (eV)
  ---------------------------------------------------
  alpha Z        PSCENC =      2363.08654526
  Ewald energy   TEWEN  =    -62561.02459930
  -Hartree energ DENC   =    -44259.04231828
  -exchange      EXHF   =         0.00000000
  -V(xc)+E(xc)   XCENC  =      3320.15626037
  PAW double counting   =     94592.23312189   -98164.79192727
  entropy T*S    EENTRO =         0.00000000
  eigenvalues    EBANDS =     -3112.95242437
  atomic energy  EATOM  =    114020.06510763
  Solvation  Ediel_sol  =         0.00000000
  ---------------------------------------------------
  free energy    TOTEN  =      6197.72976592 eV

  energy without entropy =     6197.72976592  energy(sigma->0) =     6197.72976592


--------------------------------------------------------------------------------------------------------




--------------------------------------- Iteration      1(   2)  ---------------------------------------


     EDDAV:  cpu time   77.1496: real time   77.7310
 BZINTS: Fermi energy:  6.618532;688.000000 electrons
         Band energy:***********;  BLOECHL correction:  0.000000
       DOS:  cpu time    0.0032: real time    0.0032
    --------------------------------------------
      LOOP:  cpu time   77.1528: real time   77.7343

 eigenvalue-minimisations  : 13824
 total energy-change (2. order) :-0.6302653E+04  (-0.6171785E+04)
 number of electron     688.0000000 magnetization       0.0000000
 augmentation part      688.0000000 magnetization       0.0000000

 Free energy of the ion-electron system (eV)
  ---------------------------------------------------
  alpha Z        PSCENC =      2363.08654526
  Ewald energy   TEWEN  =    -62561.02459930
  -Hartree energ DENC   =    -44259.04231828
  -exchange      EXHF   =         0.00000000
  -V(xc)+E(xc)   XCENC  =      3320.15626037
  PAW double counting   =     94592.23312189   -98164.79192727
  entropy T*S    EENTRO =         0.00000000
  eigenvalues    EBANDS =     -9415.60518726
  atomic energy  EATOM  =    114020.06510763
  Solvation  Ediel_sol  =         0.00000000
  ---------------------------------------------------
  free energy    TOTEN  =      -104.92299697 eV

  energy without entropy =     -104.92299697  energy(sigma->0) =     -104.92299697


--------------------------------------------------------------------------------------------------------




--------------------------------------- Iteration      1(   3)  ---------------------------------------


     EDDAV:  cpu time  112.9289: real time  113.7242
 BZINTS: Fermi energy:  6.126169;688.000000 electrons
         Band energy:***********;  BLOECHL correction:  0.000000
       DOS:  cpu time    0.0028: real time    0.0028
    --------------------------------------------
      LOOP:  cpu time  112.9317: real time  113.7270

 eigenvalue-minimisations  : 16896
 total energy-change (2. order) :-0.2670666E+03  (-0.2661241E+03)
 number of electron     688.0000000 magnetization       0.0000000
 augmentation part      688.0000000 magnetization       0.0000000

 Free energy of the ion-electron system (eV)
  ---------------------------------------------------
  alpha Z        PSCENC =      2363.08654526
  Ewald energy   TEWEN  =    -62561.02459930
  -Hartree energ DENC   =    -44259.04231828
  -exchange      EXHF   =         0.00000000
  -V(xc)+E(xc)   XCENC  =      3320.15626037
  PAW double counting   =     94592.23312189   -98164.79192727
  entropy T*S    EENTRO =         0.00000000
  eigenvalues    EBANDS =     -9682.67181497
  atomic energy  EATOM  =    114020.06510763
  Solvation  Ediel_sol  =         0.00000000
  ---------------------------------------------------
  free energy    TOTEN  =      -371.98962468 eV

  energy without entropy =     -371.98962468  energy(sigma->0) =     -371.98962468


--------------------------------------------------------------------------------------------------------




--------------------------------------- Iteration      1(   4)  ---------------------------------------


     EDDAV:  cpu time   96.7928: real time   97.4934
 BZINTS: Fermi energy:  6.100897;688.000000 electrons
         Band energy:***********;  BLOECHL correction:  0.000000
       DOS:  cpu time    0.0032: real time    0.0032
    --------------------------------------------
      LOOP:  cpu time   96.7959: real time   97.4966

 eigenvalue-minimisations  : 15104
 total energy-change (2. order) :-0.3764491E+01  (-0.3764287E+01)
 number of electron     688.0000000 magnetization       0.0000000
 augmentation part      688.0000000 magnetization       0.0000000

 Free energy of the ion-electron system (eV)
  ---------------------------------------------------
  alpha Z        PSCENC =      2363.08654526
  Ewald energy   TEWEN  =    -62561.02459930
  -Hartree energ DENC   =    -44259.04231828
  -exchange      EXHF   =         0.00000000
  -V(xc)+E(xc)   XCENC  =      3320.15626037
  PAW double counting   =     94592.23312189   -98164.79192727
  entropy T*S    EENTRO =         0.00000000
  eigenvalues    EBANDS =     -9686.43630602
  atomic energy  EATOM  =    114020.06510763
  Solvation  Ediel_sol  =         0.00000000
  ---------------------------------------------------
  free energy    TOTEN  =      -375.75411573 eV

  energy without entropy =     -375.75411573  energy(sigma->0) =     -375.75411573


--------------------------------------------------------------------------------------------------------




--------------------------------------- Iteration      1(   5)  ---------------------------------------


     EDDAV:  cpu time  107.4492: real time  108.2038
 BZINTS: Fermi energy:  6.080900;688.000000 electrons
         Band energy:***********;  BLOECHL correction:  0.000000
       DOS:  cpu time    0.0027: real time    0.0027
    CHARGE:  cpu time    1.2633: real time    1.2718
    MIXING:  cpu time    0.0048: real time    0.0049
    --------------------------------------------
      LOOP:  cpu time  108.7201: real time  109.4832

 eigenvalue-minimisations  : 15872
 total energy-change (2. order) :-0.1048046E+00  (-0.1048041E+00)
 number of electron     688.0000365 magnetization      -0.0000000
 augmentation part      260.9929841 magnetization      -0.0000000

 Broyden mixing:
  rms(total) = 0.75100E+01    rms(broyden)= 0.75099E+01
  rms(prec ) = 0.90018E+01
  weight for this iteration     100.00

 Free energy of the ion-electron system (eV)
  ---------------------------------------------------
  alpha Z        PSCENC =      2363.08654526
  Ewald energy   TEWEN  =    -62561.02459930
  -Hartree energ DENC   =    -44259.04231828
  -exchange      EXHF   =         0.00000000
  -V(xc)+E(xc)   XCENC  =      3320.15626037
  PAW double counting   =     94592.23312189   -98164.79192727
  entropy T*S    EENTRO =         0.00000000
  eigenvalues    EBANDS =     -9686.54111063
  atomic energy  EATOM  =    114020.06510763
  Solvation  Ediel_sol  =         0.00000000
  ---------------------------------------------------
  free energy    TOTEN  =      -375.85892034 eV

  energy without entropy =     -375.85892034  energy(sigma->0) =     -375.85892034


--------------------------------------------------------------------------------------------------------




--------------------------------------- Iteration      1(   6)  ---------------------------------------


    POTLOK:  cpu time    0.1199: real time    0.1226
    SETDIJ:  cpu time    0.0127: real time    0.0128
     EDDAV:  cpu time   65.5839: real time   66.0924
 BZINTS: Fermi energy:  4.329087;688.000000 electrons
         Band energy:***********;  BLOECHL correction:  0.000000
       DOS:  cpu time    0.0032: real time    0.0032
    CHARGE:  cpu time    1.3426: real time    1.3507
    MIXING:  cpu time    0.0027: real time    0.1389
    --------------------------------------------
      LOOP:  cpu time   67.0650: real time   67.7205

 eigenvalue-minimisations  : 12288
 total energy-change (2. order) : 0.4145948E+02  (-0.5918184E+02)
 number of electron     688.0000392 magnetization       0.0000000
 augmentation part      296.4581568 magnetization       0.0000000

 Broyden mixing:
  rms(total) = 0.10021E+02    rms(broyden)= 0.10021E+02
  rms(prec ) = 0.10483E+02
  weight for this iteration     100.00

 eigenvalues of (default mixing * dielectric matrix)
  average eigenvalue GAMMA=   0.1693
  0.1693

 Free energy of the ion-electron system (eV)
  ---------------------------------------------------
  alpha Z        PSCENC =      2363.08654526
  Ewald energy   TEWEN  =    -62561.02459930
  -Hartree energ DENC   =    -42298.78092027
  -exchange      EXHF   =         0.00000000
  -V(xc)+E(xc)   XCENC  =      3267.49359219
  PAW double counting   =     96405.29847920   -99764.03018341
  entropy T*S    EENTRO =         0.00000000
  eigenvalues    EBANDS =    -11766.50746547
  atomic energy  EATOM  =    114020.06510763
  Solvation  Ediel_sol  =         0.00000000
  ---------------------------------------------------
  free energy    TOTEN  =      -334.39944419 eV

  energy without entropy =     -334.39944419  energy(sigma->0) =     -334.39944419


--------------------------------------------------------------------------------------------------------




--------------------------------------- Iteration      1(   7)  ---------------------------------------


    POTLOK:  cpu time    0.1314: real time    0.1323
    SETDIJ:  cpu time    0.0147: real time    0.0148
     EDDAV:  cpu time   77.3430: real time   77.9193
 BZINTS: Fermi energy:  4.763235;688.000000 electrons
         Band energy:***********;  BLOECHL correction:  0.000000
       DOS:  cpu time    0.0032: real time    0.0032
    CHARGE:  cpu time    1.2597: real time    1.2672
    MIXING:  cpu time    0.0015: real time    0.0026
    --------------------------------------------
      LOOP:  cpu time   78.7535: real time   79.3394

 eigenvalue-minimisations  : 13312
 total energy-change (2. order) : 0.5302331E+01  (-0.1146028E+02)
 number of electron     688.0000383 magnetization      -0.0000000
 augmentation part      286.0209152 magnetization      -0.0000000

 Broyden mixing:
  rms(total) = 0.43677E+01    rms(broyden)= 0.43677E+01
  rms(prec ) = 0.44440E+01
  weight for this iteration     100.00

 eigenvalues of (default mixing * dielectric matrix)
  average eigenvalue GAMMA=   0.6167
  0.7678  0.4655

 Free energy of the ion-electron system (eV)
  ---------------------------------------------------
  alpha Z        PSCENC =      2363.08654526
  Ewald energy   TEWEN  =    -62561.02459930
  -Hartree energ DENC   =    -42787.24152507
  -exchange      EXHF   =         0.00000000
  -V(xc)+E(xc)   XCENC  =      3278.97910216
  PAW double counting   =     99830.02309987  -103346.39979683
  entropy T*S    EENTRO =         0.00000000
  eigenvalues    EBANDS =    -11126.58504708
  atomic energy  EATOM  =    114020.06510763
  Solvation  Ediel_sol  =         0.00000000
  ---------------------------------------------------
  free energy    TOTEN  =      -329.09711335 eV

  energy without entropy =     -329.09711335  energy(sigma->0) =     -329.09711335


--------------------------------------------------------------------------------------------------------




--------------------------------------- Iteration      1(   8)  ---------------------------------------


    POTLOK:  cpu time    0.1197: real time    0.1234
    SETDIJ:  cpu time    0.0127: real time    0.0128
     EDDAV:  cpu time   93.5741: real time   94.2468
 BZINTS: Fermi energy:  5.281526;688.000000 electrons
         Band energy:***********;  BLOECHL correction:  0.000000
       DOS:  cpu time    0.0032: real time    0.0032
    CHARGE:  cpu time    1.2591: real time    1.2678
    MIXING:  cpu time    0.0013: real time    0.0013
    --------------------------------------------
      LOOP:  cpu time   94.9701: real time   95.6552

 eigenvalue-minimisations  : 14848
 total energy-change (2. order) :-0.6194604E-01  (-0.3716114E+01)
 number of electron     688.0000378 magnetization      -0.0000000
 augmentation part      281.5250408 magnetization      -0.0000000

 Broyden mixing:
  rms(total) = 0.32686E+01    rms(broyden)= 0.32686E+01
  rms(prec ) = 0.35490E+01
  weight for this iteration     100.00

 eigenvalues of (default mixing * dielectric matrix)
  average eigenvalue GAMMA=   0.8678
  1.5366  0.6209  0.4458

 Free energy of the ion-electron system (eV)
  ---------------------------------------------------
  alpha Z        PSCENC =      2363.08654526
  Ewald energy   TEWEN  =    -62561.02459930
  -Hartree energ DENC   =    -43045.18202728
  -exchange      EXHF   =         0.00000000
  -V(xc)+E(xc)   XCENC  =      3291.34291801
  PAW double counting   =    105296.35714975  -108911.96134581
  entropy T*S    EENTRO =         0.00000000
  eigenvalues    EBANDS =    -10781.84280764
  atomic energy  EATOM  =    114020.06510763
  Solvation  Ediel_sol  =         0.00000000
  ---------------------------------------------------
  free energy    TOTEN  =      -329.15905939 eV

  energy without entropy =     -329.15905939  energy(sigma->0) =     -329.15905939


--------------------------------------------------------------------------------------------------------




--------------------------------------- Iteration      1(   9)  ---------------------------------------


    POTLOK:  cpu time    0.1196: real time    0.1231
    SETDIJ:  cpu time    0.0126: real time    0.0127
     EDDAV:  cpu time   95.6904: real time   96.3841
 BZINTS: Fermi energy:  4.760749;688.000000 electrons
         Band energy:***********;  BLOECHL correction:  0.000000
       DOS:  cpu time    0.0032: real time    0.0032
    CHARGE:  cpu time    1.2606: real time    1.2685
    MIXING:  cpu time    0.0015: real time    0.0027
    --------------------------------------------
      LOOP:  cpu time   97.0880: real time   97.7942

 eigenvalue-minimisations  : 15360
 total energy-change (2. order) :-0.1745989E+01  (-0.1037102E+02)
 number of electron     688.0000380 magnetization       0.0000000
 augmentation part      282.1313761 magnetization       0.0000000

 Broyden mixing:
  rms(total) = 0.23542E+01    rms(broyden)= 0.23542E+01
  rms(prec ) = 0.28022E+01
  weight for this iteration     100.00

 eigenvalues of (default mixing * dielectric matrix)
  average eigenvalue GAMMA=   0.9795
  2.3914  0.5975  0.5975  0.3317

 Free energy of the ion-electron system (eV)
  ---------------------------------------------------
  alpha Z        PSCENC =      2363.08654526
  Ewald energy   TEWEN  =    -62561.02459930
  -Hartree energ DENC   =    -42831.18582546
  -exchange      EXHF   =         0.00000000
  -V(xc)+E(xc)   XCENC  =      3284.05766436
  PAW double counting   =    109674.88413340  -113326.44647295
  entropy T*S    EENTRO =         0.00000000
  eigenvalues    EBANDS =    -10954.34160125
  atomic energy  EATOM  =    114020.06510763
  Solvation  Ediel_sol  =         0.00000000
  ---------------------------------------------------
  free energy    TOTEN  =      -330.90504832 eV

  energy without entropy =     -330.90504832  energy(sigma->0) =     -330.90504832


--------------------------------------------------------------------------------------------------------




--------------------------------------- Iteration      1(  10)  ---------------------------------------


    POTLOK:  cpu time    0.1213: real time    0.1221
    SETDIJ:  cpu time    0.0127: real time    0.0127
     EDDAV:  cpu time  108.0573: real time  108.8149
 BZINTS: Fermi energy:  4.975712;688.000000 electrons
         Band energy:***********;  BLOECHL correction:  0.000000
       DOS:  cpu time    0.0028: real time    0.0028
    CHARGE:  cpu time    1.2632: real time    1.2716
    MIXING:  cpu time    0.0014: real time    0.0014
    --------------------------------------------
      LOOP:  cpu time  109.4587: real time  110.2256

 eigenvalue-minimisations  : 16384
 total energy-change (2. order) : 0.3663146E+01  (-0.2134404E+01)
 number of electron     688.0000378 magnetization       0.0000000
 augmentation part      282.4069239 magnetization       0.0000000

 Broyden mixing:
  rms(total) = 0.27493E+00    rms(broyden)= 0.27488E+00
  rms(prec ) = 0.30415E+00
  weight for this iteration     100.00

 eigenvalues of (default mixing * dielectric matrix)
  average eigenvalue GAMMA=   0.9219
  2.3572  0.7773  0.5761  0.5761  0.3230

 Free energy of the ion-electron system (eV)
  ---------------------------------------------------
  alpha Z        PSCENC =      2363.08654526
  Ewald energy   TEWEN  =    -62561.02459930
  -Hartree energ DENC   =    -42860.86502219
  -exchange      EXHF   =         0.00000000
  -V(xc)+E(xc)   XCENC  =      3287.34329970
  PAW double counting   =    113250.11663763  -116947.23409076
  entropy T*S    EENTRO =         0.00000000
  eigenvalues    EBANDS =    -10878.72978063
  atomic energy  EATOM  =    114020.06510763
  Solvation  Ediel_sol  =         0.00000000
  ---------------------------------------------------
  free energy    TOTEN  =      -327.24190267 eV

  energy without entropy =     -327.24190267  energy(sigma->0) =     -327.24190267


--------------------------------------------------------------------------------------------------------




--------------------------------------- Iteration      1(  11)  ---------------------------------------


    POTLOK:  cpu time    0.1220: real time    0.1230
    SETDIJ:  cpu time    0.0132: real time    0.0133
     EDDAV:  cpu time  117.6915: real time  118.5137
 BZINTS: Fermi energy:  4.990003;688.000000 electrons
         Band energy:***********;  BLOECHL correction:  0.000000
       DOS:  cpu time    0.0027: real time    0.0028
    CHARGE:  cpu time    1.2648: real time    1.2733
    MIXING:  cpu time    0.0015: real time    0.0015
    --------------------------------------------
      LOOP:  cpu time  119.0957: real time  119.9275

 eigenvalue-minimisations  : 17408
 total energy-change (2. order) :-0.1205269E+00  (-0.1248731E+00)
 number of electron     688.0000377 magnetization       0.0000000
 augmentation part      282.3759003 magnetization       0.0000000

 Broyden mixing:
  rms(total) = 0.35369E+00    rms(broyden)= 0.35367E+00
  rms(prec ) = 0.38991E+00
  weight for this iteration     100.00

 eigenvalues of (default mixing * dielectric matrix)
  average eigenvalue GAMMA=   0.9033
  2.2461  0.8056  0.7283  0.7283  0.5746  0.3365

 Free energy of the ion-electron system (eV)
  ---------------------------------------------------
  alpha Z        PSCENC =      2363.08654526
  Ewald energy   TEWEN  =    -62561.02459930
  -Hartree energ DENC   =    -42879.03292856
  -exchange      EXHF   =         0.00000000
  -V(xc)+E(xc)   XCENC  =      3287.08149999
  PAW double counting   =    113037.36393473  -116734.42812093
  entropy T*S    EENTRO =         0.00000000
  eigenvalues    EBANDS =    -10860.47386842
  atomic energy  EATOM  =    114020.06510763
  Solvation  Ediel_sol  =         0.00000000
  ---------------------------------------------------
  free energy    TOTEN  =      -327.36242961 eV

  energy without entropy =     -327.36242961  energy(sigma->0) =     -327.36242961


--------------------------------------------------------------------------------------------------------




--------------------------------------- Iteration      1(  12)  ---------------------------------------


    POTLOK:  cpu time    0.1227: real time    0.1236
    SETDIJ:  cpu time    0.0126: real time    0.0126
     EDDAV:  cpu time  102.7621: real time  103.4868
 BZINTS: Fermi energy:  4.974731;688.000000 electrons
         Band energy:***********;  BLOECHL correction:  0.000000
       DOS:  cpu time    0.0027: real time    0.0028
    CHARGE:  cpu time    1.2590: real time    1.2676
    MIXING:  cpu time    0.0015: real time    0.0015
    --------------------------------------------
      LOOP:  cpu time  104.1606: real time  104.8949

 eigenvalue-minimisations  : 15616
 total energy-change (2. order) : 0.9526144E-02  (-0.4898235E-01)
 number of electron     688.0000377 magnetization      -0.0000000
 augmentation part      282.2564421 magnetization      -0.0000000

 Broyden mixing:
  rms(total) = 0.13184E+00    rms(broyden)= 0.13183E+00
  rms(prec ) = 0.14688E+00
  weight for this iteration     100.00

 eigenvalues of (default mixing * dielectric matrix)
  average eigenvalue GAMMA=   0.9428
  2.2713  1.0868  1.0868  0.6229  0.6229  0.5726  0.3362

 Free energy of the ion-electron system (eV)
  ---------------------------------------------------
  alpha Z        PSCENC =      2363.08654526
  Ewald energy   TEWEN  =    -62561.02459930
  -Hartree energ DENC   =    -42878.79625473
  -exchange      EXHF   =         0.00000000
  -V(xc)+E(xc)   XCENC  =      3286.58856583
  PAW double counting   =    112644.46886330  -116338.40448016
  entropy T*S    EENTRO =         0.00000000
  eigenvalues    EBANDS =    -10863.33665129
  atomic energy  EATOM  =    114020.06510763
  Solvation  Ediel_sol  =         0.00000000
  ---------------------------------------------------
  free energy    TOTEN  =      -327.35290347 eV

  energy without entropy =     -327.35290347  energy(sigma->0) =     -327.35290347


--------------------------------------------------------------------------------------------------------




--------------------------------------- Iteration      1(  13)  ---------------------------------------


    POTLOK:  cpu time    0.1170: real time    0.1216
    SETDIJ:  cpu time    0.0127: real time    0.0127
     EDDAV:  cpu time  109.6529: real time  110.4171
 BZINTS: Fermi energy:  4.977760;688.000000 electrons
         Band energy:***********;  BLOECHL correction:  0.000000
       DOS:  cpu time    0.0028: real time    0.0028
    CHARGE:  cpu time    1.2592: real time    1.2676
    MIXING:  cpu time    0.0015: real time    0.0016
    --------------------------------------------
      LOOP:  cpu time  111.0460: real time  111.8233

 eigenvalue-minimisations  : 16128
 total energy-change (2. order) :-0.7167583E-02  (-0.4868792E-02)
 number of electron     688.0000377 magnetization       0.0000000
 augmentation part      282.2704097 magnetization       0.0000000

 Broyden mixing:
  rms(total) = 0.90037E-01    rms(broyden)= 0.90036E-01
  rms(prec ) = 0.92452E-01
  weight for this iteration     100.00

 eigenvalues of (default mixing * dielectric matrix)
  average eigenvalue GAMMA=   1.1303
  2.5568  2.5568  0.3362  0.8440  0.8440  0.6663  0.6663  0.5725

 Free energy of the ion-electron system (eV)
  ---------------------------------------------------
  alpha Z        PSCENC =      2363.08654526
  Ewald energy   TEWEN  =    -62561.02459930
  -Hartree energ DENC   =    -42884.42726321
  -exchange      EXHF   =         0.00000000
  -V(xc)+E(xc)   XCENC  =      3286.66038634
  PAW double counting   =    112404.36471994  -116098.16388061
  entropy T*S    EENTRO =         0.00000000
  eigenvalues    EBANDS =    -10857.92108710
  atomic energy  EATOM  =    114020.06510763
  Solvation  Ediel_sol  =         0.00000000
  ---------------------------------------------------
  free energy    TOTEN  =      -327.36007105 eV

  energy without entropy =     -327.36007105  energy(sigma->0) =     -327.36007105


--------------------------------------------------------------------------------------------------------




--------------------------------------- Iteration      1(  14)  ---------------------------------------


    POTLOK:  cpu time    0.1216: real time    0.1231
    SETDIJ:  cpu time    0.0127: real time    0.0128
     EDDAV:  cpu time  126.4805: real time  127.3364
 BZINTS: Fermi energy:  4.980697;688.000000 electrons
         Band energy:***********;  BLOECHL correction:  0.000000
       DOS:  cpu time    0.0028: real time    0.0028
    CHARGE:  cpu time    1.4402: real time    1.4490
    MIXING:  cpu time    0.0018: real time    0.0018
    --------------------------------------------
      LOOP:  cpu time  128.0596: real time  128.9258

 eigenvalue-minimisations  : 17408
 total energy-change (2. order) :-0.1187325E-01  (-0.6688953E-02)
 number of electron     688.0000377 magnetization       0.0000000
 augmentation part      282.2329907 magnetization       0.0000000

 Broyden mixing:
  rms(total) = 0.42082E-01    rms(broyden)= 0.42075E-01
  rms(prec ) = 0.47454E-01
  weight for this iteration     100.00

 eigenvalues of (default mixing * dielectric matrix)
  average eigenvalue GAMMA=   1.0570
  2.3996  2.3996  0.9360  0.9360  0.3361  0.6454  0.6454  0.5643  0.6507

 Free energy of the ion-electron system (eV)
  ---------------------------------------------------
  alpha Z        PSCENC =      2363.08654526
  Ewald energy   TEWEN  =    -62561.02459930
  -Hartree energ DENC   =    -42893.07673922
  -exchange      EXHF   =         0.00000000
  -V(xc)+E(xc)   XCENC  =      3286.48398983
  PAW double counting   =    112126.16066084  -115819.30048911
  entropy T*S    EENTRO =         0.00000000
  eigenvalues    EBANDS =    -10849.76642023
  atomic energy  EATOM  =    114020.06510763
  Solvation  Ediel_sol  =         0.00000000
  ---------------------------------------------------
  free energy    TOTEN  =      -327.37194431 eV

  energy without entropy =     -327.37194431  energy(sigma->0) =     -327.37194431


--------------------------------------------------------------------------------------------------------




--------------------------------------- Iteration      1(  15)  ---------------------------------------


    POTLOK:  cpu time    0.1304: real time    0.1313
    SETDIJ:  cpu time    0.0143: real time    0.0143
     EDDAV:  cpu time   76.8771: real time   77.4419
 BZINTS: Fermi energy:  4.979593;688.000000 electrons
         Band energy:***********;  BLOECHL correction:  0.000000
       DOS:  cpu time    0.0028: real time    0.0028
    CHARGE:  cpu time    1.2679: real time    1.2766
    MIXING:  cpu time    0.0017: real time    0.0017
    --------------------------------------------
      LOOP:  cpu time   78.2941: real time   78.8686

 eigenvalue-minimisations  : 13056
 total energy-change (2. order) : 0.2604559E-03  (-0.5593454E-03)
 number of electron     688.0000377 magnetization       0.0000000
 augmentation part      282.2332515 magnetization       0.0000000

 Broyden mixing:
  rms(total) = 0.18427E-01    rms(broyden)= 0.18426E-01
  rms(prec ) = 0.19447E-01
  weight for this iteration     100.00

 eigenvalues of (default mixing * dielectric matrix)
  average eigenvalue GAMMA=   0.9973
  2.3387  2.3387  0.9401  0.9401  0.3361  0.6289  0.6289  0.5929  0.6146  0.6146

 Free energy of the ion-electron system (eV)
  ---------------------------------------------------
  alpha Z        PSCENC =      2363.08654526
  Ewald energy   TEWEN  =    -62561.02459930
  -Hartree energ DENC   =    -42891.82060258
  -exchange      EXHF   =         0.00000000
  -V(xc)+E(xc)   XCENC  =      3286.46037186
  PAW double counting   =    112212.94313338  -115906.36156570
  entropy T*S    EENTRO =         0.00000000
  eigenvalues    EBANDS =    -10850.72007439
  atomic energy  EATOM  =    114020.06510763
  Solvation  Ediel_sol  =         0.00000000
  ---------------------------------------------------
  free energy    TOTEN  =      -327.37168385 eV

  energy without entropy =     -327.37168385  energy(sigma->0) =     -327.37168385


--------------------------------------------------------------------------------------------------------




--------------------------------------- Iteration      1(  16)  ---------------------------------------


    POTLOK:  cpu time    0.1179: real time    0.1226
    SETDIJ:  cpu time    0.0127: real time    0.0128
     EDDAV:  cpu time  147.3007: real time  148.2624
 BZINTS: Fermi energy:  4.979621;688.000000 electrons
         Band energy:***********;  BLOECHL correction:  0.000000
       DOS:  cpu time    0.0027: real time    0.0028
    CHARGE:  cpu time    1.2595: real time    1.2685
    MIXING:  cpu time    0.0020: real time    0.0026
    --------------------------------------------
      LOOP:  cpu time  148.6956: real time  149.6716

 eigenvalue-minimisations  : 18432
 total energy-change (2. order) :-0.2451807E-03  (-0.5880067E-04)
 number of electron     688.0000377 magnetization       0.0000000
 augmentation part      282.2350756 magnetization       0.0000000

 Broyden mixing:
  rms(total) = 0.12916E-01    rms(broyden)= 0.12916E-01
  rms(prec ) = 0.13504E-01
  weight for this iteration     100.00

 eigenvalues of (default mixing * dielectric matrix)
  average eigenvalue GAMMA=   1.1576
  2.5610  2.2300  2.2300  1.1640  0.3361  0.8364  0.8364  0.6679  0.6679  0.5684
  0.6356

 Free energy of the ion-electron system (eV)
  ---------------------------------------------------
  alpha Z        PSCENC =      2363.08654526
  Ewald energy   TEWEN  =    -62561.02459930
  -Hartree energ DENC   =    -42892.03892741
  -exchange      EXHF   =         0.00000000
  -V(xc)+E(xc)   XCENC  =      3286.47779725
  PAW double counting   =    112224.48810078  -115917.84002004
  entropy T*S    EENTRO =         0.00000000
  eigenvalues    EBANDS =    -10850.58593320
  atomic energy  EATOM  =    114020.06510763
  Solvation  Ediel_sol  =         0.00000000
  ---------------------------------------------------
  free energy    TOTEN  =      -327.37192903 eV

  energy without entropy =     -327.37192903  energy(sigma->0) =     -327.37192903


--------------------------------------------------------------------------------------------------------




--------------------------------------- Iteration      1(  17)  ---------------------------------------


    POTLOK:  cpu time    0.1210: real time    0.1217
    SETDIJ:  cpu time    0.0128: real time    0.0128
     EDDAV:  cpu time   89.0625: real time   89.7010
 BZINTS: Fermi energy:  4.980306;688.000000 electrons
         Band energy:***********;  BLOECHL correction:  0.000000
       DOS:  cpu time    0.0027: real time    0.0028
    CHARGE:  cpu time    1.2612: real time    1.2695
    MIXING:  cpu time    0.0018: real time    0.0018
    --------------------------------------------
      LOOP:  cpu time   90.4620: real time   91.1096

 eigenvalue-minimisations  : 14336
 total energy-change (2. order) :-0.7158337E-03  (-0.3586944E-03)
 number of electron     688.0000377 magnetization       0.0000000
 augmentation part      282.2259297 magnetization       0.0000000

 Broyden mixing:
  rms(total) = 0.81660E-02    rms(broyden)= 0.81646E-02
  rms(prec ) = 0.85941E-02
  weight for this iteration     100.00

 eigenvalues of (default mixing * dielectric matrix)
  average eigenvalue GAMMA=   1.1692
  3.3952  2.1346  1.8708  1.2832  0.9236  0.9236  0.3361  0.6531  0.6531  0.5791
  0.6387  0.6387

 Free energy of the ion-electron system (eV)
  ---------------------------------------------------
  alpha Z        PSCENC =      2363.08654526
  Ewald energy   TEWEN  =    -62561.02459930
  -Hartree energ DENC   =    -42893.85558628
  -exchange      EXHF   =         0.00000000
  -V(xc)+E(xc)   XCENC  =      3286.52683160
  PAW double counting   =    112222.27222163  -115915.41251036
  entropy T*S    EENTRO =         0.00000000
  eigenvalues    EBANDS =    -10849.03065504
  atomic energy  EATOM  =    114020.06510763
  Solvation  Ediel_sol  =         0.00000000
  ---------------------------------------------------
  free energy    TOTEN  =      -327.37264487 eV

  energy without entropy =     -327.37264487  energy(sigma->0) =     -327.37264487


--------------------------------------------------------------------------------------------------------




--------------------------------------- Iteration      1(  18)  ---------------------------------------


    POTLOK:  cpu time    0.1216: real time    0.1224
    SETDIJ:  cpu time    0.0126: real time    0.0126
     EDDAV:  cpu time   98.9933: real time   99.6809
 BZINTS: Fermi energy:  4.980206;688.000000 electrons
         Band energy:***********;  BLOECHL correction:  0.000000
       DOS:  cpu time    0.0028: real time    0.0028
    CHARGE:  cpu time    1.2616: real time    1.2703
    MIXING:  cpu time    0.0019: real time    0.0019
    --------------------------------------------
      LOOP:  cpu time  100.3937: real time  101.0908

 eigenvalue-minimisations  : 14848
 total energy-change (2. order) :-0.7209186E-04  (-0.2365564E-04)
 number of electron     688.0000377 magnetization       0.0000000
 augmentation part      282.2328968 magnetization       0.0000000

 Broyden mixing:
  rms(total) = 0.54184E-02    rms(broyden)= 0.54182E-02
  rms(prec ) = 0.63754E-02
  weight for this iteration     100.00

 eigenvalues of (default mixing * dielectric matrix)
  average eigenvalue GAMMA=   1.1497
  3.5355  2.0926  2.0926  1.0567  1.0567  0.3361  0.7453  0.7453  0.8033  0.6595
  0.6595  0.5814  0.5814

 Free energy of the ion-electron system (eV)
  ---------------------------------------------------
  alpha Z        PSCENC =      2363.08654526
  Ewald energy   TEWEN  =    -62561.02459930
  -Hartree energ DENC   =    -42893.68741293
  -exchange      EXHF   =         0.00000000
  -V(xc)+E(xc)   XCENC  =      3286.53287403
  PAW double counting   =    112226.91304375  -115920.02805047
  entropy T*S    EENTRO =         0.00000000
  eigenvalues    EBANDS =    -10849.23022492
  atomic energy  EATOM  =    114020.06510763
  Solvation  Ediel_sol  =         0.00000000
  ---------------------------------------------------
  free energy    TOTEN  =      -327.37271696 eV

  energy without entropy =     -327.37271696  energy(sigma->0) =     -327.37271696


--------------------------------------------------------------------------------------------------------




--------------------------------------- Iteration      1(  19)  ---------------------------------------


    POTLOK:  cpu time    0.1213: real time    0.1221
    SETDIJ:  cpu time    0.0126: real time    0.0127
     EDDAV:  cpu time  138.8881: real time  139.8028
 BZINTS: Fermi energy:  4.980046;688.000000 electrons
         Band energy:***********;  BLOECHL correction:  0.000000
       DOS:  cpu time    0.0028: real time    0.0028
    CHARGE:  cpu time    1.2610: real time    1.2694
    MIXING:  cpu time    0.0020: real time    0.0020
    --------------------------------------------
      LOOP:  cpu time  140.2878: real time  141.2118

 eigenvalue-minimisations  : 17920
 total energy-change (2. order) :-0.3475448E-05  (-0.6612995E-05)
 number of electron     688.0000377 magnetization       0.0000000
 augmentation part      282.2333699 magnetization       0.0000000

 Broyden mixing:
  rms(total) = 0.33152E-02    rms(broyden)= 0.33151E-02
  rms(prec ) = 0.36760E-02
  weight for this iteration     100.00

 eigenvalues of (default mixing * dielectric matrix)
  average eigenvalue GAMMA=   1.2107
  3.6440  2.3207  2.3207  1.2625  1.2625  0.9738  0.9738  0.3361  0.6633  0.6633
[...]
   -.418E+02 0.791E+00 0.260E+02   0.427E+02 -.766E+00 -.262E+02   -.852E+00 -.230E-01 0.239E+00   -.976E-04 -.641E-05 -.862E-05
   -.418E+02 0.791E+00 0.260E+02   0.427E+02 -.766E+00 -.262E+02   -.852E+00 -.230E-01 0.239E+00   -.976E-04 -.641E-05 -.862E-05
   -.418E+02 0.791E+00 0.260E+02   0.427E+02 -.766E+00 -.262E+02   -.852E+00 -.230E-01 0.239E+00   -.976E-04 -.641E-05 -.862E-05
   -.418E+02 0.791E+00 0.260E+02   0.427E+02 -.766E+00 -.262E+02   -.852E+00 -.230E-01 0.239E+00   -.976E-04 -.641E-05 -.862E-05
   0.418E+02 -.791E+00 0.260E+02   -.427E+02 0.766E+00 -.262E+02   0.852E+00 0.230E-01 0.239E+00   0.976E-04 0.641E-05 -.862E-05
   0.418E+02 -.791E+00 0.260E+02   -.427E+02 0.766E+00 -.262E+02   0.852E+00 0.230E-01 0.239E+00   0.976E-04 0.641E-05 -.862E-05
   0.418E+02 -.791E+00 0.260E+02   -.427E+02 0.766E+00 -.262E+02   0.852E+00 0.230E-01 0.239E+00   0.976E-04 0.641E-05 -.862E-05
   0.418E+02 -.791E+00 0.260E+02   -.427E+02 0.766E+00 -.262E+02   0.852E+00 0.230E-01 0.239E+00   0.976E-04 0.641E-05 -.862E-05
   0.791E+00 -.418E+02 0.260E+02   -.766E+00 0.427E+02 -.262E+02   -.230E-01 -.852E+00 0.239E+00   -.641E-05 -.976E-04 -.862E-05
   0.791E+00 -.418E+02 0.260E+02   -.766E+00 0.427E+02 -.262E+02   -.230E-01 -.852E+00 0.239E+00   -.641E-05 -.976E-04 -.862E-05
   0.791E+00 -.418E+02 0.260E+02   -.766E+00 0.427E+02 -.262E+02   -.230E-01 -.852E+00 0.239E+00   -.641E-05 -.976E-04 -.862E-05
   0.791E+00 -.418E+02 0.260E+02   -.766E+00 0.427E+02 -.262E+02   -.230E-01 -.852E+00 0.239E+00   -.641E-05 -.976E-04 -.862E-05
   -.791E+00 0.418E+02 0.260E+02   0.766E+00 -.427E+02 -.262E+02   0.230E-01 0.852E+00 0.239E+00   0.641E-05 0.976E-04 -.862E-05
   -.791E+00 0.418E+02 0.260E+02   0.766E+00 -.427E+02 -.262E+02   0.230E-01 0.852E+00 0.239E+00   0.641E-05 0.976E-04 -.862E-05
   -.791E+00 0.418E+02 0.260E+02   0.766E+00 -.427E+02 -.262E+02   0.230E-01 0.852E+00 0.239E+00   0.641E-05 0.976E-04 -.862E-05
   -.791E+00 0.418E+02 0.260E+02   0.766E+00 -.427E+02 -.262E+02   0.230E-01 0.852E+00 0.239E+00   0.641E-05 0.976E-04 -.862E-05
   -.107E-06 -.795E-07 -.305E+02   0.294E-12 0.782E-13 0.293E+02   -.380E-25 0.129E-25 0.124E+01   -.172E-12 0.297E-12 0.852E-04
   -.107E-06 -.795E-07 -.305E+02   0.237E-12 0.853E-13 0.293E+02   -.137E-25 -.194E-25 0.124E+01   -.211E-12 0.257E-12 0.852E-04
   -.107E-06 -.795E-07 -.305E+02   0.294E-12 0.568E-13 0.293E+02   0.485E-26 -.129E-25 0.124E+01   -.274E-14 0.249E-12 0.852E-04
   -.107E-06 -.795E-07 -.305E+02   0.294E-12 0.568E-13 0.293E+02   -.549E-25 -.258E-25 0.124E+01   -.373E-12 0.273E-12 0.852E-04
   -.795E-07 -.107E-06 -.305E+02   0.284E-13 -.284E-13 0.293E+02   -.428E-25 -.388E-25 0.124E+01   -.291E-12 0.457E-13 0.852E-04
   -.795E-07 -.107E-06 -.305E+02   0.568E-13 0.853E-13 0.293E+02   0.844E-25 -.969E-25 0.124E+01   -.123E-12 0.205E-12 0.852E-04
   -.795E-07 -.107E-06 -.305E+02   0.284E-13 0.568E-13 0.293E+02   0.372E-25 -.258E-25 0.124E+01   -.232E-12 0.274E-12 0.852E-04
   -.795E-07 -.107E-06 -.305E+02   0.284E-13 0.000E+00 0.293E+02   -.105E-25 -.129E-25 0.124E+01   -.226E-12 0.803E-13 0.852E-04
   -.107E-06 -.795E-07 -.305E+02   0.256E-12 -.524E-13 0.293E+02   -.687E-25 -.258E-25 0.124E+01   -.263E-12 0.200E-12 0.852E-04
   -.107E-06 -.796E-07 -.305E+02   0.284E-12 -.524E-13 0.293E+02   -.741E-25 0.388E-25 0.124E+01   -.943E-13 0.114E-12 0.852E-04
   -.107E-06 -.795E-07 -.305E+02   0.227E-12 -.284E-13 0.293E+02   0.460E-25 -.258E-25 0.124E+01   -.274E-12 0.219E-12 0.852E-04
   -.107E-06 -.795E-07 -.305E+02   0.227E-12 -.782E-13 0.293E+02   -.798E-25 0.323E-25 0.124E+01   -.212E-12 0.444E-12 0.852E-04
   -.795E-07 -.107E-06 -.305E+02   0.338E-13 -.103E-12 0.293E+02   -.751E-25 -.646E-25 0.124E+01   -.234E-12 -.755E-13 0.852E-04
   -.795E-07 -.107E-06 -.305E+02   0.364E-13 -.460E-13 0.293E+02   0.732E-25 0.258E-25 0.124E+01   -.183E-12 0.949E-14 0.852E-04
   -.795E-07 -.107E-06 -.305E+02   0.337E-13 -.129E-12 0.293E+02   -.238E-25 0.517E-25 0.124E+01   -.281E-13 0.317E-12 0.852E-04
   -.795E-07 -.107E-06 -.305E+02   0.363E-13 -.129E-12 0.293E+02   0.485E-26 -.517E-25 0.124E+01   -.233E-12 0.219E-12 0.852E-04
   -.183E-07 0.396E-07 -.246E+02   -.355E-14 0.142E-13 0.232E+02   0.598E-25 0.517E-25 0.145E+01   -.236E-12 0.302E-12 0.359E-04
   -.183E-07 0.396E-07 -.246E+02   -.178E-13 0.711E-13 0.232E+02   0.620E-25 -.485E-25 0.145E+01   -.180E-12 0.260E-12 0.359E-04
   -.183E-07 0.396E-07 -.246E+02   0.000E+00 0.249E-13 0.232E+02   0.129E-24 0.517E-25 0.145E+01   -.719E-13 0.491E-14 0.359E-04
   -.183E-07 0.396E-07 -.246E+02   -.142E-13 0.284E-13 0.232E+02   0.298E-26 0.102E-24 0.145E+01   -.278E-12 0.211E-13 0.359E-04
   0.396E-07 -.183E-07 -.246E+02   -.103E-12 -.355E-13 0.232E+02   -.464E-25 0.452E-25 0.145E+01   -.314E-12 0.295E-12 0.359E-04
   0.396E-07 -.183E-07 -.246E+02   -.121E-12 0.497E-13 0.232E+02   0.335E-25 -.517E-25 0.145E+01   -.465E-13 0.424E-12 0.359E-04
   0.396E-07 -.182E-07 -.246E+02   -.107E-12 -.320E-13 0.232E+02   -.323E-26 0.194E-25 0.145E+01   -.303E-12 0.145E-12 0.359E-04
   0.396E-07 -.183E-07 -.246E+02   -.959E-13 0.355E-14 0.232E+02   -.210E-25 0.388E-25 0.145E+01   -.156E-12 0.101E-13 0.359E-04
   -.183E-07 0.396E-07 -.246E+02   0.391E-13 -.195E-13 0.232E+02   0.945E-25 0.792E-25 0.145E+01   -.309E-12 0.986E-13 0.359E-04
   -.183E-07 0.396E-07 -.246E+02   0.533E-13 0.941E-13 0.232E+02   -.121E-25 0.517E-25 0.145E+01   -.594E-13 -.319E-13 0.359E-04
   -.183E-07 0.396E-07 -.246E+02   0.000E+00 0.728E-13 0.232E+02   -.606E-26 0.155E-24 0.145E+01   -.286E-12 0.194E-12 0.359E-04
   -.183E-07 0.396E-07 -.246E+02   0.142E-13 0.124E-13 0.232E+02   0.590E-25 -.517E-25 0.145E+01   -.132E-12 0.322E-12 0.359E-04
   0.396E-07 -.183E-07 -.246E+02   -.586E-13 0.227E-13 0.232E+02   0.254E-25 0.388E-25 0.145E+01   -.173E-12 0.103E-12 0.359E-04
   0.396E-07 -.183E-07 -.246E+02   -.469E-13 0.232E-13 0.232E+02   0.642E-25 0.194E-25 0.145E+01   -.215E-12 0.171E-12 0.359E-04
   0.396E-07 -.183E-07 -.246E+02   -.772E-13 0.868E-14 0.232E+02   0.937E-25 0.103E-24 0.145E+01   -.141E-13 0.368E-12 0.359E-04
   0.396E-07 -.183E-07 -.246E+02   -.372E-13 0.305E-13 0.232E+02   0.315E-25 0.517E-25 0.145E+01   -.280E-12 0.283E-12 0.359E-04
 -----------------------------------------------------------------------------------------------
   -.105E-05 -.105E-05 -.506E+02   0.216E-13 0.327E-12 -.398E-12   0.219E-15 0.122E-14 0.507E+02   -.525E-11 0.559E-11 0.166E-02
 
 
 POSITION                                       TOTAL-FORCE (eV/Angst)
 -----------------------------------------------------------------------------------
      1.37857      1.37258      1.25635         0.003625     -0.001650     -0.012957
      6.62693      1.59255      1.25635         0.003625     -0.001650     -0.012957
      1.59853      6.62095      1.25635         0.003625     -0.001650     -0.012957
      6.84690      6.84091      1.25635         0.003625     -0.001650     -0.012957
      4.08976      4.09575      1.25635        -0.003625      0.001650     -0.012957
      9.33813      4.31571      1.25635        -0.003625      0.001650     -0.012957
      4.30973      9.34411      1.25635        -0.003625      0.001650     -0.012957
      9.55809      9.56408      1.25635        -0.003625      0.001650     -0.012957
      1.47156      3.97978      9.07967         0.001650     -0.003625     -0.012957
      6.71993      4.19975      9.07967         0.001650     -0.003625     -0.012957
      1.69153      9.22814      9.07967         0.001650     -0.003625     -0.012957
      6.93989      9.44811      9.07967         0.001650     -0.003625     -0.012957
      3.99676      1.48855      9.07967        -0.001650      0.003625     -0.012957
      9.24513      1.70851      9.07967        -0.001650      0.003625     -0.012957
      4.21673      6.73691      9.07967        -0.001650      0.003625     -0.012957
      9.46509      6.95688      9.07967        -0.001650      0.003625     -0.012957
      1.35560      1.36158      6.47190        -0.003625      0.001650     -0.012957
      6.60396      1.58155      6.47190        -0.003625      0.001650     -0.012957
      1.57556      6.60995      6.47190        -0.003625      0.001650     -0.012957
      6.82393      6.82991      6.47190        -0.003625      0.001650     -0.012957
      4.11273      4.10675      6.47190         0.003625     -0.001650     -0.012957
      9.36109      4.32671      6.47190         0.003625     -0.001650     -0.012957
      4.33270      9.35511      6.47190         0.003625     -0.001650     -0.012957
      9.58106      9.57508      6.47190         0.003625     -0.001650     -0.012957
      3.98576      1.46558      3.86412         0.001650     -0.003625     -0.012957
      9.23413      1.68555      3.86412         0.001650     -0.003625     -0.012957
      4.20573      6.71394      3.86412         0.001650     -0.003625     -0.012957
      9.45409      6.93391      3.86412         0.001650     -0.003625     -0.012957
      1.48257      4.00275      3.86412        -0.001650      0.003625     -0.012957
      6.73093      4.22271      3.86412        -0.001650      0.003625     -0.012957
      1.70253      9.25111      3.86412        -0.001650      0.003625     -0.012957
      6.95089      9.47108      3.86412        -0.001650      0.003625     -0.012957
      0.00000      0.00000      5.25658         0.000000      0.000000      0.010736
      5.24836      0.21997      5.25658         0.000000      0.000000      0.010736
      0.21997      5.24836      5.25658         0.000000      0.000000      0.010736
      5.46833      5.46833      5.25658         0.000000      0.000000      0.010736
      2.62418      0.10998      2.64881         0.000000      0.000000      0.010736
      7.87255      0.32995      2.64881         0.000000      0.000000      0.010736
      2.84415      5.35835      2.64881         0.000000      0.000000      0.010736
      8.09251      5.57831      2.64881         0.000000      0.000000      0.010736
      2.73416      2.73416      0.04104         0.000000      0.000000      0.010736
      7.98253      2.95413      0.04104         0.000000      0.000000      0.010736
      2.95413      7.98253      0.04104         0.000000      0.000000      0.010736
      8.20249      8.20249      0.04104         0.000000      0.000000      0.010736
      0.10998      2.62418      7.86435         0.000000      0.000000      0.010736
      5.35835      2.84415      7.86435         0.000000      0.000000      0.010736
      0.32995      7.87255      7.86435         0.000000      0.000000      0.010736
      5.57831      8.09251      7.86435         0.000000      0.000000      0.010736
      0.00000      0.00000      0.05402         0.000000      0.000000      0.015177
      5.24836      0.21997      0.05402         0.000000      0.000000      0.015177
      0.21997      5.24836      0.05402         0.000000      0.000000      0.015177
      5.46833      5.46833      0.05402         0.000000      0.000000      0.015177
      2.62418      0.10998      7.87734         0.000000      0.000000      0.015177
      7.87255      0.32995      7.87734         0.000000      0.000000      0.015177
      2.84415      5.35835      7.87734         0.000000      0.000000      0.015177
      8.09251      5.57831      7.87734         0.000000      0.000000      0.015177
      2.73416      2.73416      5.26957         0.000000      0.000000      0.015177
      7.98253      2.95413      5.26957         0.000000      0.000000      0.015177
      2.95413      7.98253      5.26957         0.000000      0.000000      0.015177
      8.20249      8.20249      5.26957         0.000000      0.000000      0.015177
      0.10998      2.62418      2.66180         0.000000      0.000000      0.015177
      5.35835      2.84415      2.66180         0.000000      0.000000      0.015177
      0.32995      7.87255      2.66180         0.000000      0.000000      0.015177
      5.57831      8.09251      2.66180         0.000000      0.000000      0.015177
 -----------------------------------------------------------------------------------
    total drift:                               -0.000001     -0.000001      0.032226


--------------------------------------------------------------------------------------------------------



  FREE ENERGIE OF THE ION-ELECTRON SYSTEM (eV)
  ---------------------------------------------------
  free  energy   TOTEN  =      -327.37272842 eV

  energy  without entropy=     -327.37272842  energy(sigma->0) =     -327.37272842
 


--------------------------------------------------------------------------------------------------------


    POTLOK:  cpu time    0.1308: real time    0.1315


--------------------------------------------------------------------------------------------------------


 writing wavefunctions
     LOOP+:  cpu time 2793.1675: real time 2814.8565
    4ORBIT:  cpu time    0.0000: real time    0.0000
 


 total charge     
 
# of ion       s       p       d       tot
------------------------------------------
    1        1.314   2.408   0.000   3.722
    2        1.314   2.408   0.000   3.722
    3        1.314   2.408   0.000   3.722
    4        1.314   2.408   0.000   3.722
    5        1.314   2.408   0.000   3.722
    6        1.314   2.408   0.000   3.722
    7        1.314   2.408   0.000   3.722
    8        1.314   2.408   0.000   3.722
    9        1.314   2.408   0.000   3.723
   10        1.314   2.408   0.000   3.723
   11        1.314   2.408   0.000   3.723
   12        1.314   2.408   0.000   3.723
   13        1.314   2.408   0.000   3.723
   14        1.314   2.408   0.000   3.723
   15        1.314   2.408   0.000   3.723
   16        1.314   2.408   0.000   3.723
   17        1.314   2.408   0.000   3.722
   18        1.314   2.408   0.000   3.722
   19        1.314   2.408   0.000   3.722
   20        1.314   2.408   0.000   3.722
   21        1.314   2.408   0.000   3.722
   22        1.314   2.408   0.000   3.722
   23        1.314   2.408   0.000   3.722
   24        1.314   2.408   0.000   3.722
   25        1.314   2.408   0.000   3.723
   26        1.314   2.408   0.000   3.723
   27        1.314   2.408   0.000   3.723
   28        1.314   2.408   0.000   3.723
   29        1.314   2.408   0.000   3.723
   30        1.314   2.408   0.000   3.723
   31        1.314   2.408   0.000   3.723
   32        1.314   2.408   0.000   3.723
   33        0.259   6.202   8.916  15.377
   34        0.259   6.202   8.916  15.377
   35        0.259   6.202   8.916  15.377
   36        0.259   6.202   8.916  15.377
   37        0.259   6.202   8.917  15.377
   38        0.259   6.202   8.917  15.377
   39        0.259   6.202   8.917  15.377
   40        0.259   6.202   8.917  15.377
   41        0.259   6.202   8.916  15.377
   42        0.259   6.202   8.916  15.377
   43        0.259   6.202   8.916  15.377
   44        0.259   6.202   8.916  15.377
   45        0.259   6.202   8.917  15.377
   46        0.259   6.202   8.917  15.377
   47        0.259   6.202   8.917  15.377
   48        0.259   6.202   8.917  15.377
   49        0.349   6.348   5.822  12.519
   50        0.349   6.348   5.822  12.519
   51        0.349   6.348   5.822  12.519
   52        0.349   6.348   5.822  12.519
   53        0.349   6.348   5.822  12.519
   54        0.349   6.348   5.822  12.519
   55        0.349   6.348   5.822  12.519
   56        0.349   6.348   5.822  12.519
   57        0.349   6.348   5.822  12.519
   58        0.349   6.348   5.822  12.519
   59        0.349   6.348   5.822  12.519
   60        0.349   6.348   5.822  12.519
   61        0.349   6.348   5.822  12.519
   62        0.349   6.348   5.822  12.519
   63        0.349   6.348   5.822  12.519
   64        0.349   6.348   5.822  12.519
--------------------------------------------------
tot         51.776 277.867 235.810 565.453
 


 magnetization (x)
 
# of ion       s       p       d       tot
------------------------------------------
    1       -0.001  -0.020   0.000  -0.021
    2       -0.001  -0.020   0.000  -0.021
    3       -0.001  -0.020   0.000  -0.021
    4       -0.001  -0.020   0.000  -0.021
    5       -0.001  -0.020   0.000  -0.021
    6       -0.001  -0.020   0.000  -0.021
    7       -0.001  -0.020   0.000  -0.021
    8       -0.001  -0.020   0.000  -0.021
    9        0.001   0.020   0.000   0.021
   10        0.001   0.020   0.000   0.021
   11        0.001   0.020   0.000   0.021
   12        0.001   0.020   0.000   0.021
   13        0.001   0.020   0.000   0.021
   14        0.001   0.020   0.000   0.021
   15        0.001   0.020   0.000   0.021
   16        0.001   0.020   0.000   0.021
   17       -0.001  -0.020   0.000  -0.021
   18       -0.001  -0.020   0.000  -0.021
   19       -0.001  -0.020   0.000  -0.021
   20       -0.001  -0.020   0.000  -0.021
   21       -0.001  -0.020   0.000  -0.021
   22       -0.001  -0.020   0.000  -0.021
   23       -0.001  -0.020   0.000  -0.021
   24       -0.001  -0.020   0.000  -0.021
   25        0.001   0.020   0.000   0.021
   26        0.001   0.020   0.000   0.021
   27        0.001   0.020   0.000   0.021
   28        0.001   0.020   0.000   0.021
   29        0.001   0.020   0.000   0.021
   30        0.001   0.020   0.000   0.021
   31        0.001   0.020   0.000   0.021
   32        0.001   0.020   0.000   0.021
   33        0.000  -0.000   0.002   0.002
   34        0.000  -0.000   0.002   0.002
   35        0.000  -0.000   0.002   0.002
   36        0.000  -0.000   0.002   0.002
   37       -0.000   0.000  -0.002  -0.002
   38       -0.000   0.000  -0.002  -0.002
   39       -0.000   0.000  -0.002  -0.002
   40       -0.000   0.000  -0.002  -0.002
   41        0.000  -0.000   0.002   0.002
   42        0.000  -0.000   0.002   0.002
   43        0.000  -0.000   0.002   0.002
   44        0.000  -0.000   0.002   0.002
   45       -0.000   0.000  -0.002  -0.002
   46       -0.000   0.000  -0.002  -0.002
   47       -0.000   0.000  -0.002  -0.002
   48       -0.000   0.000  -0.002  -0.002
   49        0.020   0.053   3.669   3.742
   50        0.020   0.053   3.669   3.742
   51        0.020   0.053   3.669   3.742
   52        0.020   0.053   3.669   3.742
   53       -0.020  -0.053  -3.668  -3.741
   54       -0.020  -0.053  -3.668  -3.741
   55       -0.020  -0.053  -3.668  -3.741
   56       -0.020  -0.053  -3.668  -3.741
   57        0.020   0.053   3.669   3.742
   58        0.020   0.053   3.669   3.742
   59        0.020   0.053   3.669   3.742
   60        0.020   0.053   3.669   3.742
   61       -0.020  -0.053  -3.668  -3.741
   62       -0.020  -0.053  -3.668  -3.741
   63       -0.020  -0.053  -3.668  -3.741
   64       -0.020  -0.053  -3.668  -3.741
--------------------------------------------------
tot         -0.002   0.002  -0.001  -0.001
 
 BZINTS: Fermi energy:  4.979756;688.000000 electrons
         Band energy:***********;  BLOECHL correction:  0.000000

 total amount of memory used by VASP MPI-rank0   300225. kBytes
=======================================================================

   base      :      30000. kBytes
   nonl-proj :     174956. kBytes
   fftplans  :       4588. kBytes
   grid      :      69719. kBytes
   one-center:       1990. kBytes
   wavefun   :      18972. kBytes
 
  
  
 General timing and accounting informations for this job:
 ========================================================
  
                  Total CPU time used (sec):     2838.295
                            User time (sec):     2828.230
                          System time (sec):       10.065
                         Elapsed time (sec):     2866.029
  
                   Maximum memory used (kb):      661136.
                   Average memory used (kb):           0.
  
                          Minor page faults:       508478
                          Major page faults:         5676
                 Voluntary context switches:         7132
