       N       E                     dE             d eps       ncg     rms          rms(c)
DAV:   1    -0.305224455692E+03   -0.30522E+03   -0.13192E+03 18944   0.200E+02    0.308E+01
DAV:   2    -0.327547624578E+03   -0.22323E+02   -0.22354E+02 12288   0.224E+01    0.126E+01
DAV:   3    -0.327833029015E+03   -0.28540E+00   -0.34738E+00 19968   0.343E+00    0.920E+00
DAV:   4    -0.327832304883E+03    0.72413E-03   -0.12870E-01 13056   0.100E+00    0.794E+00
DAV:   5    -0.327832160621E+03    0.14426E-03   -0.11185E-02 16896   0.313E-01    0.691E+00
DAV:   6    -0.327831933957E+03    0.22666E-03   -0.54699E-04 15360   0.616E-02    0.638E+00
DAV:   7    -0.327831190376E+03    0.74358E-03   -0.54110E-04 17152   0.722E-02    0.488E+00
DAV:   8    -0.327830776074E+03    0.41430E-03   -0.40702E-04 12800   0.579E-02    0.306E+00
DAV:   9    -0.327830645360E+03    0.13071E-03   -0.86771E-05 17408   0.231E-02    0.238E+00
DAV:  10    -0.327830494459E+03    0.15090E-03   -0.19812E-04 14336   0.365E-02    0.111E+00
DAV:  11    -0.327830471982E+03    0.22476E-04   -0.23383E-05 16896   0.113E-02    0.677E-01
DAV:  12    -0.327830457723E+03    0.14259E-04   -0.10626E-05 15360   0.666E-03    0.301E-01
DAV:  13    -0.327830451340E+03    0.63829E-05   -0.62065E-06 17408   0.714E-03    0.745E-02
DAV:  14    -0.327830450168E+03    0.11727E-05   -0.12640E-06 15872   0.240E-03    0.977E-03
DAV:  15    -0.327830449983E+03    0.18493E-06   -0.12008E-07 17408   0.447E-04    0.306E-03
DAV:  16    -0.327830449986E+03   -0.34779E-08   -0.14341E-08  8192   0.228E-04
   1 F= -.32783045E+03 E0= -.32783045E+03  d E =0.000000E+00  mag=     0.0000
