 vasp.5.4.4.18Apr17-6-g9f103f2a35 (build Oct 30 2023 17:49:44) complex          
  
 executed on             LinuxIFC date 2024.12.05  21:43:11
 running on  256 total cores
 distrk:  each k-point on  256 cores,    1 groups
 distr:  one band on NCORES_PER_BAND=   1 cores,  256 groups


--------------------------------------------------------------------------------------------------------


 INCAR:
 POTCAR:    PAW_PBE S 06Sep2000                   
 POTCAR:     PAW_PBE Cu_pv 06Sep2000              
 POTCAR:     PAW_PBE Fe_pv 02Aug2007              

 ----------------------------------------------------------------------------- 
|                                                                             |
|           W    W    AA    RRRRR   N    N  II  N    N   GGGG   !!!           |
|           W    W   A  A   R    R  NN   N  II  NN   N  G    G  !!!           |
|           W    W  A    A  R    R  N N  N  II  N N  N  G       !!!           |
|           W WW W  AAAAAA  RRRRR   N  N N  II  N  N N  G  GGG   !            |
|           WW  WW  A    A  R   R   N   NN  II  N   NN  G    G                |
|           W    W  A    A  R    R  N    N  II  N    N   GGGG   !!!           |
|                                                                             |
|      For optimal performance we recommend to set                            |
|        NCORE= 4 - approx SQRT( number of cores)                             |
|      NCORE specifies how many cores store one orbital (NPAR=cpu/NCORE).     |
|      This setting can  greatly improve the performance of VASP for DFT.     |
|      The default,   NCORE=1            might be grossly inefficient         |
|      on modern multi-core architectures or massively parallel machines.     |
|      Do your own testing !!!!                                               |
|      Unfortunately you need to use the default for GW and RPA calculations. |
|      (for HF NCORE is supported but not extensively tested yet)             |
|                                                                             |
 ----------------------------------------------------------------------------- 

 POTCAR:    PAW_PBE S 06Sep2000                   
   SHA256 =  0fc7481fb0695f01bdc6462160264c5c84044ae9ec85a907d398b887a2bc3132 S/
   COPYR  = (c) Copyright 06Sep2000 Georg Kresse                                
   COPYR  = This file is part of the software VASP. Any use, copying, and all ot
   COPYR  = If you do not have a valid VASP license, you may not use, copy or di
   VRHFIN =S : s2p4                                                             
   LEXCH  = PE                                                                  
   EATOM  =   276.8230 eV,   20.3459 Ry                                         
                                                                                
   TITEL  = PAW_PBE S 06Sep2000                                                 
   LULTRA =        F    use ultrasoft PP ?                                      
   IUNSCR =        1    unscreen: 0-lin 1-nonlin 2-no                           
   RPACOR =    1.500    partial core radius                                     
   POMASS =   32.066; ZVAL   =    6.000    mass and valenz                      
   RCORE  =    1.900    outmost cutoff radius                                   
   RWIGS  =    2.200; RWIGS  =    1.164    wigner-seitz radius (au A)           
   ENMAX  =  258.689; ENMIN  =  194.016 eV                                      
   ICORE  =        2    local potential                                         
   LCOR   =        T    correct aug charges                                     
   LPAW   =        T    paw PP                                                  
   EAUG   =  335.092                                                            
   DEXC   =    0.000                                                            
   RMAX   =    1.942    core radius for proj-oper                               
   RAUG   =    1.300    factor for augmentation sphere                          
   RDEP   =    1.954    radius for radial grids                                 
   RDEPT  =    1.744    core radius for aug-charge                              
                                                                                
   Atomic configuration                                                         
    6 entries                                                                   
     n  l   j            E        occ.                                          
     1  0  0.50     -2405.8406   2.0000                                         
     2  0  0.50      -211.7007   2.0000                                         
     2  1  1.50      -156.4958   6.0000                                         
     3  0  0.50       -17.2562   2.0000                                         
     3  1  0.50        -7.0085   4.0000                                         
     3  2  1.50        -6.8029   0.0000                                         
   Description                                                                  
     l       E           TYP  RCUT    TYP  RCUT                                 
     0    -17.2561641     23  1.900                                             
     0    -15.8743224     23  1.900                                             
     1     -7.0085400     23  1.900                                             
     1     -2.7779785     23  1.900                                             
     2     -6.8029130     23  1.900                                             
  local pseudopotential read in
  partial core-charges read in
  partial kinetic energy density read in
  atomic valenz-charges read in
  non local Contribution for L=           0  read in
    real space projection operators read in
  non local Contribution for L=           0  read in
    real space projection operators read in
  non local Contribution for L=           1  read in
    real space projection operators read in
  non local Contribution for L=           1  read in
    real space projection operators read in
    PAW grid and wavefunctions read in
 
   number of l-projection  operators is LMAX  =           4
   number of lm-projection operators is LMMAX =           8
 
 POTCAR:     PAW_PBE Cu_pv 06Sep2000              
   SHA256 =  cb7b504e2ea725fe1f25c85a9ac77d4012ce94cd394135b722c4e25ec297f1cb Cu
   COPYR  = (c) Copyright 06Sep2000 Georg Kresse                                
   COPYR  = This file is part of the software VASP. Any use, copying, and all ot
   COPYR  = If you do not have a valid VASP license, you may not use, copy or di
   VRHFIN =Cu: d10 p1                                                           
   LEXCH  = PE                                                                  
   EATOM  =  4120.1201 eV,  302.8203 Ry                                         
                                                                                
   TITEL  = PAW_PBE Cu_pv 06Sep2000                                             
   LULTRA =        F    use ultrasoft PP ?                                      
   IUNSCR =        1    unscreen: 0-lin 1-nonlin 2-no                           
   RPACOR =    1.500    partial core radius                                     
   POMASS =   63.546; ZVAL   =   17.000    mass and valenz                      
   RCORE  =    2.000    outmost cutoff radius                                   
   RWIGS  =    2.000; RWIGS  =    1.058    wigner-seitz radius (au A)           
   ENMAX  =  368.648; ENMIN  =  276.486 eV                                      
   RCLOC  =    1.304    cutoff for local pot                                    
   LCOR   =        T    correct aug charges                                     
   LPAW   =        T    paw PP                                                  
   EAUG   =  758.233                                                            
   DEXC   =    0.000                                                            
   RMAX   =    2.046    core radius for proj-oper                               
   RAUG   =    1.300    factor for augmentation sphere                          
   RDEP   =    2.025    radius for radial grids                                 
   RDEPT  =    1.558    core radius for aug-charge                              
                                                                                
   Atomic configuration                                                         
    8 entries                                                                   
     n  l   j            E        occ.                                          
     1  0  0.50     -8850.2467   2.0000                                         
     2  0  0.50     -1062.3498   2.0000                                         
     2  1  1.50      -916.8226   6.0000                                         
     3  0  0.50      -114.6929   2.0000                                         
     3  1  1.50       -72.1325   6.0000                                         
     3  2  2.50        -5.0394  10.0000                                         
     4  0  0.50        -4.6097   1.0000                                         
     4  3  2.50        -1.3606   0.0000                                         
   Description                                                                  
     l       E           TYP  RCUT    TYP  RCUT                                 
     1    -72.1324777     23  1.700                                             
     1     -1.3605826     23  1.700                                             
     2     -5.0393776     23  2.000                                             
     2     -6.3999602     23  2.000                                             
     0     -4.6097062     23  1.800                                             
     0     14.1620818     23  1.800                                             
  local pseudopotential read in
  partial core-charges read in
  partial kinetic energy density read in
  atomic valenz-charges read in
  non local Contribution for L=           1  read in
    real space projection operators read in
  non local Contribution for L=           1  read in
    real space projection operators read in
  non local Contribution for L=           2  read in
    real space projection operators read in
  non local Contribution for L=           2  read in
    real space projection operators read in
  non local Contribution for L=           0  read in
    real space projection operators read in
  non local Contribution for L=           0  read in
    real space projection operators read in
    PAW grid and wavefunctions read in
 
   number of l-projection  operators is LMAX  =           6
   number of lm-projection operators is LMMAX =          18
 
 POTCAR:     PAW_PBE Fe_pv 02Aug2007              
   SHA256 =  5d22e414b1f82158bf2c7ecb8b97b28fd0923e48cadc1c3bf74d524558f5dd32 Fe
   COPYR  = (c) Copyright 02Aug2007 Georg Kresse                                
   COPYR  = This file is part of the software VASP. Any use, copying, and all ot
   COPYR  = If you do not have a valid VASP license, you may not use, copy or di
   VRHFIN =Fe:  3pd7s1                                                          
   LEXCH  = PE                                                                  
   EATOM  =  2457.4239 eV,  180.6156 Ry                                         
                                                                                
   TITEL  = PAW_PBE Fe_pv 02Aug2007                                             
   LULTRA =        F    use ultrasoft PP ?                                      
   IUNSCR =        1    unscreen: 0-lin 1-nonlin 2-no                           
   RPACOR =    1.750    partial core radius                                     
   POMASS =   55.847; ZVAL   =   14.000    mass and valenz                      
   RCORE  =    2.200    outmost cutoff radius                                   
   RWIGS  =    2.200; RWIGS  =    1.164    wigner-seitz radius (au A)           
   ENMAX  =  293.238; ENMIN  =  219.928 eV                                      
   ICORE  =        3    local potential                                         
   LCOR   =        T    correct aug charges                                     
   LPAW   =        T    paw PP                                                  
   EAUG   =  578.342                                                            
   DEXC   =    0.000                                                            
   RMAX   =    2.249    core radius for proj-oper                               
   RAUG   =    1.300    factor for augmentation sphere                          
   RDEP   =    2.296    radius for radial grids                                 
   RDEPT  =    1.766    core radius for aug-charge                              
                                                                                
   Atomic configuration                                                         
    8 entries                                                                   
     n  l   j            E        occ.                                          
     1  0  0.50     -6993.8440   2.0000                                         
     2  0  0.50      -814.6047   2.0000                                         
     2  1  1.50      -693.3689   6.0000                                         
     3  0  0.50       -89.4732   2.0000                                         
     3  1  1.50       -55.6373   6.0000                                         
     3  2  2.50        -3.8151   7.0000                                         
     4  0  0.50        -4.2551   1.0000                                         
     4  3  2.50        -1.3606   0.0000                                         
   Description                                                                  
     l       E           TYP  RCUT    TYP  RCUT                                 
     1    -55.6372668     23  2.000                                             
     1     -5.4423304     23  2.000                                             
     2     -3.8151096     23  2.200                                             
     2     -5.1756922     23  2.200                                             
     0     -4.2550951     23  2.200                                             
     0     27.2116520     23  2.200                                             
     3     -1.3605826     23  2.200                                             
  local pseudopotential read in
  partial core-charges read in
  partial kinetic energy density read in
  atomic valenz-charges read in
  non local Contribution for L=           1  read in
    real space projection operators read in
  non local Contribution for L=           1  read in
    real space projection operators read in
  non local Contribution for L=           2  read in
    real space projection operators read in
  non local Contribution for L=           2  read in
    real space projection operators read in
  non local Contribution for L=           0  read in
    real space projection operators read in
  non local Contribution for L=           0  read in
    real space projection operators read in
    PAW grid and wavefunctions read in
 
   number of l-projection  operators is LMAX  =           6
   number of lm-projection operators is LMMAX =          18
 

 ----------------------------------------------------------------------------- 
|                                                                             |
|  ADVICE TO THIS USER RUNNING 'VASP/VAMP'   (HEAR YOUR MASTER'S VOICE ...):  |
|                                                                             |
|      You enforced a specific xc-type in the INCAR file,                     |
|      a different type was found on the POTCAR file                          |
|          I HOPE YOU KNOW, WHAT YOU ARE  DOING                               |
|                                                                             |
 ----------------------------------------------------------------------------- 

  PAW_PBE S 06Sep2000                   :
 energy of atom  1       EATOM= -276.8230
 kinetic energy error for atom=    0.0007 (will be added to EATOM!!)
   PAW_PBE Cu_pv 06Sep2000              :
 energy of atom  2       EATOM=-4120.1201
 kinetic energy error for atom=    0.0094 (will be added to EATOM!!)
   PAW_PBE Fe_pv 02Aug2007              :
 energy of atom  3       EATOM=-2457.4239
 kinetic energy error for atom=    0.0025 (will be added to EATOM!!)
 
 
 POSCAR: Fe4 Cu4 S8                              
  positions in direct lattice
  velocities in cartesian coordinates
 exchange correlation table for  LEXCH =       14
   RHO(1)=    0.500       N(1)  =     2000
   RHO(2)=  100.500       N(2)  =     4000
 


--------------------------------------------------------------------------------------------------------


 ion  position               nearest neighbor table
   1  0.254  0.229  0.127-  11 2.25  16 2.25  10 2.29  13 2.31
   2  0.746  0.729  0.123-  10 2.25  13 2.25  11 2.29  16 2.31
   3  0.250  0.737  0.875-  13 2.27  14 2.27  11 2.28  12 2.28
   4  0.750  0.239  0.875-  11 2.26  12 2.26  13 2.30  14 2.30
   5  0.246  0.229  0.623-  12 2.25  15 2.25   9 2.29  14 2.31
   6  0.754  0.729  0.627-   9 2.25  14 2.25  12 2.29  15 2.31
   7  0.750  0.237  0.375-  16 2.27  15 2.27  10 2.28   9 2.28
   8  0.250  0.739  0.375-   9 2.26  10 2.26  16 2.30  15 2.30
   9  0.991  0.016  0.500-   6 2.25   8 2.26   7 2.28   5 2.29
  10  0.509  0.016  0.250-   2 2.25   8 2.26   7 2.28   1 2.29
  11  0.491  0.516  0.000-   1 2.25   4 2.26   3 2.28   2 2.29
  12  0.009  0.516  0.750-   5 2.25   4 2.26   3 2.28   6 2.29
  13  0.995  0.016  0.002-   2 2.25   3 2.27   4 2.30   1 2.31
  14  0.505  0.016  0.748-   6 2.25   3 2.27   4 2.30   5 2.31
  15  0.495  0.516  0.502-   5 2.25   7 2.27   8 2.30   6 2.31
  16  0.005  0.516  0.248-   1 2.25   7 2.27   8 2.30   2 2.31
 
  LATTYP: Found a simple monoclinic cell.
 ALAT       =    12.3697239468
 B/A-ratio  =     0.4265738355
 C/A-ratio  =     1.7984564111
 COS(beta)  =    -0.9805395588
  
  Lattice vectors:
  
 A1 = (  -6.0572080000,   0.0000000000, -10.7851890000)
 A2 = (   0.0000000000,  -5.2766005884,   0.0000000000)
 A3 = (   6.8736400000,   0.0000000000,  21.1578780000)


Analysis of symmetry for initial positions (statically):
=====================================================================
 Subroutine PRICEL returns following result:
 
  LATTYP: Found a base centered monoclinic cell.
 ALAT       =    10.8986322420
 B/A-ratio  =     0.4841525497
 C/A-ratio  =     0.9546858493
 COS(beta)  =    -0.7913521143
  
  Lattice vectors:
  
 A1 = (  -2.2121720000,  -2.6383002942,   4.9800945000)
 A2 = (  -2.2121720000,   2.6383002942,   4.9800945000)
 A3 = (  -0.8164320000,   0.0000000000, -10.3726890000)
 
   2 primitive cells build up your supercell.
 

 Routine SETGRP: Setting up the symmetry group for a 
 simple monoclinic supercell.


 Subroutine GETGRP returns: Found  2 space group operations
 (whereof  1 operations were pure point group operations)
 out of a pool of  4 trial point group operations.


The static configuration has the point symmetry C_1 .
 The point group associated with its full space group is C_2 .


Analysis of symmetry for dynamics (positions and initial velocities):
=====================================================================
 Subroutine PRICEL returns following result:
 
  LATTYP: Found a base centered monoclinic cell.
 ALAT       =    10.8986322420
 B/A-ratio  =     0.4841525497
 C/A-ratio  =     0.9546858493
 COS(beta)  =    -0.7913521143
  
  Lattice vectors:
  
 A1 = (  -2.2121720000,  -2.6383002942,   4.9800945000)
 A2 = (  -2.2121720000,   2.6383002942,   4.9800945000)
 A3 = (  -0.8164320000,   0.0000000000, -10.3726890000)
 
   2 primitive cells build up your supercell.
 

 Routine SETGRP: Setting up the symmetry group for a 
 simple monoclinic supercell.


 Subroutine GETGRP returns: Found  2 space group operations
 (whereof  1 operations were pure point group operations)
 out of a pool of  4 trial point group operations.


The dynamic configuration has the point symmetry C_1 .
 The point group associated with its full space group is C_2 .


Analysis of structural, dynamic, and magnetic symmetry:
=====================================================================
 Subroutine PRICEL returns following result:
 
  LATTYP: Found a base centered monoclinic cell.
 ALAT       =    10.8986322420
 B/A-ratio  =     0.4841525497
 C/A-ratio  =     0.9546858493
 COS(beta)  =    -0.7913521143
  
  Lattice vectors:
  
 A1 = (  -2.2121720000,  -2.6383002942,   4.9800945000)
 A2 = (  -2.2121720000,   2.6383002942,   4.9800945000)
 A3 = (  -0.8164320000,   0.0000000000, -10.3726890000)
 
   2 primitive cells build up your supercell.
 

 Routine SETGRP: Setting up the symmetry group for a 
 simple monoclinic supercell.


 Subroutine GETGRP returns: Found  2 space group operations
 (whereof  1 operations were pure point group operations)
 out of a pool of  4 trial point group operations.


The (compounded) configuration has the point symmetry C_1 .
 The point group associated with its full space group is C_2 .


 Subroutine INISYM returns: Found  2 space group operations
 (whereof  1 operations are pure point group operations),
 and found     2 'primitive' translations

 
 
 KPOINTS: Automatic mesh                          

Automatic generation of k-mesh.
Space group operators:
 irot       det(A)        alpha          n_x          n_y          n_z        tau_x        tau_y        tau_z
    1     1.000000     0.000000     1.000000     0.000000     0.000000     0.000000     0.000000     0.000000
    2     1.000000   179.999999     0.000000     1.000000     0.000000    -0.500000     0.000000    -0.250000
 
 Subroutine IBZKPT returns following result:
 ===========================================
 
 Found     60 irreducible k-points:
 
 Following reciprocal coordinates:
            Coordinates               Weight
  0.000000  0.000000  0.000000      1.000000
  0.166667  0.000000  0.000000      2.000000
  0.333333  0.000000  0.000000      2.000000
  0.500000  0.000000  0.000000      1.000000
  0.000000  0.166667  0.000000      1.000000
  0.166667  0.166667  0.000000      2.000000
  0.333333  0.166667  0.000000      2.000000
  0.500000  0.166667  0.000000      1.000000
  0.000000  0.333333  0.000000      1.000000
  0.166667  0.333333  0.000000      2.000000
  0.333333  0.333333  0.000000      2.000000
  0.500000  0.333333  0.000000      1.000000
  0.000000  0.500000  0.000000      1.000000
  0.166667  0.500000  0.000000      2.000000
  0.333333  0.500000  0.000000      2.000000
  0.500000  0.500000  0.000000      1.000000
  0.000000 -0.333333  0.000000      1.000000
  0.166667 -0.333333  0.000000      2.000000
  0.333333 -0.333333  0.000000      2.000000
  0.500000 -0.333333  0.000000      1.000000
  0.000000 -0.166667  0.000000      1.000000
  0.166667 -0.166667  0.000000      2.000000
  0.333333 -0.166667  0.000000      2.000000
  0.500000 -0.166667  0.000000      1.000000
  0.000000  0.000000  0.333333      2.000000
  0.166667  0.000000  0.333333      2.000000
  0.333333  0.000000  0.333333      2.000000
  0.500000  0.000000  0.333333      2.000000
 -0.333333  0.000000  0.333333      2.000000
 -0.166667  0.000000  0.333333      2.000000
  0.000000  0.166667  0.333333      2.000000
  0.166667  0.166667  0.333333      2.000000
  0.333333  0.166667  0.333333      2.000000
  0.500000  0.166667  0.333333      2.000000
 -0.333333  0.166667  0.333333      2.000000
 -0.166667  0.166667  0.333333      2.000000
  0.000000  0.333333  0.333333      2.000000
  0.166667  0.333333  0.333333      2.000000
  0.333333  0.333333  0.333333      2.000000
  0.500000  0.333333  0.333333      2.000000
 -0.333333  0.333333  0.333333      2.000000
 -0.166667  0.333333  0.333333      2.000000
  0.000000  0.500000  0.333333      2.000000
  0.166667  0.500000  0.333333      2.000000
  0.333333  0.500000  0.333333      2.000000
  0.500000  0.500000  0.333333      2.000000
 -0.333333  0.500000  0.333333      2.000000
 -0.166667  0.500000  0.333333      2.000000
  0.000000 -0.333333  0.333333      2.000000
  0.166667 -0.333333  0.333333      2.000000
  0.333333 -0.333333  0.333333      2.000000
  0.500000 -0.333333  0.333333      2.000000
 -0.333333 -0.333333  0.333333      2.000000
 -0.166667 -0.333333  0.333333      2.000000
  0.000000 -0.166667  0.333333      2.000000
  0.166667 -0.166667  0.333333      2.000000
  0.333333 -0.166667  0.333333      2.000000
  0.500000 -0.166667  0.333333      2.000000
 -0.333333 -0.166667  0.333333      2.000000
 -0.166667 -0.166667  0.333333      2.000000
 
 Following cartesian coordinates:
            Coordinates               Weight
  0.000000  0.000000  0.000000      1.000000
  0.032000  0.000000 -0.002519      2.000000
  0.064000  0.000000 -0.005037      2.000000
  0.096000  0.000000 -0.007556      1.000000
  0.000000  0.031586  0.000000      1.000000
  0.032000  0.031586 -0.002519      2.000000
  0.064000  0.031586 -0.005037      2.000000
  0.096000  0.031586 -0.007556      1.000000
  0.000000  0.063172  0.000000      1.000000
  0.032000  0.063172 -0.002519      2.000000
  0.064000  0.063172 -0.005037      2.000000
  0.096000  0.063172 -0.007556      1.000000
  0.000000  0.094758  0.000000      1.000000
  0.032000  0.094758 -0.002519      2.000000
  0.064000  0.094758 -0.005037      2.000000
  0.096000  0.094758 -0.007556      1.000000
  0.000000 -0.063172  0.000000      1.000000
  0.032000 -0.063172 -0.002519      2.000000
  0.064000 -0.063172 -0.005037      2.000000
  0.096000 -0.063172 -0.007556      1.000000
  0.000000 -0.031586  0.000000      1.000000
  0.032000 -0.031586 -0.002519      2.000000
  0.064000 -0.031586 -0.005037      2.000000
  0.096000 -0.031586 -0.007556      1.000000
 -0.002545  0.000000  0.032336      2.000000
  0.029455  0.000000  0.029817      2.000000
  0.061455  0.000000  0.027299      2.000000
  0.093455  0.000000  0.024780      2.000000
 -0.066545  0.000000  0.037373      2.000000
 -0.034545  0.000000  0.034855      2.000000
 -0.002545  0.031586  0.032336      2.000000
  0.029455  0.031586  0.029817      2.000000
  0.061455  0.031586  0.027299      2.000000
  0.093455  0.031586  0.024780      2.000000
 -0.066545  0.031586  0.037373      2.000000
 -0.034545  0.031586  0.034855      2.000000
 -0.002545  0.063172  0.032336      2.000000
  0.029455  0.063172  0.029817      2.000000
  0.061455  0.063172  0.027299      2.000000
  0.093455  0.063172  0.024780      2.000000
 -0.066545  0.063172  0.037373      2.000000
 -0.034545  0.063172  0.034855      2.000000
 -0.002545  0.094758  0.032336      2.000000
  0.029455  0.094758  0.029817      2.000000
  0.061455  0.094758  0.027299      2.000000
  0.093455  0.094758  0.024780      2.000000
 -0.066545  0.094758  0.037373      2.000000
 -0.034545  0.094758  0.034855      2.000000
 -0.002545 -0.063172  0.032336      2.000000
  0.029455 -0.063172  0.029817      2.000000
  0.061455 -0.063172  0.027299      2.000000
  0.093455 -0.063172  0.024780      2.000000
 -0.066545 -0.063172  0.037373      2.000000
 -0.034545 -0.063172  0.034855      2.000000
 -0.002545 -0.031586  0.032336      2.000000
  0.029455 -0.031586  0.029817      2.000000
  0.061455 -0.031586  0.027299      2.000000
  0.093455 -0.031586  0.024780      2.000000
 -0.066545 -0.031586  0.037373      2.000000
 -0.034545 -0.031586  0.034855      2.000000
 
 TETIRR: Found    648 inequivalent tetrahedra from      648
 
 Subroutine IBZKPT_HF returns following result:
 ==============================================
 
 Found    108 k-points in 1st BZ
 the following    108 k-points will be used (e.g. in the exchange kernel)
 Following reciprocal coordinates:   # in IRBZ
  0.000000  0.000000  0.000000    0.00925926   1 t-inv F
  0.166667  0.000000  0.000000    0.00925926   2 t-inv F
  0.333333  0.000000  0.000000    0.00925926   3 t-inv F
  0.500000  0.000000  0.000000    0.00925926   4 t-inv F
  0.000000  0.166667  0.000000    0.00925926   5 t-inv F
  0.166667  0.166667  0.000000    0.00925926   6 t-inv F
  0.333333  0.166667  0.000000    0.00925926   7 t-inv F
  0.500000  0.166667  0.000000    0.00925926   8 t-inv F
  0.000000  0.333333  0.000000    0.00925926   9 t-inv F
  0.166667  0.333333  0.000000    0.00925926  10 t-inv F
  0.333333  0.333333  0.000000    0.00925926  11 t-inv F
  0.500000  0.333333  0.000000    0.00925926  12 t-inv F
  0.000000  0.500000  0.000000    0.00925926  13 t-inv F
  0.166667  0.500000  0.000000    0.00925926  14 t-inv F
  0.333333  0.500000  0.000000    0.00925926  15 t-inv F
  0.500000  0.500000  0.000000    0.00925926  16 t-inv F
  0.000000 -0.333333  0.000000    0.00925926  17 t-inv F
  0.166667 -0.333333  0.000000    0.00925926  18 t-inv F
  0.333333 -0.333333  0.000000    0.00925926  19 t-inv F
  0.500000 -0.333333  0.000000    0.00925926  20 t-inv F
  0.000000 -0.166667  0.000000    0.00925926  21 t-inv F
  0.166667 -0.166667  0.000000    0.00925926  22 t-inv F
  0.333333 -0.166667  0.000000    0.00925926  23 t-inv F
  0.500000 -0.166667  0.000000    0.00925926  24 t-inv F
  0.000000  0.000000  0.333333    0.00925926  25 t-inv F
  0.166667  0.000000  0.333333    0.00925926  26 t-inv F
  0.333333  0.000000  0.333333    0.00925926  27 t-inv F
  0.500000  0.000000  0.333333    0.00925926  28 t-inv F
 -0.333333  0.000000  0.333333    0.00925926  29 t-inv F
 -0.166667  0.000000  0.333333    0.00925926  30 t-inv F
  0.000000  0.166667  0.333333    0.00925926  31 t-inv F
  0.166667  0.166667  0.333333    0.00925926  32 t-inv F
  0.333333  0.166667  0.333333    0.00925926  33 t-inv F
  0.500000  0.166667  0.333333    0.00925926  34 t-inv F
 -0.333333  0.166667  0.333333    0.00925926  35 t-inv F
 -0.166667  0.166667  0.333333    0.00925926  36 t-inv F
  0.000000  0.333333  0.333333    0.00925926  37 t-inv F
  0.166667  0.333333  0.333333    0.00925926  38 t-inv F
  0.333333  0.333333  0.333333    0.00925926  39 t-inv F
  0.500000  0.333333  0.333333    0.00925926  40 t-inv F
 -0.333333  0.333333  0.333333    0.00925926  41 t-inv F
 -0.166667  0.333333  0.333333    0.00925926  42 t-inv F
  0.000000  0.500000  0.333333    0.00925926  43 t-inv F
  0.166667  0.500000  0.333333    0.00925926  44 t-inv F
  0.333333  0.500000  0.333333    0.00925926  45 t-inv F
  0.500000  0.500000  0.333333    0.00925926  46 t-inv F
 -0.333333  0.500000  0.333333    0.00925926  47 t-inv F
 -0.166667  0.500000  0.333333    0.00925926  48 t-inv F
  0.000000 -0.333333  0.333333    0.00925926  49 t-inv F
  0.166667 -0.333333  0.333333    0.00925926  50 t-inv F
  0.333333 -0.333333  0.333333    0.00925926  51 t-inv F
  0.500000 -0.333333  0.333333    0.00925926  52 t-inv F
 -0.333333 -0.333333  0.333333    0.00925926  53 t-inv F
 -0.166667 -0.333333  0.333333    0.00925926  54 t-inv F
  0.000000 -0.166667  0.333333    0.00925926  55 t-inv F
  0.166667 -0.166667  0.333333    0.00925926  56 t-inv F
  0.333333 -0.166667  0.333333    0.00925926  57 t-inv F
  0.500000 -0.166667  0.333333    0.00925926  58 t-inv F
 -0.333333 -0.166667  0.333333    0.00925926  59 t-inv F
 -0.166667 -0.166667  0.333333    0.00925926  60 t-inv F
 -0.166667  0.000000 -0.000000    0.00925926   2 t-inv F
 -0.333333  0.000000 -0.000000    0.00925926   3 t-inv F
 -0.166667  0.166667 -0.000000    0.00925926   6 t-inv F
 -0.333333  0.166667 -0.000000    0.00925926   7 t-inv F
 -0.166667  0.333333 -0.000000    0.00925926  10 t-inv F
 -0.333333  0.333333 -0.000000    0.00925926  11 t-inv F
 -0.166667  0.500000 -0.000000    0.00925926  14 t-inv F
 -0.333333  0.500000 -0.000000    0.00925926  15 t-inv F
 -0.166667 -0.333333 -0.000000    0.00925926  18 t-inv F
 -0.333333 -0.333333 -0.000000    0.00925926  19 t-inv F
 -0.166667 -0.166667 -0.000000    0.00925926  22 t-inv F
 -0.333333 -0.166667 -0.000000    0.00925926  23 t-inv F
  0.000000  0.000000 -0.333333    0.00925926  25 t-inv F
 -0.166667  0.000000 -0.333333    0.00925926  26 t-inv F
 -0.333333  0.000000 -0.333333    0.00925926  27 t-inv F
 -0.500000  0.000000 -0.333333    0.00925926  28 t-inv F
  0.333333  0.000000 -0.333333    0.00925926  29 t-inv F
  0.166667  0.000000 -0.333333    0.00925926  30 t-inv F
  0.000000  0.166667 -0.333333    0.00925926  31 t-inv F
 -0.166667  0.166667 -0.333333    0.00925926  32 t-inv F
 -0.333333  0.166667 -0.333333    0.00925926  33 t-inv F
 -0.500000  0.166667 -0.333333    0.00925926  34 t-inv F
  0.333333  0.166667 -0.333333    0.00925926  35 t-inv F
  0.166667  0.166667 -0.333333    0.00925926  36 t-inv F
  0.000000  0.333333 -0.333333    0.00925926  37 t-inv F
 -0.166667  0.333333 -0.333333    0.00925926  38 t-inv F
 -0.333333  0.333333 -0.333333    0.00925926  39 t-inv F
 -0.500000  0.333333 -0.333333    0.00925926  40 t-inv F
  0.333333  0.333333 -0.333333    0.00925926  41 t-inv F
  0.166667  0.333333 -0.333333    0.00925926  42 t-inv F
  0.000000  0.500000 -0.333333    0.00925926  43 t-inv F
 -0.166667  0.500000 -0.333333    0.00925926  44 t-inv F
 -0.333333  0.500000 -0.333333    0.00925926  45 t-inv F
 -0.500000  0.500000 -0.333333    0.00925926  46 t-inv F
  0.333333  0.500000 -0.333333    0.00925926  47 t-inv F
  0.166667  0.500000 -0.333333    0.00925926  48 t-inv F
  0.000000 -0.333333 -0.333333    0.00925926  49 t-inv F
 -0.166667 -0.333333 -0.333333    0.00925926  50 t-inv F
 -0.333333 -0.333333 -0.333333    0.00925926  51 t-inv F
 -0.500000 -0.333333 -0.333333    0.00925926  52 t-inv F
  0.333333 -0.333333 -0.333333    0.00925926  53 t-inv F
  0.166667 -0.333333 -0.333333    0.00925926  54 t-inv F
  0.000000 -0.166667 -0.333333    0.00925926  55 t-inv F
 -0.166667 -0.166667 -0.333333    0.00925926  56 t-inv F
 -0.333333 -0.166667 -0.333333    0.00925926  57 t-inv F
 -0.500000 -0.166667 -0.333333    0.00925926  58 t-inv F
  0.333333 -0.166667 -0.333333    0.00925926  59 t-inv F
  0.166667 -0.166667 -0.333333    0.00925926  60 t-inv F


--------------------------------------------------------------------------------------------------------




 Dimension of arrays:
   k-points           NKPTS =     60   k-points in BZ     NKDIM =     60   number of bands    NBANDS=    256
   number of dos      NEDOS =    301   number of ions     NIONS =     16
   non local maximal  LDIM  =      6   non local SUM 2l+1 LMDIM =     18
   total plane-waves  NPLWV = 207360
   max r-space proj   IRMAX =      1   max aug-charges    IRDMAX=  23114
   dimension x,y,z NGX =    48 NGY =   48 NGZ =   90
   dimension x,y,z NGXF=    96 NGYF=   96 NGZF=  180
   support grid    NGXF=    96 NGYF=   96 NGZF=  180
   ions per type =               8   4   4
   NGX,Y,Z   is equivalent  to a cutoff of  15.18, 15.12, 14.38 a.u.
   NGXF,Y,Z  is equivalent  to a cutoff of  30.36, 30.25, 28.76 a.u.

 SYSTEM =  CuFeS2                                  
 POSCAR =  Fe4 Cu4 S8                              

 Startparameter for this run:
   NWRITE =      2    write-flag & timer
   PREC   = accura    normal or accurate (medium, high low for compatibility)
   ISTART =      1    job   : 0-new  1-cont  2-samecut
   ICHARG =      1    charge: 1-file 2-atom 10-const
   ISPIN  =      1    spin polarized calculation?
   LNONCOLLINEAR =      T non collinear calculations
   LSORBIT =      T    spin-orbit coupling
   INIWAV =      1    electr: 0-lowe 1-rand  2-diag
   LASPH  =      T    aspherical Exc in radial PAW
   METAGGA=      F    non-selfconsistent MetaGGA calc.

 Electronic Relaxation 1
   ENCUT  =  700.0 eV  51.45 Ry    7.17 a.u.  11.34 11.38 22.45*2*pi/ulx,y,z
   ENINI  =  700.0     initial cutoff
   ENAUG  =  758.2 eV  augmentation charge cutoff
   NELM   =    200;   NELMIN=  2; NELMDL=  0     # of ELM steps 
   EDIFF  = 0.1E-07   stopping-criterion for ELM
   LREAL  =      F    real-space projection
   NLSPLINE    = F    spline interpolate recip. space projectors
   LCOMPAT=      F    compatible to vasp.4.4
   GGA_COMPAT  = T    GGA compatible to vasp.4.4-vasp.4.6
   LMAXPAW     = -100 max onsite density
   LMAXMIX     =    4 max onsite mixed and CHGCAR
   VOSKOWN=      0    Vosko Wilk Nusair interpolation
   ROPT   =    0.00000   0.00000   0.00000
 Ionic relaxation
   EDIFFG = -.1E-04   stopping-criterion for IOM
   NSW    =      0    number of steps for IOM
   NBLOCK =      1;   KBLOCK =      1    inner block; outer block 
   IBRION =     -1    ionic relax: 0-MD 1-quasi-New 2-CG
   NFREE  =      0    steps in history (QN), initial steepest desc. (CG)
   ISIF   =      2    stress and relaxation
   IWAVPR =     10    prediction:  0-non 1-charg 2-wave 3-comb
   ISYM   =      2    0-nonsym 1-usesym 2-fastsym
   LCORR  =      T    Harris-Foulkes like correction to forces

   POTIM  = 0.5000    time-step for ionic-motion
   TEIN   =    0.0    initial temperature
   TEBEG  =    0.0;   TEEND  =   0.0 temperature during run
   SMASS  =  -3.00    Nose mass-parameter (am)
   estimated Nose-frequenzy (Omega)   =  0.10E-29 period in steps =****** mass=  -0.632E-27a.u.
   SCALEE = 1.0000    scale energy and forces
   NPACO  =    256;   APACO  = 16.0  distance and # of slots for P.C.
   PSTRESS=    0.0 pullay stress

  Mass of Ions in am
   POMASS =  32.07 63.55 55.85
  Ionic Valenz
   ZVAL   =   6.00 17.00 14.00
  Atomic Wigner-Seitz radii
   RWIGS  =  -1.00 -1.00 -1.00
  virtual crystal weights 
   VCA    =   1.00  1.00  1.00
   NELECT =     172.0000    total number of electrons
   NUPDOWN=      -1.0000    fix difference up-down

 DOS related values:
   EMIN   =  10.00;   EMAX   =-10.00  energy-range for DOS
   EFERMI =   0.00
   ISMEAR =    -5;   SIGMA  =   0.03  broadening in eV -4-tet -1-fermi 0-gaus

 Electronic relaxation 2 (details)
   IALGO  =     38    algorithm
   LDIAG  =      T    sub-space diagonalisation (order eigenvalues)
   LSUBROT=      F    optimize rotation matrix (better conditioning)
   TURBO    =      0    0=normal 1=particle mesh
   IRESTART =      0    0=no restart 2=restart with 2 vectors
   NREBOOT  =      0    no. of reboots
   NMIN     =      0    reboot dimension
   EREF     =   0.00    reference energy to select bands
   IMIX   =      4    mixing-type and parameters
     AMIX     =   0.40;   BMIX     =  1.00
     AMIX_MAG =   1.60;   BMIX_MAG =  1.00
     AMIN     =   0.10
     WC   =   100.;   INIMIX=   1;  MIXPRE=   1;  MAXMIX= -45

 Intra band minimization:
   WEIMIN = 0.0000     energy-eigenvalue tresh-hold
   EBREAK =  0.98E-11  absolut break condition
   DEPER  =   0.30     relativ break condition  

   TIME   =   0.40     timestep for ELM

  volume/ion in A,a.u.               =      17.82       120.23
  Fermi-wavevector in a.u.,A,eV,Ry     =   1.383365  2.614181 26.037465  1.913700
  Thomas-Fermi vector in A             =   2.507970
 
 Write flags
   LWAVE        =      T    write WAVECAR
   LDOWNSAMPLE  =      F    k-point downsampling of WAVECAR
   LCHARG       =      T    write CHGCAR
   LVTOT        =      F    write LOCPOT, total local potential
   LVHAR        =      F    write LOCPOT, Hartree potential only
   LELF         =      F    write electronic localiz. function (ELF)
   LORBIT       =     11    0 simple, 1 ext, 2 COOP (PROOUT), +10 PAW based schemes


 Dipole corrections
   LMONO  =      F    monopole corrections only (constant potential shift)
   LDIPOL =      F    correct potential (dipole corrections)
   IDIPOL =      0    1-x, 2-y, 3-z, 4-all directions 
   EPSILON=  1.0000000 bulk dielectric constant

 LDA+U is selected, type is set to LDAUTYPE =  2
   angular momentum for each species LDAUL =     2    2    2
   U (eV)           for each species LDAUU =   0.0  0.1  4.7
   J (eV)           for each species LDAUJ =   0.0  0.0  0.0
 Exchange correlation treatment:
   GGA     =    PS    GGA type
   LEXCH   =    14    internal setting for exchange type
   VOSKOWN=      0    Vosko Wilk Nusair interpolation
   LHFCALC =     F    Hartree Fock is set to
   LHFONE  =     F    Hartree Fock one center treatment
   AEXX    =    0.0000 exact exchange contribution

 Linear response parameters
   LEPSILON=     F    determine dielectric tensor
   LRPA    =     F    only Hartree local field effects (RPA)
   LNABLA  =     F    use nabla operator in PAW spheres
   LVEL    =     F    velocity operator in full k-point grid
   LINTERFAST=   F  fast interpolation
   KINTER  =     0    interpolate to denser k-point grid
   CSHIFT  =0.1000    complex shift for real part using Kramers Kronig
   OMEGAMAX=  -1.0    maximum frequency
   DEG_THRESHOLD= 0.2000000E-02 threshold for treating states as degnerate
   RTIME   =   -0.100 relaxation time in fs
  (WPLASMAI=    0.000 imaginary part of plasma frequency in eV, 0.658/RTIME)
   DFIELD  = 0.0000000 0.0000000 0.0000000 field for delta impulse in time
 
 Orbital magnetization related:
   ORBITALMAG=     F  switch on orbital magnetization
   LCHIMAG   =     F  perturbation theory with respect to B field
   DQ        =  0.001000  dq finite difference perturbation B field
   LLRAUG    =     F  two centre corrections for induced B field

 PEAD related settings:
   LPEAD      =     T    switch on PEAD
   IPEAD      =     4    finite difference order for dpsi/dk
   LCALCPOL   =     T    calculate macroscopic polarization
   LCALCEPS   =     F    calculate dielectric tensor
   EFIELD_PEAD=    0.0000    0.0000    0.0000
   SKIP_EDOTP =     F
   LRPA       =     F
   SKIP_SCF   =     F


--------------------------------------------------------------------------------------------------------


 Static calculation
 charge density and potential will be updated during run
 non collinear spin polarized calculation
 Variant of blocked Davidson
 Davidson routine will perform the subspace rotation
 perform sub-space diagonalisation
    after iterative eigenvector-optimisation
 modified Broyden-mixing scheme, WC =      100.0
 initial mixing is a Kerker type mixing with AMIX =  0.4000 and BMIX =      1.0000
 Hartree-type preconditioning will be used
 using additional bands          170
 reciprocal scheme for non local part
 use partial core corrections
 calculate Harris-corrections to forces 
   (improved forces if not selfconsistent)
 use gradient corrections 
 use of overlap-Matrix (Vanderbilt PP)
 Fermi weights with tetrahedron method with Bloechl corrections


--------------------------------------------------------------------------------------------------------


  energy-cutoff  :      700.00
  volume of cell :      285.06
      direct lattice vectors                 reciprocal lattice vectors
     5.240776000  0.000000000  0.412500000     0.192000926  0.000000000 -0.015112349
     0.000000000  5.276600588  0.000000000     0.000000000  0.189515955  0.000000000
     0.816432000  0.000000000 10.372689000    -0.007635473  0.000000000  0.097008003

  length of vectors
     5.256984814  5.276600588 10.404769978     0.192594752  0.189515955  0.097308032


 
 old parameters found on file WAVECAR:
  energy-cutoff  :      700.00
  volume of cell :      285.06
      direct lattice vectors                 reciprocal lattice vectors
     5.240776000  0.000000000  0.412500000     0.192000926  0.000000000 -0.015112349
     0.000000000  5.276453037  0.000000000     0.000000000  0.189521255  0.000000000
     0.816432000  0.000000000 10.372689000    -0.007635473  0.000000000  0.097008003

  length of vectors

 
 k-points in units of 2pi/SCALE and weight: Automatic mesh                          
   0.00000000  0.00000000  0.00000000       0.009
   0.03200015  0.00000000 -0.00251872       0.019
   0.06400031  0.00000000 -0.00503745       0.019
   0.09600046  0.00000000 -0.00755617       0.009
   0.00000000  0.03158599  0.00000000       0.009
   0.03200015  0.03158599 -0.00251872       0.019
   0.06400031  0.03158599 -0.00503745       0.019
   0.09600046  0.03158599 -0.00755617       0.009
   0.00000000  0.06317199  0.00000000       0.009
   0.03200015  0.06317199 -0.00251872       0.019
   0.06400031  0.06317199 -0.00503745       0.019
   0.09600046  0.06317199 -0.00755617       0.009
   0.00000000  0.09475798  0.00000000       0.009
   0.03200015  0.09475798 -0.00251872       0.019
   0.06400031  0.09475798 -0.00503745       0.019
   0.09600046  0.09475798 -0.00755617       0.009
   0.00000000 -0.06317199  0.00000000       0.009
   0.03200015 -0.06317199 -0.00251872       0.019
   0.06400031 -0.06317199 -0.00503745       0.019
   0.09600046 -0.06317199 -0.00755617       0.009
   0.00000000 -0.03158599  0.00000000       0.009
   0.03200015 -0.03158599 -0.00251872       0.019
   0.06400031 -0.03158599 -0.00503745       0.019
   0.09600046 -0.03158599 -0.00755617       0.009
  -0.00254516  0.00000000  0.03233600       0.019
   0.02945500  0.00000000  0.02981728       0.019
   0.06145515  0.00000000  0.02729855       0.019
   0.09345531  0.00000000  0.02477983       0.019
  -0.06654547  0.00000000  0.03737345       0.019
  -0.03454531  0.00000000  0.03485473       0.019
  -0.00254516  0.03158599  0.03233600       0.019
   0.02945500  0.03158599  0.02981728       0.019
   0.06145515  0.03158599  0.02729855       0.019
   0.09345531  0.03158599  0.02477983       0.019
  -0.06654547  0.03158599  0.03737345       0.019
  -0.03454531  0.03158599  0.03485473       0.019
  -0.00254516  0.06317199  0.03233600       0.019
   0.02945500  0.06317199  0.02981728       0.019
   0.06145515  0.06317199  0.02729855       0.019
   0.09345531  0.06317199  0.02477983       0.019
  -0.06654547  0.06317199  0.03737345       0.019
  -0.03454531  0.06317199  0.03485473       0.019
  -0.00254516  0.09475798  0.03233600       0.019
   0.02945500  0.09475798  0.02981728       0.019
   0.06145515  0.09475798  0.02729855       0.019
   0.09345531  0.09475798  0.02477983       0.019
  -0.06654547  0.09475798  0.03737345       0.019
  -0.03454531  0.09475798  0.03485473       0.019
  -0.00254516 -0.06317199  0.03233600       0.019
   0.02945500 -0.06317199  0.02981728       0.019
   0.06145515 -0.06317199  0.02729855       0.019
   0.09345531 -0.06317199  0.02477983       0.019
  -0.06654547 -0.06317199  0.03737345       0.019
  -0.03454531 -0.06317199  0.03485473       0.019
  -0.00254516 -0.03158599  0.03233600       0.019
   0.02945500 -0.03158599  0.02981728       0.019
   0.06145515 -0.03158599  0.02729855       0.019
   0.09345531 -0.03158599  0.02477983       0.019
  -0.06654547 -0.03158599  0.03737345       0.019
  -0.03454531 -0.03158599  0.03485473       0.019
 
 k-points in reciprocal lattice and weights: Automatic mesh                          
   0.00000000  0.00000000  0.00000000       0.009
   0.16666667  0.00000000  0.00000000       0.019
   0.33333333  0.00000000  0.00000000       0.019
   0.50000000  0.00000000  0.00000000       0.009
   0.00000000  0.16666667  0.00000000       0.009
   0.16666667  0.16666667  0.00000000       0.019
   0.33333333  0.16666667  0.00000000       0.019
   0.50000000  0.16666667  0.00000000       0.009
   0.00000000  0.33333333  0.00000000       0.009
   0.16666667  0.33333333  0.00000000       0.019
   0.33333333  0.33333333  0.00000000       0.019
   0.50000000  0.33333333  0.00000000       0.009
   0.00000000  0.50000000  0.00000000       0.009
   0.16666667  0.50000000  0.00000000       0.019
   0.33333333  0.50000000  0.00000000       0.019
   0.50000000  0.50000000  0.00000000       0.009
   0.00000000 -0.33333333  0.00000000       0.009
   0.16666667 -0.33333333  0.00000000       0.019
   0.33333333 -0.33333333  0.00000000       0.019
   0.50000000 -0.33333333  0.00000000       0.009
   0.00000000 -0.16666667  0.00000000       0.009
   0.16666667 -0.16666667  0.00000000       0.019
   0.33333333 -0.16666667  0.00000000       0.019
   0.50000000 -0.16666667  0.00000000       0.009
   0.00000000  0.00000000  0.33333333       0.019
   0.16666667  0.00000000  0.33333333       0.019
   0.33333333  0.00000000  0.33333333       0.019
   0.50000000  0.00000000  0.33333333       0.019
  -0.33333333  0.00000000  0.33333333       0.019
  -0.16666667  0.00000000  0.33333333       0.019
   0.00000000  0.16666667  0.33333333       0.019
   0.16666667  0.16666667  0.33333333       0.019
   0.33333333  0.16666667  0.33333333       0.019
   0.50000000  0.16666667  0.33333333       0.019
  -0.33333333  0.16666667  0.33333333       0.019
  -0.16666667  0.16666667  0.33333333       0.019
   0.00000000  0.33333333  0.33333333       0.019
   0.16666667  0.33333333  0.33333333       0.019
   0.33333333  0.33333333  0.33333333       0.019
   0.50000000  0.33333333  0.33333333       0.019
  -0.33333333  0.33333333  0.33333333       0.019
  -0.16666667  0.33333333  0.33333333       0.019
   0.00000000  0.50000000  0.33333333       0.019
   0.16666667  0.50000000  0.33333333       0.019
   0.33333333  0.50000000  0.33333333       0.019
   0.50000000  0.50000000  0.33333333       0.019
  -0.33333333  0.50000000  0.33333333       0.019
  -0.16666667  0.50000000  0.33333333       0.019
   0.00000000 -0.33333333  0.33333333       0.019
   0.16666667 -0.33333333  0.33333333       0.019
   0.33333333 -0.33333333  0.33333333       0.019
   0.50000000 -0.33333333  0.33333333       0.019
  -0.33333333 -0.33333333  0.33333333       0.019
  -0.16666667 -0.33333333  0.33333333       0.019
   0.00000000 -0.16666667  0.33333333       0.019
   0.16666667 -0.16666667  0.33333333       0.019
   0.33333333 -0.16666667  0.33333333       0.019
   0.50000000 -0.16666667  0.33333333       0.019
  -0.33333333 -0.16666667  0.33333333       0.019
  -0.16666667 -0.16666667  0.33333333       0.019
 
 position of ions in fractional coordinates (direct lattice) 
   0.25378241  0.22944966  0.12662307
   0.74621759  0.72944966  0.12337693
   0.25000000  0.73713694  0.87500000
   0.75000000  0.23913190  0.87500000
   0.24621759  0.22944966  0.62337693
   0.75378241  0.72944966  0.62662307
   0.75000000  0.23713694  0.37500000
   0.25000000  0.73913190  0.37500000
   0.99133136  0.01609289  0.50007563
   0.50866864  0.01609289  0.24992437
   0.49133136  0.51609289  0.00007563
   0.00866864  0.51609289  0.74992437
   0.99488673  0.01632302  0.00175691
   0.50511327  0.01632302  0.74824309
   0.49488673  0.51632302  0.50175691
   0.00511327  0.51632302  0.24824309
 
 position of ions in cartesian coordinates  (Angst):
   1.43339591  1.21071421  1.41810697
   4.01148809  3.84901451  1.58756528
   2.02457200  3.88957723  9.17922788
   4.64496000  1.26180355  9.38547787
   1.79931609  1.21071421  6.56765978
   4.46199991  3.84901451  6.81070147
   4.23674400  1.25127694  4.19913337
   1.61635600  3.90010384  3.99288337
   5.60362335  0.08491576  5.59605315
   2.86986465  0.08491576  2.80221360
   2.57501935  2.72321605  0.20345865
   0.65769265  2.72321605  7.78230810
   5.21541289  0.08613008  0.42861462
   3.25807511  0.08613008  7.96965213
   3.00324089  2.72443038  5.40870912
   0.22947111  2.72443038  2.57705763
 
 Euler angles ALPHA=     0.0000000  BETA=     0.0000000

 transformation matrix from SAXIS to cartesian coordinates
 ---------------------------------------------------------
     1.0000000 m_x     0.0000000 m_y     0.0000000 m_z
     0.0000000 m_x     1.0000000 m_y     0.0000000 m_z
     0.0000000 m_x     0.0000000 m_y     1.0000000 m_z

 transformation matrix from cartesian coordinates to SAXIS
 ---------------------------------------------------------
     1.0000000 m_x     0.0000000 m_y     0.0000000 m_z
     0.0000000 m_x     1.0000000 m_y     0.0000000 m_z
     0.0000000 m_x     0.0000000 m_y     1.0000000 m_z




--------------------------------------------------------------------------------------------------------


 k-point  1 :   0.0000 0.0000 0.0000  plane waves:   23926
 k-point  2 :   0.1667 0.0000 0.0000  plane waves:   23992
 k-point  3 :   0.3333 0.0000 0.0000  plane waves:   23982
 k-point  4 :   0.5000 0.0000 0.0000  plane waves:   24060
 k-point  5 :   0.0000 0.1667 0.0000  plane waves:   24018
 k-point  6 :   0.1667 0.1667 0.0000  plane waves:   23984
 k-point  7 :   0.3333 0.1667 0.0000  plane waves:   23986
 k-point  8 :   0.5000 0.1667 0.0000  plane waves:   24000
 k-point  9 :   0.0000 0.3333 0.0000  plane waves:   24022
 k-point 10 :   0.1667 0.3333 0.0000  plane waves:   24014
 k-point 11 :   0.3333 0.3333 0.0000  plane waves:   23954
 k-point 12 :   0.5000 0.3333 0.0000  plane waves:   23916
 k-point 13 :   0.0000 0.5000 0.0000  plane waves:   23988
 k-point 14 :   0.1667 0.5000 0.0000  plane waves:   24008
 k-point 15 :   0.3333 0.5000 0.0000  plane waves:   23888
 k-point 16 :   0.5000 0.5000 0.0000  plane waves:   23912
 k-point 17 :   0.0000-0.3333 0.0000  plane waves:   24022
 k-point 18 :   0.1667-0.3333 0.0000  plane waves:   24014
 k-point 19 :   0.3333-0.3333 0.0000  plane waves:   23954
 k-point 20 :   0.5000-0.3333 0.0000  plane waves:   23916
 k-point 21 :   0.0000-0.1667 0.0000  plane waves:   24018
 k-point 22 :   0.1667-0.1667 0.0000  plane waves:   23984
 k-point 23 :   0.3333-0.1667 0.0000  plane waves:   23986
 k-point 24 :   0.5000-0.1667 0.0000  plane waves:   24000
 k-point 25 :   0.0000 0.0000 0.3333  plane waves:   24006
 k-point 26 :   0.1667 0.0000 0.3333  plane waves:   24002
 k-point 27 :   0.3333 0.0000 0.3333  plane waves:   24020
 k-point 28 :   0.5000 0.0000 0.3333  plane waves:   24008
 k-point 29 :  -0.3333 0.0000 0.3333  plane waves:   23938
 k-point 30 :  -0.1667 0.0000 0.3333  plane waves:   23998
 k-point 31 :   0.0000 0.1667 0.3333  plane waves:   23986
 k-point 32 :   0.1667 0.1667 0.3333  plane waves:   23992
 k-point 33 :   0.3333 0.1667 0.3333  plane waves:   23966
 k-point 34 :   0.5000 0.1667 0.3333  plane waves:   23980
 k-point 35 :  -0.3333 0.1667 0.3333  plane waves:   23976
 k-point 36 :  -0.1667 0.1667 0.3333  plane waves:   23980
 k-point 37 :   0.0000 0.3333 0.3333  plane waves:   23948
 k-point 38 :   0.1667 0.3333 0.3333  plane waves:   23948
 k-point 39 :   0.3333 0.3333 0.3333  plane waves:   23954
 k-point 40 :   0.5000 0.3333 0.3333  plane waves:   23950
 k-point 41 :  -0.3333 0.3333 0.3333  plane waves:   23976
 k-point 42 :  -0.1667 0.3333 0.3333  plane waves:   23958
 k-point 43 :   0.0000 0.5000 0.3333  plane waves:   24000
 k-point 44 :   0.1667 0.5000 0.3333  plane waves:   23992
 k-point 45 :   0.3333 0.5000 0.3333  plane waves:   23932
 k-point 46 :   0.5000 0.5000 0.3333  plane waves:   23904
 k-point 47 :  -0.3333 0.5000 0.3333  plane waves:   23916
 k-point 48 :  -0.1667 0.5000 0.3333  plane waves:   23980
 k-point 49 :   0.0000-0.3333 0.3333  plane waves:   23948
 k-point 50 :   0.1667-0.3333 0.3333  plane waves:   23948
 k-point 51 :   0.3333-0.3333 0.3333  plane waves:   23954
 k-point 52 :   0.5000-0.3333 0.3333  plane waves:   23950
 k-point 53 :  -0.3333-0.3333 0.3333  plane waves:   23976
 k-point 54 :  -0.1667-0.3333 0.3333  plane waves:   23958
 k-point 55 :   0.0000-0.1667 0.3333  plane waves:   23986
 k-point 56 :   0.1667-0.1667 0.3333  plane waves:   23992
 k-point 57 :   0.3333-0.1667 0.3333  plane waves:   23966
 k-point 58 :   0.5000-0.1667 0.3333  plane waves:   23980
 k-point 59 :  -0.3333-0.1667 0.3333  plane waves:   23976
 k-point 60 :  -0.1667-0.1667 0.3333  plane waves:   23980

 maximum and minimum number of plane-waves per node :     24060    23888

 maximum number of plane-waves:     24060
 maximum index in each direction: 
   IXMAX=   11   IYMAX=   11   IZMAX=   22
   IXMIN=  -11   IYMIN=  -11   IZMIN=  -22


 serial   3D FFT for wavefunctions
 parallel 3D FFT for charge:
    minimum data exchange during FFTs selected (reduces bandwidth)


 total amount of memory used by VASP MPI-rank0   403236. kBytes
=======================================================================

   base      :      30000. kBytes
   nonl-proj :     314949. kBytes
   fftplans  :       2735. kBytes
   grid      :      30965. kBytes
   one-center:        995. kBytes
   wavefun   :      23592. kBytes
 
     INWAV:  cpu time   15.5001: real time   15.6696
 Broyden mixing: mesh for mixing (old mesh)
   NGX = 23   NGY = 23   NGZ = 45
  (NGX  = 96   NGY  = 96   NGZ  =180)
  gives a total of  23805 points

 initial charge density was supplied:
 number of electron     171.9999988 magnetization      -0.0000000      0.0000034      0.0000000
 keeping initial charge density in first step


--------------------------------------------------------------------------------------------------------


 Maximum index for augmentation-charges          894 (set IRDMAX)


--------------------------------------------------------------------------------------------------------


 First call to EWALD:  gamma=   0.269
 Maximum number of real-space cells 3x 3x 2
 Maximum number of reciprocal cells 2x 2x 4

    FEWALD:  cpu time    0.0015: real time    0.0015


--------------------------------------- Iteration      1(   1)  ---------------------------------------


    POTLOK:  cpu time    0.2553: real time    0.3162
    SETDIJ:  cpu time    0.5919: real time    0.5936
     EDDAV:  cpu time   77.5445: real time   79.1727
 BZINTS: Fermi energy:  5.108794;172.000000 electrons
         Band energy:***********;  BLOECHL correction:  0.000000
       DOS:  cpu time    0.0404: real time    0.0406
    CHARGE:  cpu time    1.4544: real time    1.4687
    MIXING:  cpu time    0.0026: real time    0.0026
    --------------------------------------------
      LOOP:  cpu time   79.8890: real time   81.5945

 eigenvalue-minimisations  : 30720
 total energy-change (2. order) :-0.8160315E+02  (-0.1936965E+00)
 number of electron     171.9999988 magnetization      -0.0000000      0.0007348      0.0000000
 augmentation part       70.5730016 magnetization      -0.0000000     -0.0008970      0.0000000

 Broyden mixing:
  rms(total) = 0.78908E-01    rms(broyden)= 0.78908E-01
  rms(prec ) = 0.78974E-01
  weight for this iteration     100.00

 Free energy of the ion-electron system (eV)
  ---------------------------------------------------
  alpha Z        PSCENC =       594.41723832
  Ewald energy   TEWEN  =    -15687.01618010
  -Hartree energ DENC   =    -10696.82174761
  -exchange      EXHF   =         0.00000000
  -V(xc)+E(xc)   XCENC  =       821.60545431
  PAW double counting   =     28010.18042445   -28932.57792476
  entropy T*S    EENTRO =         0.00000000
  eigenvalues    EBANDS =     -2696.40669075
  atomic energy  EATOM  =     28505.01627691
  Solvation  Ediel_sol  =         0.00000000
  ---------------------------------------------------
  free energy    TOTEN  =       -81.60314922 eV

  energy without entropy =      -81.60314922  energy(sigma->0) =      -81.60314922


--------------------------------------------------------------------------------------------------------




--------------------------------------- Iteration      1(   2)  ---------------------------------------


    POTLOK:  cpu time    0.1286: real time    0.1326
    SETDIJ:  cpu time    0.5899: real time    0.5918
     EDDAV:  cpu time   80.6778: real time   81.1008
 BZINTS: Fermi energy:  5.217131;172.000000 electrons
         Band energy:***********;  BLOECHL correction:  0.000000
       DOS:  cpu time    0.0404: real time    0.0406
    CHARGE:  cpu time    1.4729: real time    1.4856
    MIXING:  cpu time    0.0020: real time    0.0151
    --------------------------------------------
      LOOP:  cpu time   82.9116: real time   83.3665

 eigenvalue-minimisations  : 30720
 total energy-change (2. order) :-0.9056686E-02  (-0.6575787E-02)
 number of electron     171.9999988 magnetization      -0.0000000      0.0011054      0.0000000
 augmentation part       70.5742709 magnetization      -0.0000000     -0.0016359      0.0000000

 Broyden mixing:
  rms(total) = 0.47242E-01    rms(broyden)= 0.47241E-01
  rms(prec ) = 0.47552E-01
  weight for this iteration     100.00

 eigenvalues of (default mixing * dielectric matrix)
  average eigenvalue GAMMA=   0.6354
  0.6354

 Free energy of the ion-electron system (eV)
  ---------------------------------------------------
  alpha Z        PSCENC =       594.41723832
  Ewald energy   TEWEN  =    -15687.01618010
  -Hartree energ DENC   =    -10696.52388345
  -exchange      EXHF   =         0.00000000
  -V(xc)+E(xc)   XCENC  =       821.59119861
  PAW double counting   =     28011.06675589   -28933.43811172
  entropy T*S    EENTRO =         0.00000000
  eigenvalues    EBANDS =     -2696.72550037
  atomic energy  EATOM  =     28505.01627691
  Solvation  Ediel_sol  =         0.00000000
  ---------------------------------------------------
  free energy    TOTEN  =       -81.61220591 eV

  energy without entropy =      -81.61220591  energy(sigma->0) =      -81.61220591


--------------------------------------------------------------------------------------------------------




--------------------------------------- Iteration      1(   3)  ---------------------------------------


    POTLOK:  cpu time    0.1327: real time    0.1337
    SETDIJ:  cpu time    0.5900: real time    0.5919
     EDDAV:  cpu time  340.8981: real time  342.5288
 BZINTS: Fermi energy:  5.101941;172.000000 electrons
         Band energy:***********;  BLOECHL correction:  0.000000
       DOS:  cpu time    0.0337: real time    0.0338
    CHARGE:  cpu time    1.4723: real time    1.4848
    MIXING:  cpu time    0.0017: real time    0.0017
    --------------------------------------------
      LOOP:  cpu time  343.1285: real time  344.7747

 eigenvalue-minimisations  : 58112
 total energy-change (2. order) :-0.1175572E-02  (-0.1638675E-02)
 number of electron     171.9999988 magnetization      -0.0000000      0.0004772      0.0000000
 augmentation part       70.5748956 magnetization      -0.0000000      0.0010122      0.0000000

 Broyden mixing:
  rms(total) = 0.14032E-01    rms(broyden)= 0.14031E-01
  rms(prec ) = 0.15083E-01
  weight for this iteration     100.00

 eigenvalues of (default mixing * dielectric matrix)
  average eigenvalue GAMMA=   0.5942
  0.6683  0.5202

 Free energy of the ion-electron system (eV)
  ---------------------------------------------------
  alpha Z        PSCENC =       594.41723832
  Ewald energy   TEWEN  =    -15687.01618010
  -Hartree energ DENC   =    -10696.71893285
  -exchange      EXHF   =         0.00000000
  -V(xc)+E(xc)   XCENC  =       821.60026791
  PAW double counting   =     28011.84386956   -28934.23782689
  entropy T*S    EENTRO =         0.00000000
  eigenvalues    EBANDS =     -2696.51809434
  atomic energy  EATOM  =     28505.01627691
  Solvation  Ediel_sol  =         0.00000000
  ---------------------------------------------------
  free energy    TOTEN  =       -81.61338148 eV

  energy without entropy =      -81.61338148  energy(sigma->0) =      -81.61338148


--------------------------------------------------------------------------------------------------------




--------------------------------------- Iteration      1(   4)  ---------------------------------------


    POTLOK:  cpu time    0.1324: real time    0.1334
    SETDIJ:  cpu time    0.5895: real time    0.5914
     EDDAV:  cpu time   93.0648: real time   93.5444
 BZINTS: Fermi energy:  5.079780;172.000000 electrons
         Band energy:***********;  BLOECHL correction:  0.000000
       DOS:  cpu time    0.0335: real time    0.0336
    CHARGE:  cpu time    1.4692: real time    1.4819
    MIXING:  cpu time    0.0017: real time    0.0017
    --------------------------------------------
      LOOP:  cpu time   95.2911: real time   95.7864

 eigenvalue-minimisations  : 32000
 total energy-change (2. order) :-0.8235136E-04  (-0.2674711E-02)
 number of electron     171.9999988 magnetization       0.0000000      0.0001034      0.0000000
 augmentation part       70.5740817 magnetization       0.0000000     -0.0028384      0.0000000

 Broyden mixing:
  rms(total) = 0.14061E-01    rms(broyden)= 0.14061E-01
  rms(prec ) = 0.14623E-01
  weight for this iteration     100.00

 eigenvalues of (default mixing * dielectric matrix)
  average eigenvalue GAMMA=   0.7534
  1.3513  0.6263  0.2828

 Free energy of the ion-electron system (eV)
  ---------------------------------------------------
  alpha Z        PSCENC =       594.41723832
  Ewald energy   TEWEN  =    -15687.01618010
  -Hartree energ DENC   =    -10696.55419110
  -exchange      EXHF   =         0.00000000
  -V(xc)+E(xc)   XCENC  =       821.58964679
  PAW double counting   =     28012.32492995   -28934.72322059
  entropy T*S    EENTRO =         0.00000000
  eigenvalues    EBANDS =     -2696.66796401
  atomic energy  EATOM  =     28505.01627691
  Solvation  Ediel_sol  =         0.00000000
  ---------------------------------------------------
  free energy    TOTEN  =       -81.61346383 eV

  energy without entropy =      -81.61346383  energy(sigma->0) =      -81.61346383


--------------------------------------------------------------------------------------------------------




--------------------------------------- Iteration      1(   5)  ---------------------------------------


    POTLOK:  cpu time    0.1321: real time    0.1330
    SETDIJ:  cpu time    0.5887: real time    0.5906
     EDDAV:  cpu time  363.4270: real time  365.1572
 BZINTS: Fermi energy:  5.069896;172.000000 electrons
         Band energy:***********;  BLOECHL correction:  0.000000
       DOS:  cpu time    0.0336: real time    0.0346
 


 total charge     
 
# of ion       s       p       d       tot
------------------------------------------
    1        1.317   2.400   0.000   3.717
    2        1.317   2.400   0.000   3.717
    3        1.319   2.392   0.000   3.711
    4        1.313   2.409   0.000   3.722
    5        1.317   2.400   0.000   3.717
    6        1.317   2.400   0.000   3.717
    7        1.319   2.392   0.000   3.711
    8        1.313   2.409   0.000   3.722
    9        0.257   6.199   8.917  15.374
   10        0.257   6.199   8.917  15.373
   11        0.257   6.199   8.917  15.374
   12        0.257   6.199   8.917  15.373
   13        0.343   6.343   5.830  12.516
   14        0.343   6.343   5.830  12.516
   15        0.343   6.343   5.830  12.516
   16        0.343   6.343   5.830  12.516
--------------------------------------------------
tot         12.934  69.371  58.990 141.295
 


 magnetization (x)
 
# of ion       s       p       d       tot
------------------------------------------
    1       -0.000  -0.000   0.000  -0.000
    2        0.000   0.000   0.000   0.000
    3       -0.000  -0.000   0.000  -0.000
    4       -0.000  -0.000   0.000  -0.000
    5        0.000   0.000   0.000   0.000
    6       -0.000  -0.000   0.000  -0.000
    7       -0.000  -0.000   0.000  -0.000
    8       -0.000  -0.000   0.000  -0.000
    9       -0.000  -0.000  -0.000  -0.000
   10        0.000   0.000  -0.000  -0.000
   11       -0.000  -0.000  -0.000  -0.000
   12        0.000   0.000  -0.000  -0.000
   13       -0.000  -0.000   0.001   0.001
   14       -0.000   0.000  -0.001  -0.001
   15       -0.000  -0.000   0.001   0.001
   16       -0.000   0.000  -0.001  -0.001
--------------------------------------------------
tot         -0.000  -0.000  -0.000  -0.001
 


 magnetization (y)
 
# of ion       s       p       d       tot
------------------------------------------
    1        0.000   0.000   0.000   0.000
    2        0.000   0.000   0.000   0.000
    3       -0.000   0.000   0.000   0.000
    4        0.000   0.000   0.000   0.000
    5        0.000   0.000   0.000   0.000
    6        0.000   0.000   0.000   0.000
    7       -0.000   0.000   0.000   0.000
    8        0.000   0.000   0.000   0.000
    9       -0.000   0.000   0.000   0.000
   10       -0.000   0.000   0.000   0.000
   11       -0.000   0.000   0.000   0.000
   12       -0.000   0.000   0.000   0.000
   13        0.000   0.000  -0.001  -0.001
   14        0.000   0.000  -0.001  -0.001
   15        0.000   0.000  -0.001  -0.001
   16        0.000   0.000  -0.001  -0.001
--------------------------------------------------
tot          0.000   0.002  -0.002   0.000
 


 magnetization (z)
 
# of ion       s       p       d       tot
------------------------------------------
    1       -0.000  -0.042   0.000  -0.042
    2        0.000   0.042   0.000   0.042
    3        0.000   0.000   0.000   0.000
    4       -0.000  -0.000   0.000  -0.000
    5        0.000   0.042   0.000   0.042
    6       -0.000  -0.042   0.000  -0.042
    7        0.000   0.000   0.000   0.000
    8       -0.000  -0.000   0.000  -0.000
    9        0.000   0.001  -0.008  -0.006
   10       -0.000  -0.001   0.008   0.006
   11        0.000   0.001  -0.008  -0.006
   12       -0.000  -0.001   0.008   0.006
   13        0.021   0.054   3.651   3.726
   14       -0.021  -0.054  -3.651  -3.726
   15        0.021   0.054   3.651   3.726
   16       -0.021  -0.054  -3.651  -3.726
--------------------------------------------------
tot         -0.000  -0.000   0.001   0.000
 
    CHARGE:  cpu time    1.6847: real time    1.6979
    MIXING:  cpu time    0.0018: real time    0.0019
    --------------------------------------------
      LOOP:  cpu time  365.8679: real time  367.6151

 eigenvalue-minimisations  : 59392
 total energy-change (2. order) :-0.3711333E-03  (-0.2376927E-02)
 number of electron     171.9999988 magnetization       0.0000000     -0.0007549      0.0000000
 augmentation part       70.5747869 magnetization       0.0000000      0.0013373      0.0000000

 Broyden mixing:
  rms(total) = 0.85131E-02    rms(broyden)= 0.85129E-02
  rms(prec ) = 0.88050E-02
  weight for this iteration     100.00

 eigenvalues of (default mixing * dielectric matrix)
  average eigenvalue GAMMA=   0.7134
  1.5811  0.6303  0.3602  0.2822

 Free energy of the ion-electron system (eV)
  ---------------------------------------------------
  alpha Z        PSCENC =       594.41723832
  Ewald energy   TEWEN  =    -15687.01618010
  -Hartree energ DENC   =    -10696.57965420
  -exchange      EXHF   =         0.00000000
  -V(xc)+E(xc)   XCENC  =       821.58770717
  PAW double counting   =     28013.49372646   -28935.90108692
  entropy T*S    EENTRO =         0.00000000
  eigenvalues    EBANDS =     -2696.63186261
  atomic energy  EATOM  =     28505.01627691
  Solvation  Ediel_sol  =         0.00000000
  ---------------------------------------------------
  free energy    TOTEN  =       -81.61383496 eV

  energy without entropy =      -81.61383496  energy(sigma->0) =      -81.61383496


--------------------------------------------------------------------------------------------------------




--------------------------------------- Iteration      1(   6)  ---------------------------------------


    POTLOK:  cpu time    0.1302: real time    0.1331
    SETDIJ:  cpu time    0.5899: real time    0.5920
     EDDAV:  cpu time   86.4956: real time   86.9490
 BZINTS: Fermi energy:  5.070659;172.000000 electrons
         Band energy:***********;  BLOECHL correction:  0.000000
       DOS:  cpu time    0.0336: real time    0.0337
    CHARGE:  cpu time    1.6451: real time    1.6586
    MIXING:  cpu time    0.0020: real time    0.0020
    --------------------------------------------
      LOOP:  cpu time   88.8964: real time   89.3685

 eigenvalue-minimisations  : 31232
 total energy-change (2. order) : 0.1558677E-03  (-0.1587031E-02)
 number of electron     171.9999988 magnetization       0.0000000     -0.0012580      0.0000000
 augmentation part       70.5746203 magnetization       0.0000000     -0.0038126      0.0000000

 Broyden mixing:
  rms(total) = 0.54355E-02    rms(broyden)= 0.54353E-02
  rms(prec ) = 0.54392E-02
  weight for this iteration     100.00

 eigenvalues of (default mixing * dielectric matrix)
  average eigenvalue GAMMA=   0.7502
  1.8296  0.7720  0.6191  0.3117  0.2187

 Free energy of the ion-electron system (eV)
  ---------------------------------------------------
  alpha Z        PSCENC =       594.41723832
  Ewald energy   TEWEN  =    -15687.01618010
  -Hartree energ DENC   =    -10696.63745477
  -exchange      EXHF   =         0.00000000
  -V(xc)+E(xc)   XCENC  =       821.59032070
  PAW double counting   =     28013.86318404   -28936.27459523
  entropy T*S    EENTRO =         0.00000000
  eigenvalues    EBANDS =     -2696.57246897
  atomic energy  EATOM  =     28505.01627691
  Solvation  Ediel_sol  =         0.00000000
  ---------------------------------------------------
  free energy    TOTEN  =       -81.61367910 eV

  energy without entropy =      -81.61367910  energy(sigma->0) =      -81.61367910


--------------------------------------------------------------------------------------------------------




--------------------------------------- Iteration      1(   7)  ---------------------------------------


    POTLOK:  cpu time    0.1449: real time    0.1458
    SETDIJ:  cpu time    0.5906: real time    0.5925
     EDDAV:  cpu time  250.9157: real time  252.1270
 BZINTS: Fermi energy:  5.071666;172.000000 electrons
         Band energy:***********;  BLOECHL correction:  0.000000
       DOS:  cpu time    0.0336: real time    0.0338
    CHARGE:  cpu time    1.4610: real time    1.4734
    MIXING:  cpu time    0.0020: real time    0.0020
    --------------------------------------------
      LOOP:  cpu time  253.1478: real time  254.3745

 eigenvalue-minimisations  : 47360
 total energy-change (2. order) :-0.1202475E-03  (-0.7846192E-03)
 number of electron     171.9999988 magnetization       0.0000000     -0.0021892      0.0000000
 augmentation part       70.5741936 magnetization       0.0000000      0.0015569      0.0000000

 Broyden mixing:
  rms(total) = 0.37359E-02    rms(broyden)= 0.37359E-02
  rms(prec ) = 0.37550E-02
  weight for this iteration     100.00

 eigenvalues of (default mixing * dielectric matrix)
  average eigenvalue GAMMA=   0.7077
  1.9202  0.9031  0.6225  0.3191  0.2768  0.2048

 Free energy of the ion-electron system (eV)
  ---------------------------------------------------
  alpha Z        PSCENC =       594.41723832
  Ewald energy   TEWEN  =    -15687.01618010
  -Hartree energ DENC   =    -10696.65892954
  -exchange      EXHF   =         0.00000000
  -V(xc)+E(xc)   XCENC  =       821.59104658
  PAW double counting   =     28014.10837872   -28936.52127403
  entropy T*S    EENTRO =         0.00000000
  eigenvalues    EBANDS =     -2696.55035620
  atomic energy  EATOM  =     28505.01627691
  Solvation  Ediel_sol  =         0.00000000
  ---------------------------------------------------
  free energy    TOTEN  =       -81.61379934 eV

  energy without entropy =      -81.61379934  energy(sigma->0) =      -81.61379934


--------------------------------------------------------------------------------------------------------




--------------------------------------- Iteration      1(   8)  ---------------------------------------


    POTLOK:  cpu time    0.1314: real time    0.1328
    SETDIJ:  cpu time    0.5889: real time    0.5909
     EDDAV:  cpu time  102.1376: real time  102.6660
 BZINTS: Fermi energy:  5.069230;172.000000 electrons
         Band energy:***********;  BLOECHL correction:  0.000000
       DOS:  cpu time    0.0335: real time    0.0336
    CHARGE:  cpu time    1.4603: real time    1.4734
    MIXING:  cpu time    0.0021: real time    0.0021
    --------------------------------------------
      LOOP:  cpu time  104.3537: real time  104.8990

 eigenvalue-minimisations  : 32768
 total energy-change (2. order) :-0.6450797E-04  (-0.5681515E-03)
 number of electron     171.9999988 magnetization       0.0000000     -0.0026604      0.0000000
 augmentation part       70.5742997 magnetization       0.0000000     -0.0042216      0.0000000

 Broyden mixing:
  rms(total) = 0.27429E-02    rms(broyden)= 0.27429E-02
  rms(prec ) = 0.27464E-02
  weight for this iteration     100.00

 eigenvalues of (default mixing * dielectric matrix)
  average eigenvalue GAMMA=   0.6975
  2.0269  1.0623  0.6224  0.4727  0.3131  0.2210  0.1638

 Free energy of the ion-electron system (eV)
  ---------------------------------------------------
  alpha Z        PSCENC =       594.41723832
  Ewald energy   TEWEN  =    -15687.01618010
  -Hartree energ DENC   =    -10696.64877499
  -exchange      EXHF   =         0.00000000
  -V(xc)+E(xc)   XCENC  =       821.59039977
  PAW double counting   =     28014.12125544   -28936.53269902
  entropy T*S    EENTRO =         0.00000000
  eigenvalues    EBANDS =     -2696.56138018
  atomic energy  EATOM  =     28505.01627691
  Solvation  Ediel_sol  =         0.00000000
  ---------------------------------------------------
  free energy    TOTEN  =       -81.61386385 eV

  energy without entropy =      -81.61386385  energy(sigma->0) =      -81.61386385


--------------------------------------------------------------------------------------------------------




--------------------------------------- Iteration      1(   9)  ---------------------------------------


    POTLOK:  cpu time    0.1321: real time    0.1332
    SETDIJ:  cpu time    0.5884: real time    0.5902
     EDDAV:  cpu time  167.6252: real time  168.4561
 BZINTS: Fermi energy:  5.070450;172.000000 electrons
         Band energy:***********;  BLOECHL correction:  0.000000
       DOS:  cpu time    0.0334: real time    0.0335
    CHARGE:  cpu time    1.4626: real time    1.4751
    MIXING:  cpu time    0.0022: real time    0.0022
    --------------------------------------------
      LOOP:  cpu time  169.8439: real time  170.6904

 eigenvalue-minimisations  : 39168
 total energy-change (2. order) : 0.2091809E-04  (-0.2644564E-03)
 number of electron     171.9999988 magnetization       0.0000000     -0.0033939      0.0000000
 augmentation part       70.5744653 magnetization       0.0000000     -0.0008075      0.0000000

 Broyden mixing:
  rms(total) = 0.16411E-02    rms(broyden)= 0.16410E-02
  rms(prec ) = 0.16505E-02
  weight for this iteration     100.00

 eigenvalues of (default mixing * dielectric matrix)
  average eigenvalue GAMMA=   0.6826
  2.1285  1.1801  0.6113  0.5971  0.2815  0.2815  0.2302  0.1506

 Free energy of the ion-electron system (eV)
  ---------------------------------------------------
  alpha Z        PSCENC =       594.41723832
  Ewald energy   TEWEN  =    -15687.01618010
  -Hartree energ DENC   =    -10696.63973419
  -exchange      EXHF   =         0.00000000
  -V(xc)+E(xc)   XCENC  =       821.59010239
  PAW double counting   =     28014.10157847   -28936.51156355
  entropy T*S    EENTRO =         0.00000000
  eigenvalues    EBANDS =     -2696.57156119
  atomic energy  EATOM  =     28505.01627691
  Solvation  Ediel_sol  =         0.00000000
  ---------------------------------------------------
  free energy    TOTEN  =       -81.61384293 eV

  energy without entropy =      -81.61384293  energy(sigma->0) =      -81.61384293


--------------------------------------------------------------------------------------------------------




--------------------------------------- Iteration      1(  10)  ---------------------------------------


    POTLOK:  cpu time    0.1306: real time    0.1327
    SETDIJ:  cpu time    0.5899: real time    0.5920
     EDDAV:  cpu time   98.2534: real time   98.7633
 BZINTS: Fermi energy:  5.069926;172.000000 electrons
         Band energy:***********;  BLOECHL correction:  0.000000
       DOS:  cpu time    0.0337: real time    0.0338
 


 total charge     
 
# of ion       s       p       d       tot
------------------------------------------
    1        1.317   2.400   0.000   3.717
    2        1.317   2.400   0.000   3.717
    3        1.319   2.392   0.000   3.711
    4        1.313   2.409   0.000   3.722
    5        1.317   2.400   0.000   3.717
    6        1.317   2.400   0.000   3.717
    7        1.319   2.392   0.000   3.711
    8        1.313   2.409   0.000   3.722
    9        0.257   6.199   8.917  15.373
   10        0.257   6.199   8.917  15.373
[...]
     0.0000000     0.0000000     0.0000000     0.0000000     0.0000000     0.0000000     0.0000000

 Ion:    5  E_soc:     -0.0017536
 l=   1
     0.0000000    -0.0002520    -0.0003652
    -0.0002520     0.0000000    -0.0002596
    -0.0003652    -0.0002596     0.0000000
 l=   2
     0.0000000     0.0000000     0.0000000     0.0000000     0.0000000
     0.0000000     0.0000000     0.0000000     0.0000000     0.0000000
     0.0000000     0.0000000     0.0000000     0.0000000     0.0000000
     0.0000000     0.0000000     0.0000000     0.0000000     0.0000000
     0.0000000     0.0000000     0.0000000     0.0000000     0.0000000
 l=   3
     0.0000000     0.0000000     0.0000000     0.0000000     0.0000000     0.0000000     0.0000000
     0.0000000     0.0000000     0.0000000     0.0000000     0.0000000     0.0000000     0.0000000
     0.0000000     0.0000000     0.0000000     0.0000000     0.0000000     0.0000000     0.0000000
     0.0000000     0.0000000     0.0000000     0.0000000     0.0000000     0.0000000     0.0000000
     0.0000000     0.0000000     0.0000000     0.0000000     0.0000000     0.0000000     0.0000000
     0.0000000     0.0000000     0.0000000     0.0000000     0.0000000     0.0000000     0.0000000
     0.0000000     0.0000000     0.0000000     0.0000000     0.0000000     0.0000000     0.0000000

 Ion:    6  E_soc:     -0.0017536
 l=   1
     0.0000000    -0.0002520    -0.0003652
    -0.0002520     0.0000000    -0.0002596
    -0.0003652    -0.0002596     0.0000000
 l=   2
     0.0000000     0.0000000     0.0000000     0.0000000     0.0000000
     0.0000000     0.0000000     0.0000000     0.0000000     0.0000000
     0.0000000     0.0000000     0.0000000     0.0000000     0.0000000
     0.0000000     0.0000000     0.0000000     0.0000000     0.0000000
     0.0000000     0.0000000     0.0000000     0.0000000     0.0000000
 l=   3
     0.0000000     0.0000000     0.0000000     0.0000000     0.0000000     0.0000000     0.0000000
     0.0000000     0.0000000     0.0000000     0.0000000     0.0000000     0.0000000     0.0000000
     0.0000000     0.0000000     0.0000000     0.0000000     0.0000000     0.0000000     0.0000000
     0.0000000     0.0000000     0.0000000     0.0000000     0.0000000     0.0000000     0.0000000
     0.0000000     0.0000000     0.0000000     0.0000000     0.0000000     0.0000000     0.0000000
     0.0000000     0.0000000     0.0000000     0.0000000     0.0000000     0.0000000     0.0000000
     0.0000000     0.0000000     0.0000000     0.0000000     0.0000000     0.0000000     0.0000000

 Ion:    7  E_soc:     -0.0018063
 l=   1
     0.0000000    -0.0002547    -0.0003981
    -0.0002547     0.0000000    -0.0002503
    -0.0003981    -0.0002503     0.0000000
 l=   2
     0.0000000     0.0000000     0.0000000     0.0000000     0.0000000
     0.0000000     0.0000000     0.0000000     0.0000000     0.0000000
     0.0000000     0.0000000     0.0000000     0.0000000     0.0000000
     0.0000000     0.0000000     0.0000000     0.0000000     0.0000000
     0.0000000     0.0000000     0.0000000     0.0000000     0.0000000
 l=   3
     0.0000000     0.0000000     0.0000000     0.0000000     0.0000000     0.0000000     0.0000000
     0.0000000     0.0000000     0.0000000     0.0000000     0.0000000     0.0000000     0.0000000
     0.0000000     0.0000000     0.0000000     0.0000000     0.0000000     0.0000000     0.0000000
     0.0000000     0.0000000     0.0000000     0.0000000     0.0000000     0.0000000     0.0000000
     0.0000000     0.0000000     0.0000000     0.0000000     0.0000000     0.0000000     0.0000000
     0.0000000     0.0000000     0.0000000     0.0000000     0.0000000     0.0000000     0.0000000
     0.0000000     0.0000000     0.0000000     0.0000000     0.0000000     0.0000000     0.0000000

 Ion:    8  E_soc:     -0.0016678
 l=   1
     0.0000000    -0.0002584    -0.0003245
    -0.0002584     0.0000000    -0.0002510
    -0.0003245    -0.0002510     0.0000000
 l=   2
     0.0000000     0.0000000     0.0000000     0.0000000     0.0000000
     0.0000000     0.0000000     0.0000000     0.0000000     0.0000000
     0.0000000     0.0000000     0.0000000     0.0000000     0.0000000
     0.0000000     0.0000000     0.0000000     0.0000000     0.0000000
     0.0000000     0.0000000     0.0000000     0.0000000     0.0000000
 l=   3
     0.0000000     0.0000000     0.0000000     0.0000000     0.0000000     0.0000000     0.0000000
     0.0000000     0.0000000     0.0000000     0.0000000     0.0000000     0.0000000     0.0000000
     0.0000000     0.0000000     0.0000000     0.0000000     0.0000000     0.0000000     0.0000000
     0.0000000     0.0000000     0.0000000     0.0000000     0.0000000     0.0000000     0.0000000
     0.0000000     0.0000000     0.0000000     0.0000000     0.0000000     0.0000000     0.0000000
     0.0000000     0.0000000     0.0000000     0.0000000     0.0000000     0.0000000     0.0000000
     0.0000000     0.0000000     0.0000000     0.0000000     0.0000000     0.0000000     0.0000000

 Ion:    9  E_soc:     -0.0619114
 l=   1
     0.0000000    -0.0085658    -0.0085588
    -0.0085658     0.0000000    -0.0085655
    -0.0085588    -0.0085655     0.0000000
 l=   2
     0.0000000    -0.0004011     0.0000000    -0.0003931    -0.0013714
    -0.0004011     0.0000000    -0.0010758    -0.0003027    -0.0003438
     0.0000000    -0.0010758     0.0000000    -0.0010441     0.0000000
    -0.0003931    -0.0003027    -0.0010441     0.0000000    -0.0003337
    -0.0013714    -0.0003438     0.0000000    -0.0003337     0.0000000
 l=   3
     0.0000000     0.0000000     0.0000000     0.0000000     0.0000000     0.0000000     0.0000000
     0.0000000     0.0000000     0.0000000     0.0000000     0.0000000     0.0000000     0.0000000
     0.0000000     0.0000000     0.0000000     0.0000000     0.0000000     0.0000000     0.0000000
     0.0000000     0.0000000     0.0000000     0.0000000     0.0000000     0.0000000     0.0000000
     0.0000000     0.0000000     0.0000000     0.0000000     0.0000000     0.0000000     0.0000000
     0.0000000     0.0000000     0.0000000     0.0000000     0.0000000     0.0000000     0.0000000
     0.0000000     0.0000000     0.0000000     0.0000000     0.0000000     0.0000000     0.0000000

 Ion:   10  E_soc:     -0.0619114
 l=   1
     0.0000000    -0.0085658    -0.0085588
    -0.0085658     0.0000000    -0.0085655
    -0.0085588    -0.0085655     0.0000000
 l=   2
     0.0000000    -0.0004011     0.0000000    -0.0003931    -0.0013714
    -0.0004011     0.0000000    -0.0010758    -0.0003027    -0.0003438
     0.0000000    -0.0010758     0.0000000    -0.0010441     0.0000000
    -0.0003931    -0.0003027    -0.0010441     0.0000000    -0.0003337
    -0.0013714    -0.0003438     0.0000000    -0.0003337     0.0000000
 l=   3
     0.0000000     0.0000000     0.0000000     0.0000000     0.0000000     0.0000000     0.0000000
     0.0000000     0.0000000     0.0000000     0.0000000     0.0000000     0.0000000     0.0000000
     0.0000000     0.0000000     0.0000000     0.0000000     0.0000000     0.0000000     0.0000000
     0.0000000     0.0000000     0.0000000     0.0000000     0.0000000     0.0000000     0.0000000
     0.0000000     0.0000000     0.0000000     0.0000000     0.0000000     0.0000000     0.0000000
     0.0000000     0.0000000     0.0000000     0.0000000     0.0000000     0.0000000     0.0000000
     0.0000000     0.0000000     0.0000000     0.0000000     0.0000000     0.0000000     0.0000000

 Ion:   11  E_soc:     -0.0619114
 l=   1
     0.0000000    -0.0085658    -0.0085588
    -0.0085658     0.0000000    -0.0085655
    -0.0085588    -0.0085655     0.0000000
 l=   2
     0.0000000    -0.0004011     0.0000000    -0.0003931    -0.0013714
    -0.0004011     0.0000000    -0.0010758    -0.0003027    -0.0003438
     0.0000000    -0.0010758     0.0000000    -0.0010441     0.0000000
    -0.0003931    -0.0003027    -0.0010441     0.0000000    -0.0003337
    -0.0013714    -0.0003438     0.0000000    -0.0003337     0.0000000
 l=   3
     0.0000000     0.0000000     0.0000000     0.0000000     0.0000000     0.0000000     0.0000000
     0.0000000     0.0000000     0.0000000     0.0000000     0.0000000     0.0000000     0.0000000
     0.0000000     0.0000000     0.0000000     0.0000000     0.0000000     0.0000000     0.0000000
     0.0000000     0.0000000     0.0000000     0.0000000     0.0000000     0.0000000     0.0000000
     0.0000000     0.0000000     0.0000000     0.0000000     0.0000000     0.0000000     0.0000000
     0.0000000     0.0000000     0.0000000     0.0000000     0.0000000     0.0000000     0.0000000
     0.0000000     0.0000000     0.0000000     0.0000000     0.0000000     0.0000000     0.0000000

 Ion:   12  E_soc:     -0.0619114
 l=   1
     0.0000000    -0.0085658    -0.0085588
    -0.0085658     0.0000000    -0.0085655
    -0.0085588    -0.0085655     0.0000000
 l=   2
     0.0000000    -0.0004011     0.0000000    -0.0003931    -0.0013714
    -0.0004011     0.0000000    -0.0010758    -0.0003027    -0.0003438
     0.0000000    -0.0010758     0.0000000    -0.0010441     0.0000000
    -0.0003931    -0.0003027    -0.0010441     0.0000000    -0.0003337
    -0.0013714    -0.0003438     0.0000000    -0.0003337     0.0000000
 l=   3
     0.0000000     0.0000000     0.0000000     0.0000000     0.0000000     0.0000000     0.0000000
     0.0000000     0.0000000     0.0000000     0.0000000     0.0000000     0.0000000     0.0000000
     0.0000000     0.0000000     0.0000000     0.0000000     0.0000000     0.0000000     0.0000000
     0.0000000     0.0000000     0.0000000     0.0000000     0.0000000     0.0000000     0.0000000
     0.0000000     0.0000000     0.0000000     0.0000000     0.0000000     0.0000000     0.0000000
     0.0000000     0.0000000     0.0000000     0.0000000     0.0000000     0.0000000     0.0000000
     0.0000000     0.0000000     0.0000000     0.0000000     0.0000000     0.0000000     0.0000000

 Ion:   13  E_soc:     -0.0366609
 l=   1
     0.0000000    -0.0042872    -0.0043114
    -0.0042872     0.0000000    -0.0042828
    -0.0043114    -0.0042828     0.0000000
 l=   2
     0.0000000    -0.0003534     0.0000000    -0.0003553    -0.0009752
    -0.0003534     0.0000000    -0.0013024    -0.0002860    -0.0004193
     0.0000000    -0.0013024     0.0000000    -0.0013235     0.0000000
    -0.0003553    -0.0002860    -0.0013235     0.0000000    -0.0004339
    -0.0009752    -0.0004193     0.0000000    -0.0004339     0.0000000
 l=   3
     0.0000000     0.0000000     0.0000000     0.0000000     0.0000000     0.0000000     0.0000000
     0.0000000     0.0000000     0.0000000     0.0000000     0.0000000     0.0000000     0.0000000
     0.0000000     0.0000000     0.0000000     0.0000000     0.0000000     0.0000000     0.0000000
     0.0000000     0.0000000     0.0000000     0.0000000     0.0000000     0.0000000     0.0000000
     0.0000000     0.0000000     0.0000000     0.0000000     0.0000000     0.0000000     0.0000000
     0.0000000     0.0000000     0.0000000     0.0000000     0.0000000     0.0000000     0.0000000
     0.0000000     0.0000000     0.0000000     0.0000000     0.0000000     0.0000000     0.0000000

 Ion:   14  E_soc:     -0.0366609
 l=   1
     0.0000000    -0.0042872    -0.0043114
    -0.0042872     0.0000000    -0.0042828
    -0.0043114    -0.0042828     0.0000000
 l=   2
     0.0000000    -0.0003534     0.0000000    -0.0003553    -0.0009752
    -0.0003534     0.0000000    -0.0013024    -0.0002860    -0.0004193
     0.0000000    -0.0013024     0.0000000    -0.0013235     0.0000000
    -0.0003553    -0.0002860    -0.0013235     0.0000000    -0.0004339
    -0.0009752    -0.0004193     0.0000000    -0.0004339     0.0000000
 l=   3
     0.0000000     0.0000000     0.0000000     0.0000000     0.0000000     0.0000000     0.0000000
     0.0000000     0.0000000     0.0000000     0.0000000     0.0000000     0.0000000     0.0000000
     0.0000000     0.0000000     0.0000000     0.0000000     0.0000000     0.0000000     0.0000000
     0.0000000     0.0000000     0.0000000     0.0000000     0.0000000     0.0000000     0.0000000
     0.0000000     0.0000000     0.0000000     0.0000000     0.0000000     0.0000000     0.0000000
     0.0000000     0.0000000     0.0000000     0.0000000     0.0000000     0.0000000     0.0000000
     0.0000000     0.0000000     0.0000000     0.0000000     0.0000000     0.0000000     0.0000000

 Ion:   15  E_soc:     -0.0366609
 l=   1
     0.0000000    -0.0042872    -0.0043114
    -0.0042872     0.0000000    -0.0042828
    -0.0043114    -0.0042828     0.0000000
 l=   2
     0.0000000    -0.0003534     0.0000000    -0.0003553    -0.0009752
    -0.0003534     0.0000000    -0.0013024    -0.0002860    -0.0004193
     0.0000000    -0.0013024     0.0000000    -0.0013235     0.0000000
    -0.0003553    -0.0002860    -0.0013235     0.0000000    -0.0004339
    -0.0009752    -0.0004193     0.0000000    -0.0004339     0.0000000
 l=   3
     0.0000000     0.0000000     0.0000000     0.0000000     0.0000000     0.0000000     0.0000000
     0.0000000     0.0000000     0.0000000     0.0000000     0.0000000     0.0000000     0.0000000
     0.0000000     0.0000000     0.0000000     0.0000000     0.0000000     0.0000000     0.0000000
     0.0000000     0.0000000     0.0000000     0.0000000     0.0000000     0.0000000     0.0000000
     0.0000000     0.0000000     0.0000000     0.0000000     0.0000000     0.0000000     0.0000000
     0.0000000     0.0000000     0.0000000     0.0000000     0.0000000     0.0000000     0.0000000
     0.0000000     0.0000000     0.0000000     0.0000000     0.0000000     0.0000000     0.0000000

 Ion:   16  E_soc:     -0.0366609
 l=   1
     0.0000000    -0.0042872    -0.0043114
    -0.0042872     0.0000000    -0.0042828
    -0.0043114    -0.0042828     0.0000000
 l=   2
     0.0000000    -0.0003534     0.0000000    -0.0003553    -0.0009752
    -0.0003534     0.0000000    -0.0013024    -0.0002860    -0.0004193
     0.0000000    -0.0013024     0.0000000    -0.0013235     0.0000000
    -0.0003553    -0.0002860    -0.0013235     0.0000000    -0.0004339
    -0.0009752    -0.0004193     0.0000000    -0.0004339     0.0000000
 l=   3
     0.0000000     0.0000000     0.0000000     0.0000000     0.0000000     0.0000000     0.0000000
     0.0000000     0.0000000     0.0000000     0.0000000     0.0000000     0.0000000     0.0000000
     0.0000000     0.0000000     0.0000000     0.0000000     0.0000000     0.0000000     0.0000000
     0.0000000     0.0000000     0.0000000     0.0000000     0.0000000     0.0000000     0.0000000
     0.0000000     0.0000000     0.0000000     0.0000000     0.0000000     0.0000000     0.0000000
     0.0000000     0.0000000     0.0000000     0.0000000     0.0000000     0.0000000     0.0000000
     0.0000000     0.0000000     0.0000000     0.0000000     0.0000000     0.0000000     0.0000000
 


 total charge     
 
# of ion       s       p       d       tot
------------------------------------------
    1        1.317   2.400   0.000   3.717
    2        1.317   2.400   0.000   3.717
    3        1.319   2.392   0.000   3.711
    4        1.313   2.409   0.000   3.722
    5        1.317   2.400   0.000   3.717
    6        1.317   2.400   0.000   3.717
    7        1.319   2.392   0.000   3.711
    8        1.313   2.409   0.000   3.722
    9        0.257   6.199   8.917  15.373
   10        0.257   6.199   8.917  15.373
   11        0.257   6.199   8.917  15.373
   12        0.257   6.199   8.917  15.373
   13        0.343   6.343   5.831  12.517
   14        0.343   6.343   5.831  12.517
   15        0.343   6.343   5.831  12.517
   16        0.343   6.343   5.831  12.517
--------------------------------------------------
tot         12.934  69.370  58.990 141.294
 


 magnetization (x)
 
# of ion       s       p       d       tot
------------------------------------------
    1       -0.000   0.001   0.000   0.001
    2        0.000  -0.001   0.000  -0.001
    3       -0.000  -0.000   0.000  -0.000
    4       -0.000  -0.000   0.000  -0.000
    5        0.000  -0.001   0.000  -0.001
    6       -0.000   0.001   0.000   0.001
    7       -0.000  -0.000   0.000  -0.000
    8       -0.000  -0.000   0.000  -0.000
    9       -0.000  -0.000   0.000   0.000
   10        0.000   0.000  -0.000  -0.000
   11       -0.000  -0.000   0.000   0.000
   12        0.000   0.000  -0.000  -0.000
   13       -0.000  -0.001  -0.050  -0.051
   14        0.000   0.001   0.050   0.051
   15       -0.000  -0.001  -0.050  -0.051
   16        0.000   0.001   0.050   0.051
--------------------------------------------------
tot         -0.000  -0.001  -0.001  -0.001
 


 magnetization (y)
 
# of ion       s       p       d       tot
------------------------------------------
    1       -0.000  -0.000   0.000  -0.000
    2       -0.000  -0.000   0.000  -0.000
    3       -0.000   0.000   0.000   0.000
    4        0.000   0.000   0.000   0.000
    5       -0.000  -0.000   0.000  -0.000
    6       -0.000  -0.000   0.000  -0.000
    7       -0.000   0.000   0.000   0.000
    8        0.000   0.000   0.000   0.000
    9       -0.000   0.000  -0.000  -0.000
   10       -0.000   0.000   0.000   0.000
   11       -0.000   0.000  -0.000  -0.000
   12       -0.000   0.000   0.000   0.000
   13       -0.000  -0.000  -0.006  -0.006
   14       -0.000  -0.000  -0.006  -0.006
   15       -0.000  -0.000  -0.006  -0.006
   16       -0.000  -0.000  -0.006  -0.006
--------------------------------------------------
tot         -0.000  -0.001  -0.023  -0.024
 


 magnetization (z)
 
# of ion       s       p       d       tot
------------------------------------------
    1       -0.000  -0.042   0.000  -0.042
    2        0.000   0.042   0.000   0.042
    3        0.000   0.000   0.000   0.000
    4       -0.000  -0.000   0.000  -0.000
    5        0.000   0.042   0.000   0.042
    6       -0.000  -0.042   0.000  -0.042
    7        0.000   0.000   0.000   0.000
    8       -0.000  -0.000   0.000  -0.000
    9        0.000   0.001  -0.008  -0.006
   10       -0.000  -0.001   0.008   0.006
   11        0.000   0.001  -0.008  -0.006
   12       -0.000  -0.001   0.008   0.006
   13        0.021   0.054   3.650   3.725
   14       -0.021  -0.054  -3.650  -3.725
   15        0.021   0.054   3.650   3.725
   16       -0.021  -0.054  -3.650  -3.725
--------------------------------------------------
tot         -0.000  -0.000   0.001   0.000
 
 BZINTS: Fermi energy:  5.070160;172.000000 electrons
         Band energy:***********;  BLOECHL correction:  0.000000
 BZINTS: Fermi energy:  5.070160;172.000000 electrons
         Band energy:***********;  BLOECHL correction:  0.000000
 BZINTS: Fermi energy:  5.070160;172.000000 electrons
         Band energy:***********;  BLOECHL correction:  0.000000
 BZINTS: Fermi energy:  5.070160;172.000000 electrons
         Band energy:***********;  BLOECHL correction:  0.000000

 total amount of memory used by VASP MPI-rank0   403236. kBytes
=======================================================================

   base      :      30000. kBytes
   nonl-proj :     314949. kBytes
   fftplans  :       2735. kBytes
   grid      :      30965. kBytes
   one-center:        995. kBytes
   wavefun   :      23592. kBytes
 
  
  
 General timing and accounting informations for this job:
 ========================================================
  
                  Total CPU time used (sec):    22902.441
                            User time (sec):    22888.558
                          System time (sec):       13.884
                         Elapsed time (sec):    23122.467
  
                   Maximum memory used (kb):      851452.
                   Average memory used (kb):           0.
  
                          Minor page faults:      2650010
                          Major page faults:         5894
                 Voluntary context switches:         7230
