 vasp.5.4.4.18Apr17-6-g9f103f2a35 (build Oct 30 2023 17:30:16) complex          
  
 executed on             LinuxIFC date 2024.06.29  18:38:22
 running on  256 total cores
 distrk:  each k-point on  256 cores,    1 groups
 distr:  one band on NCORES_PER_BAND=   1 cores,  256 groups


--------------------------------------------------------------------------------------------------------


 INCAR:
 POTCAR:    PAW_PBE S 06Sep2000                   
 POTCAR:     PAW_PBE Cu_pv 06Sep2000              
 POTCAR:     PAW_PBE Fe_pv 02Aug2007              

 ----------------------------------------------------------------------------- 
|                                                                             |
|           W    W    AA    RRRRR   N    N  II  N    N   GGGG   !!!           |
|           W    W   A  A   R    R  NN   N  II  NN   N  G    G  !!!           |
|           W    W  A    A  R    R  N N  N  II  N N  N  G       !!!           |
|           W WW W  AAAAAA  RRRRR   N  N N  II  N  N N  G  GGG   !            |
|           WW  WW  A    A  R   R   N   NN  II  N   NN  G    G                |
|           W    W  A    A  R    R  N    N  II  N    N   GGGG   !!!           |
|                                                                             |
|      For optimal performance we recommend to set                            |
|        NCORE= 4 - approx SQRT( number of cores)                             |
|      NCORE specifies how many cores store one orbital (NPAR=cpu/NCORE).     |
|      This setting can  greatly improve the performance of VASP for DFT.     |
|      The default,   NCORE=1            might be grossly inefficient         |
|      on modern multi-core architectures or massively parallel machines.     |
|      Do your own testing !!!!                                               |
|      Unfortunately you need to use the default for GW and RPA calculations. |
|      (for HF NCORE is supported but not extensively tested yet)             |
|                                                                             |
 ----------------------------------------------------------------------------- 

 POTCAR:    PAW_PBE S 06Sep2000                   
   SHA256 =  0fc7481fb0695f01bdc6462160264c5c84044ae9ec85a907d398b887a2bc3132 S/
   COPYR  = (c) Copyright 06Sep2000 Georg Kresse                                
   COPYR  = This file is part of the software VASP. Any use, copying, and all ot
   COPYR  = If you do not have a valid VASP license, you may not use, copy or di
   VRHFIN =S : s2p4                                                             
   LEXCH  = PE                                                                  
   EATOM  =   276.8230 eV,   20.3459 Ry                                         
                                                                                
   TITEL  = PAW_PBE S 06Sep2000                                                 
   LULTRA =        F    use ultrasoft PP ?                                      
   IUNSCR =        1    unscreen: 0-lin 1-nonlin 2-no                           
   RPACOR =    1.500    partial core radius                                     
   POMASS =   32.066; ZVAL   =    6.000    mass and valenz                      
   RCORE  =    1.900    outmost cutoff radius                                   
   RWIGS  =    2.200; RWIGS  =    1.164    wigner-seitz radius (au A)           
   ENMAX  =  258.689; ENMIN  =  194.016 eV                                      
   ICORE  =        2    local potential                                         
   LCOR   =        T    correct aug charges                                     
   LPAW   =        T    paw PP                                                  
   EAUG   =  335.092                                                            
   DEXC   =    0.000                                                            
   RMAX   =    1.942    core radius for proj-oper                               
   RAUG   =    1.300    factor for augmentation sphere                          
   RDEP   =    1.954    radius for radial grids                                 
   RDEPT  =    1.744    core radius for aug-charge                              
                                                                                
   Atomic configuration                                                         
    6 entries                                                                   
     n  l   j            E        occ.                                          
     1  0  0.50     -2405.8406   2.0000                                         
     2  0  0.50      -211.7007   2.0000                                         
     2  1  1.50      -156.4958   6.0000                                         
     3  0  0.50       -17.2562   2.0000                                         
     3  1  0.50        -7.0085   4.0000                                         
     3  2  1.50        -6.8029   0.0000                                         
   Description                                                                  
     l       E           TYP  RCUT    TYP  RCUT                                 
     0    -17.2561641     23  1.900                                             
     0    -15.8743224     23  1.900                                             
     1     -7.0085400     23  1.900                                             
     1     -2.7779785     23  1.900                                             
     2     -6.8029130     23  1.900                                             
  local pseudopotential read in
  partial core-charges read in
  partial kinetic energy density read in
  atomic valenz-charges read in
  non local Contribution for L=           0  read in
    real space projection operators read in
  non local Contribution for L=           0  read in
    real space projection operators read in
  non local Contribution for L=           1  read in
    real space projection operators read in
  non local Contribution for L=           1  read in
    real space projection operators read in
    PAW grid and wavefunctions read in
 
   number of l-projection  operators is LMAX  =           4
   number of lm-projection operators is LMMAX =           8
 
 POTCAR:     PAW_PBE Cu_pv 06Sep2000              
   SHA256 =  cb7b504e2ea725fe1f25c85a9ac77d4012ce94cd394135b722c4e25ec297f1cb Cu
   COPYR  = (c) Copyright 06Sep2000 Georg Kresse                                
   COPYR  = This file is part of the software VASP. Any use, copying, and all ot
   COPYR  = If you do not have a valid VASP license, you may not use, copy or di
   VRHFIN =Cu: d10 p1                                                           
   LEXCH  = PE                                                                  
   EATOM  =  4120.1201 eV,  302.8203 Ry                                         
                                                                                
   TITEL  = PAW_PBE Cu_pv 06Sep2000                                             
   LULTRA =        F    use ultrasoft PP ?                                      
   IUNSCR =        1    unscreen: 0-lin 1-nonlin 2-no                           
   RPACOR =    1.500    partial core radius                                     
   POMASS =   63.546; ZVAL   =   17.000    mass and valenz                      
   RCORE  =    2.000    outmost cutoff radius                                   
   RWIGS  =    2.000; RWIGS  =    1.058    wigner-seitz radius (au A)           
   ENMAX  =  368.648; ENMIN  =  276.486 eV                                      
   RCLOC  =    1.304    cutoff for local pot                                    
   LCOR   =        T    correct aug charges                                     
   LPAW   =        T    paw PP                                                  
   EAUG   =  758.233                                                            
   DEXC   =    0.000                                                            
   RMAX   =    2.046    core radius for proj-oper                               
   RAUG   =    1.300    factor for augmentation sphere                          
   RDEP   =    2.025    radius for radial grids                                 
   RDEPT  =    1.558    core radius for aug-charge                              
                                                                                
   Atomic configuration                                                         
    8 entries                                                                   
     n  l   j            E        occ.                                          
     1  0  0.50     -8850.2467   2.0000                                         
     2  0  0.50     -1062.3498   2.0000                                         
     2  1  1.50      -916.8226   6.0000                                         
     3  0  0.50      -114.6929   2.0000                                         
     3  1  1.50       -72.1325   6.0000                                         
     3  2  2.50        -5.0394  10.0000                                         
     4  0  0.50        -4.6097   1.0000                                         
     4  3  2.50        -1.3606   0.0000                                         
   Description                                                                  
     l       E           TYP  RCUT    TYP  RCUT                                 
     1    -72.1324777     23  1.700                                             
     1     -1.3605826     23  1.700                                             
     2     -5.0393776     23  2.000                                             
     2     -6.3999602     23  2.000                                             
     0     -4.6097062     23  1.800                                             
     0     14.1620818     23  1.800                                             
  local pseudopotential read in
  partial core-charges read in
  partial kinetic energy density read in
  atomic valenz-charges read in
  non local Contribution for L=           1  read in
    real space projection operators read in
  non local Contribution for L=           1  read in
    real space projection operators read in
  non local Contribution for L=           2  read in
    real space projection operators read in
  non local Contribution for L=           2  read in
    real space projection operators read in
  non local Contribution for L=           0  read in
    real space projection operators read in
  non local Contribution for L=           0  read in
    real space projection operators read in
    PAW grid and wavefunctions read in
 
   number of l-projection  operators is LMAX  =           6
   number of lm-projection operators is LMMAX =          18
 
 POTCAR:     PAW_PBE Fe_pv 02Aug2007              
   SHA256 =  5d22e414b1f82158bf2c7ecb8b97b28fd0923e48cadc1c3bf74d524558f5dd32 Fe
   COPYR  = (c) Copyright 02Aug2007 Georg Kresse                                
   COPYR  = This file is part of the software VASP. Any use, copying, and all ot
   COPYR  = If you do not have a valid VASP license, you may not use, copy or di
   VRHFIN =Fe:  3pd7s1                                                          
   LEXCH  = PE                                                                  
   EATOM  =  2457.4239 eV,  180.6156 Ry                                         
                                                                                
   TITEL  = PAW_PBE Fe_pv 02Aug2007                                             
   LULTRA =        F    use ultrasoft PP ?                                      
   IUNSCR =        1    unscreen: 0-lin 1-nonlin 2-no                           
   RPACOR =    1.750    partial core radius                                     
   POMASS =   55.847; ZVAL   =   14.000    mass and valenz                      
   RCORE  =    2.200    outmost cutoff radius                                   
   RWIGS  =    2.200; RWIGS  =    1.164    wigner-seitz radius (au A)           
   ENMAX  =  293.238; ENMIN  =  219.928 eV                                      
   ICORE  =        3    local potential                                         
   LCOR   =        T    correct aug charges                                     
   LPAW   =        T    paw PP                                                  
   EAUG   =  578.342                                                            
   DEXC   =    0.000                                                            
   RMAX   =    2.249    core radius for proj-oper                               
   RAUG   =    1.300    factor for augmentation sphere                          
   RDEP   =    2.296    radius for radial grids                                 
   RDEPT  =    1.766    core radius for aug-charge                              
                                                                                
   Atomic configuration                                                         
    8 entries                                                                   
     n  l   j            E        occ.                                          
     1  0  0.50     -6993.8440   2.0000                                         
     2  0  0.50      -814.6047   2.0000                                         
     2  1  1.50      -693.3689   6.0000                                         
     3  0  0.50       -89.4732   2.0000                                         
     3  1  1.50       -55.6373   6.0000                                         
     3  2  2.50        -3.8151   7.0000                                         
     4  0  0.50        -4.2551   1.0000                                         
     4  3  2.50        -1.3606   0.0000                                         
   Description                                                                  
     l       E           TYP  RCUT    TYP  RCUT                                 
     1    -55.6372668     23  2.000                                             
     1     -5.4423304     23  2.000                                             
     2     -3.8151096     23  2.200                                             
     2     -5.1756922     23  2.200                                             
     0     -4.2550951     23  2.200                                             
     0     27.2116520     23  2.200                                             
     3     -1.3605826     23  2.200                                             
  local pseudopotential read in
  partial core-charges read in
  partial kinetic energy density read in
  atomic valenz-charges read in
  non local Contribution for L=           1  read in
    real space projection operators read in
  non local Contribution for L=           1  read in
    real space projection operators read in
  non local Contribution for L=           2  read in
    real space projection operators read in
  non local Contribution for L=           2  read in
    real space projection operators read in
  non local Contribution for L=           0  read in
    real space projection operators read in
  non local Contribution for L=           0  read in
    real space projection operators read in
    PAW grid and wavefunctions read in
 
   number of l-projection  operators is LMAX  =           6
   number of lm-projection operators is LMMAX =          18
 

 ----------------------------------------------------------------------------- 
|                                                                             |
|  ADVICE TO THIS USER RUNNING 'VASP/VAMP'   (HEAR YOUR MASTER'S VOICE ...):  |
|                                                                             |
|      You have a (more or less) 'large supercell' and for larger cells       |
|      it might be more efficient to use real space projection opertators     |
|      So try LREAL= Auto  in the INCAR   file.                               |
|      Mind:          For very  accurate calculation you might also keep the  |
|      reciprocal projection scheme          (i.e. LREAL=.FALSE.)             |
|                                                                             |
 ----------------------------------------------------------------------------- 


 ----------------------------------------------------------------------------- 
|                                                                             |
|  ADVICE TO THIS USER RUNNING 'VASP/VAMP'   (HEAR YOUR MASTER'S VOICE ...):  |
|                                                                             |
|      You enforced a specific xc-type in the INCAR file,                     |
|      a different type was found on the POTCAR file                          |
|          I HOPE YOU KNOW, WHAT YOU ARE  DOING                               |
|                                                                             |
 ----------------------------------------------------------------------------- 

  PAW_PBE S 06Sep2000                   :
 energy of atom  1       EATOM= -276.8230
 kinetic energy error for atom=    0.0007 (will be added to EATOM!!)
   PAW_PBE Cu_pv 06Sep2000              :
 energy of atom  2       EATOM=-4120.1201
 kinetic energy error for atom=    0.0094 (will be added to EATOM!!)
   PAW_PBE Fe_pv 02Aug2007              :
 energy of atom  3       EATOM=-2457.4239
 kinetic energy error for atom=    0.0025 (will be added to EATOM!!)
 
 
 POSCAR: Fe16 Cu16 S32                           
  positions in direct lattice
  velocities in cartesian coordinates
 exchange correlation table for  LEXCH =       14
   RHO(1)=    0.500       N(1)  =     2000
   RHO(2)=  100.500       N(2)  =     4000
 


--------------------------------------------------------------------------------------------------------


 ion  position               nearest neighbor table
   1  0.126  0.125  0.122-  37 2.26  41 2.27  61 2.27  49 2.28
   2  0.626  0.125  0.122-  38 2.26  42 2.27  62 2.27  50 2.28
   3  0.126  0.625  0.122-  39 2.26  43 2.27  63 2.27  51 2.28
   4  0.626  0.625  0.122-  40 2.26  44 2.27  64 2.27  52 2.28
   5  0.374  0.375  0.122-  39 2.26  41 2.27  62 2.27  52 2.28
   6  0.874  0.375  0.122-  40 2.26  42 2.27  61 2.27  51 2.28
   7  0.374  0.875  0.122-  37 2.26  43 2.27  64 2.27  50 2.28
   8  0.874  0.875  0.122-  38 2.26  44 2.27  63 2.27  49 2.28
   9  0.125  0.374  0.872-  41 2.26  45 2.27  51 2.27  55 2.28
  10  0.625  0.374  0.872-  42 2.26  46 2.27  52 2.27  56 2.28
  11  0.125  0.874  0.872-  43 2.26  47 2.27  49 2.27  53 2.28
  12  0.625  0.874  0.872-  44 2.26  48 2.27  50 2.27  54 2.28
  13  0.375  0.126  0.872-  41 2.26  46 2.27  50 2.27  53 2.28
  14  0.875  0.126  0.872-  42 2.26  45 2.27  49 2.27  54 2.28
  15  0.375  0.626  0.872-  43 2.26  48 2.27  52 2.27  55 2.28
  16  0.875  0.626  0.872-  44 2.26  47 2.27  51 2.27  56 2.28
  17  0.124  0.125  0.622-  45 2.26  33 2.27  53 2.27  57 2.28
  18  0.624  0.125  0.622-  46 2.26  34 2.27  54 2.27  58 2.28
  19  0.124  0.625  0.622-  47 2.26  35 2.27  55 2.27  59 2.28
  20  0.624  0.625  0.622-  48 2.26  36 2.27  56 2.27  60 2.28
  21  0.376  0.375  0.622-  46 2.26  36 2.27  55 2.27  57 2.28
  22  0.876  0.375  0.622-  45 2.26  35 2.27  56 2.27  58 2.28
  23  0.376  0.875  0.622-  48 2.26  34 2.27  53 2.27  59 2.28
  24  0.876  0.875  0.622-  47 2.26  33 2.27  54 2.27  60 2.28
  25  0.375  0.124  0.372-  34 2.26  37 2.27  57 2.27  62 2.28
  26  0.875  0.124  0.372-  33 2.26  38 2.27  58 2.27  61 2.28
  27  0.375  0.624  0.372-  36 2.26  39 2.27  59 2.27  64 2.28
  28  0.875  0.624  0.372-  35 2.26  40 2.27  60 2.27  63 2.28
  29  0.125  0.376  0.372-  35 2.26  39 2.27  57 2.27  61 2.28
  30  0.625  0.376  0.372-  36 2.26  40 2.27  58 2.27  62 2.28
  31  0.125  0.876  0.372-  33 2.26  37 2.27  59 2.27  63 2.28
  32  0.625  0.876  0.372-  34 2.26  38 2.27  60 2.27  64 2.28
  33  0.000  0.000  0.503-  26 2.26  31 2.26  17 2.27  24 2.27
  34  0.500  0.000  0.503-  25 2.26  32 2.26  18 2.27  23 2.27
  35  0.000  0.500  0.503-  28 2.26  29 2.26  19 2.27  22 2.27
  36  0.500  0.500  0.503-  27 2.26  30 2.26  20 2.27  21 2.27
  37  0.250  0.000  0.253-   1 2.26   7 2.26  25 2.27  31 2.27
  38  0.750  0.000  0.253-   2 2.26   8 2.26  26 2.27  32 2.27
  39  0.250  0.500  0.253-   3 2.26   5 2.26  27 2.27  29 2.27
  40  0.750  0.500  0.253-   4 2.26   6 2.26  28 2.27  30 2.27
  41  0.250  0.250  0.003-   9 2.26  13 2.26   1 2.27   5 2.27
  42  0.750  0.250  0.003-  10 2.26  14 2.26   2 2.27   6 2.27
  43  0.250  0.750  0.003-  11 2.26  15 2.26   3 2.27   7 2.27
  44  0.750  0.750  0.003-  12 2.26  16 2.26   4 2.27   8 2.27
  45  0.000  0.250  0.753-  17 2.26  22 2.26   9 2.27  14 2.27
  46  0.500  0.250  0.753-  18 2.26  21 2.26  10 2.27  13 2.27
  47  0.000  0.750  0.753-  19 2.26  24 2.26  11 2.27  16 2.27
  48  0.500  0.750  0.753-  20 2.26  23 2.26  12 2.27  15 2.27
  49  0.000  0.000  0.003-  11 2.27  14 2.27   1 2.28   8 2.28
  50  0.500  0.000  0.003-  12 2.27  13 2.27   2 2.28   7 2.28
  51  0.000  0.500  0.003-   9 2.27  16 2.27   3 2.28   6 2.28
  52  0.500  0.500  0.003-  10 2.27  15 2.27   4 2.28   5 2.28
  53  0.250  0.000  0.753-  17 2.27  23 2.27  11 2.28  13 2.28
  54  0.750  0.000  0.753-  18 2.27  24 2.27  12 2.28  14 2.28
  55  0.250  0.500  0.753-  19 2.27  21 2.27   9 2.28  15 2.28
  56  0.750  0.500  0.753-  20 2.27  22 2.27  10 2.28  16 2.28
  57  0.250  0.250  0.503-  25 2.27  29 2.27  17 2.28  21 2.28
  58  0.750  0.250  0.503-  26 2.27  30 2.27  18 2.28  22 2.28
  59  0.250  0.750  0.503-  27 2.27  31 2.27  19 2.28  23 2.28
  60  0.750  0.750  0.503-  28 2.27  32 2.27  20 2.28  24 2.28
  61  0.000  0.250  0.253-   1 2.27   6 2.27  26 2.28  29 2.28
  62  0.500  0.250  0.253-   2 2.27   5 2.27  25 2.28  30 2.28
  63  0.000  0.750  0.253-   3 2.27   8 2.27  28 2.28  31 2.28
  64  0.500  0.750  0.253-   4 2.27   7 2.27  27 2.28  32 2.28
 
  LATTYP: Found a base centered orthorhombic cell.
 ALAT       =    14.4659523457
 B/A-ratio  =     1.0537604313
 C/A-ratio  =     0.7206577037
  
  Lattice vectors:
  
 A1 = (  10.5039300000,   0.2749570000,   0.0000000000)
 A2 = (  -0.2749570000, -10.5039300000,   0.0000000000)
 A3 = (   0.0000000000,   0.0000000000, -10.4250000000)


Analysis of symmetry for initial positions (statically):
=====================================================================
 Subroutine PRICEL returns following result:
 
  LATTYP: Found a face centered orthorhombic cell.
 ALAT       =     7.2329761729
 B/A-ratio  =     1.0537604313
 C/A-ratio  =     1.4413154075
  
  Lattice vectors:
  
 A1 = (  -2.6947217500,  -2.6947217500,   5.2125000000)
 A2 = (  -2.5572432500,   2.5572432500,   5.2125000000)
 A3 = (  -5.2519650000,  -0.1374785000,   0.0000000000)
 
   8 primitive cells build up your supercell.
 

 Routine SETGRP: Setting up the symmetry group for a 
 base centered orthorhombic supercell.


 Subroutine GETGRP returns: Found  4 space group operations
 (whereof  2 operations were pure point group operations)
 out of a pool of  8 trial point group operations.


The static configuration has the point symmetry C_2 .
 The point group associated with its full space group is C_2v.


Analysis of symmetry for dynamics (positions and initial velocities):
=====================================================================
 Subroutine PRICEL returns following result:
 
  LATTYP: Found a face centered orthorhombic cell.
 ALAT       =     7.2329761729
 B/A-ratio  =     1.0537604313
 C/A-ratio  =     1.4413154075
  
  Lattice vectors:
  
 A1 = (  -2.6947217500,  -2.6947217500,   5.2125000000)
 A2 = (  -2.5572432500,   2.5572432500,   5.2125000000)
 A3 = (  -5.2519650000,  -0.1374785000,   0.0000000000)
 
   8 primitive cells build up your supercell.
 

 Routine SETGRP: Setting up the symmetry group for a 
 base centered orthorhombic supercell.


 Subroutine GETGRP returns: Found  4 space group operations
 (whereof  2 operations were pure point group operations)
 out of a pool of  8 trial point group operations.


The dynamic configuration has the point symmetry C_2 .
 The point group associated with its full space group is C_2v.


Analysis of structural, dynamic, and magnetic symmetry:
=====================================================================
 Subroutine PRICEL returns following result:
 
  LATTYP: Found a face centered orthorhombic cell.
 ALAT       =     7.2329761729
 B/A-ratio  =     1.0537604313
 C/A-ratio  =     1.4413154075
  
  Lattice vectors:
  
 A1 = (  -2.6947217500,  -2.6947217500,   5.2125000000)
 A2 = (  -2.5572432500,   2.5572432500,   5.2125000000)
 A3 = (  -5.2519650000,  -0.1374785000,   0.0000000000)
 
   8 primitive cells build up your supercell.
 

 Routine SETGRP: Setting up the symmetry group for a 
 base centered orthorhombic supercell.


 Subroutine GETGRP returns: Found  4 space group operations
 (whereof  2 operations were pure point group operations)
 out of a pool of  8 trial point group operations.


The magnetic configuration has the point symmetry C_2 .
 The point group associated with its full space group is C_2v.


 Subroutine INISYM returns: Found  4 space group operations
 (whereof  2 operations are pure point group operations),
 and found     8 'primitive' translations

 
 
 KPOINTS: Automatic mesh                          

Automatic generation of k-mesh.
Space group operators:
 irot       det(A)        alpha          n_x          n_y          n_z        tau_x        tau_y        tau_z
    1     1.000000     0.000001     1.000000     0.000000     0.000000     0.000000     0.000000     0.000000
    2     1.000000   179.999999     0.000000     0.000000     1.000000     0.000000     0.000000     0.000000
    3    -1.000000   180.000000     0.707107     0.707107     0.000000    -0.750000    -0.000000     0.750000
    4    -1.000000   180.000000     0.707107    -0.707107     0.000000    -0.750000    -0.000000     0.750000
 
 Subroutine IBZKPT returns following result:
 ===========================================
 
 Found      6 irreducible k-points:
 
 Following reciprocal coordinates:
            Coordinates               Weight
  0.000000  0.000000  0.000000      1.000000
  0.500000 -0.000000  0.000000      2.000000
  0.500000  0.500000  0.000000      1.000000
  0.000000  0.000000  0.500000      1.000000
  0.500000 -0.000000  0.500000      2.000000
  0.500000  0.500000  0.500000      1.000000
 
 Following cartesian coordinates:
            Coordinates               Weight
  0.000000  0.000000  0.000000      1.000000
  0.047634 -0.001247  0.000000      2.000000
  0.046387  0.046387  0.000000      1.000000
  0.000000  0.000000  0.047962      1.000000
  0.047634 -0.001247  0.047962      2.000000
  0.046387  0.046387  0.047962      1.000000
 
 TETIRR: Found     12 inequivalent tetrahedra from       48
 
 Subroutine IBZKPT_HF returns following result:
 ==============================================
 
 Found      8 k-points in 1st BZ
 the following      8 k-points will be used (e.g. in the exchange kernel)
 Following reciprocal coordinates:   # in IRBZ
  0.000000  0.000000  0.000000    0.12500000   1 t-inv F
  0.500000 -0.000000  0.000000    0.12500000   2 t-inv F
  0.500000  0.500000  0.000000    0.12500000   3 t-inv F
  0.000000  0.000000  0.500000    0.12500000   4 t-inv F
  0.500000 -0.000000  0.500000    0.12500000   5 t-inv F
  0.500000  0.500000  0.500000    0.12500000   6 t-inv F
  0.000000 -0.500000  0.000000    0.12500000   2 t-inv F spinflp
  0.000000 -0.500000  0.500000    0.12500000   5 t-inv F spinflp


--------------------------------------------------------------------------------------------------------




 Dimension of arrays:
   k-points           NKPTS =      6   k-points in BZ     NKDIM =      6   number of bands    NBANDS=    512
   number of dos      NEDOS =    301   number of ions     NIONS =     64
   non local maximal  LDIM  =      6   non local SUM 2l+1 LMDIM =     18
   total plane-waves  NPLWV = 829440
   max r-space proj   IRMAX =      1   max aug-charges    IRDMAX=  22931
   dimension x,y,z NGX =    96 NGY =   96 NGZ =   90
   dimension x,y,z NGXF=   192 NGYF=  192 NGZF=  180
   support grid    NGXF=   192 NGYF=  192 NGZF=  180
   ions per type =              32  16  16
   NGX,Y,Z   is equivalent  to a cutoff of  15.19, 15.19, 14.35 a.u.
   NGXF,Y,Z  is equivalent  to a cutoff of  30.38, 30.38, 28.70 a.u.

 SYSTEM =  CuFeS2                                  
 POSCAR =  Fe16 Cu16 S32                           

 Startparameter for this run:
   NWRITE =      2    write-flag & timer
   PREC   = accura    normal or accurate (medium, high low for compatibility)
   ISTART =      0    job   : 0-new  1-cont  2-samecut
   ICHARG =      1    charge: 1-file 2-atom 10-const
   ISPIN  =      2    spin polarized calculation?
   LNONCOLLINEAR =      F non collinear calculations
   LSORBIT =      F    spin-orbit coupling
   INIWAV =      1    electr: 0-lowe 1-rand  2-diag
   LASPH  =      F    aspherical Exc in radial PAW
   METAGGA=      F    non-selfconsistent MetaGGA calc.

 Electronic Relaxation 1
   ENCUT  =  700.0 eV  51.45 Ry    7.17 a.u.  22.67 22.67 22.49*2*pi/ulx,y,z
   ENINI  =  700.0     initial cutoff
   ENAUG  =  758.2 eV  augmentation charge cutoff
   NELM   =    500;   NELMIN=  2; NELMDL=  0     # of ELM steps 
   EDIFF  = 0.1E-07   stopping-criterion for ELM
   LREAL  =      F    real-space projection
   NLSPLINE    = F    spline interpolate recip. space projectors
   LCOMPAT=      F    compatible to vasp.4.4
   GGA_COMPAT  = T    GGA compatible to vasp.4.4-vasp.4.6
   LMAXPAW     = -100 max onsite density
   LMAXMIX     =    4 max onsite mixed and CHGCAR
   VOSKOWN=      0    Vosko Wilk Nusair interpolation
   ROPT   =    0.00000   0.00000   0.00000
 Ionic relaxation
   EDIFFG = -.1E-04   stopping-criterion for IOM
   NSW    =      0    number of steps for IOM
   NBLOCK =      1;   KBLOCK =      1    inner block; outer block 
   IBRION =     -1    ionic relax: 0-MD 1-quasi-New 2-CG
   NFREE  =      0    steps in history (QN), initial steepest desc. (CG)
   ISIF   =      2    stress and relaxation
   IWAVPR =     10    prediction:  0-non 1-charg 2-wave 3-comb
   ISYM   =      2    0-nonsym 1-usesym 2-fastsym
   LCORR  =      T    Harris-Foulkes like correction to forces

   POTIM  = 0.5000    time-step for ionic-motion
   TEIN   =    0.0    initial temperature
   TEBEG  =    0.0;   TEEND  =   0.0 temperature during run
   SMASS  =  -3.00    Nose mass-parameter (am)
   estimated Nose-frequenzy (Omega)   =  0.10E-29 period in steps =****** mass=  -0.252E-26a.u.
   SCALEE = 1.0000    scale energy and forces
   NPACO  =    256;   APACO  = 16.0  distance and # of slots for P.C.
   PSTRESS=    0.0 pullay stress

  Mass of Ions in am
   POMASS =  32.07 63.55 55.85
  Ionic Valenz
   ZVAL   =   6.00 17.00 14.00
  Atomic Wigner-Seitz radii
   RWIGS  =  -1.00 -1.00 -1.00
  virtual crystal weights 
   VCA    =   1.00  1.00  1.00
   NELECT =     688.0000    total number of electrons
   NUPDOWN=      -1.0000    fix difference up-down

 DOS related values:
   EMIN   =  10.00;   EMAX   =-10.00  energy-range for DOS
   EFERMI =   0.00
   ISMEAR =    -5;   SIGMA  =   0.03  broadening in eV -4-tet -1-fermi 0-gaus

 Electronic relaxation 2 (details)
   IALGO  =     38    algorithm
   LDIAG  =      T    sub-space diagonalisation (order eigenvalues)
   LSUBROT=      F    optimize rotation matrix (better conditioning)
   TURBO    =      0    0=normal 1=particle mesh
   IRESTART =      0    0=no restart 2=restart with 2 vectors
   NREBOOT  =      0    no. of reboots
   NMIN     =      0    reboot dimension
   EREF     =   0.00    reference energy to select bands
   IMIX   =      4    mixing-type and parameters
     AMIX     =   0.40;   BMIX     =  1.00
     AMIX_MAG =   1.60;   BMIX_MAG =  1.00
     AMIN     =   0.10
     WC   =   100.;   INIMIX=   1;  MIXPRE=   1;  MAXMIX= -45

 Intra band minimization:
   WEIMIN = 0.0000     energy-eigenvalue tresh-hold
   EBREAK =  0.49E-11  absolut break condition
   DEPER  =   0.30     relativ break condition  

   TIME   =   0.40     timestep for ELM

  volume/ion in A,a.u.               =      17.96       121.20
  Fermi-wavevector in a.u.,A,eV,Ry     =   1.379676  2.607209 25.898753  1.903505
  Thomas-Fermi vector in A             =   2.504623
 
 Write flags
   LWAVE        =      T    write WAVECAR
   LDOWNSAMPLE  =      F    k-point downsampling of WAVECAR
   LCHARG       =      T    write CHGCAR
   LVTOT        =      F    write LOCPOT, total local potential
   LVHAR        =      F    write LOCPOT, Hartree potential only
   LELF         =      F    write electronic localiz. function (ELF)
   LORBIT       =     11    0 simple, 1 ext, 2 COOP (PROOUT), +10 PAW based schemes


 Dipole corrections
   LMONO  =      F    monopole corrections only (constant potential shift)
   LDIPOL =      F    correct potential (dipole corrections)
   IDIPOL =      0    1-x, 2-y, 3-z, 4-all directions 
   EPSILON=  1.0000000 bulk dielectric constant

 LDA+U is selected, type is set to LDAUTYPE =  2
   angular momentum for each species LDAUL =     2    2    2
   U (eV)           for each species LDAUU =   0.0  0.1  4.7
   J (eV)           for each species LDAUJ =   0.0  0.0  0.0
 Exchange correlation treatment:
   GGA     =    PS    GGA type
   LEXCH   =    14    internal setting for exchange type
   VOSKOWN=      0    Vosko Wilk Nusair interpolation
   LHFCALC =     F    Hartree Fock is set to
   LHFONE  =     F    Hartree Fock one center treatment
   AEXX    =    0.0000 exact exchange contribution

 Linear response parameters
   LEPSILON=     F    determine dielectric tensor
   LRPA    =     F    only Hartree local field effects (RPA)
   LNABLA  =     F    use nabla operator in PAW spheres
   LVEL    =     F    velocity operator in full k-point grid
   LINTERFAST=   F  fast interpolation
   KINTER  =     0    interpolate to denser k-point grid
   CSHIFT  =0.1000    complex shift for real part using Kramers Kronig
   OMEGAMAX=  -1.0    maximum frequency
   DEG_THRESHOLD= 0.2000000E-02 threshold for treating states as degnerate
   RTIME   =   -0.100 relaxation time in fs
  (WPLASMAI=    0.000 imaginary part of plasma frequency in eV, 0.658/RTIME)
   DFIELD  = 0.0000000 0.0000000 0.0000000 field for delta impulse in time
 
 Orbital magnetization related:
   ORBITALMAG=     F  switch on orbital magnetization
   LCHIMAG   =     F  perturbation theory with respect to B field
   DQ        =  0.001000  dq finite difference perturbation B field
   LLRAUG    =     F  two centre corrections for induced B field

 PEAD related settings:
   LPEAD      =     T    switch on PEAD
   IPEAD      =     4    finite difference order for dpsi/dk
   LCALCPOL   =     T    calculate macroscopic polarization
   LCALCEPS   =     F    calculate dielectric tensor
   EFIELD_PEAD=    0.0000    0.0000    0.0000
   SKIP_EDOTP =     F
   LRPA       =     F
   SKIP_SCF   =     F


--------------------------------------------------------------------------------------------------------


 Static calculation
 charge density and potential will be updated during run
 spin polarized calculation
 Variant of blocked Davidson
 Davidson routine will perform the subspace rotation
 perform sub-space diagonalisation
    after iterative eigenvector-optimisation
 modified Broyden-mixing scheme, WC =      100.0
 initial mixing is a Kerker type mixing with AMIX =  0.4000 and BMIX =      1.0000
 Hartree-type preconditioning will be used
 using additional bands          168
 reciprocal scheme for non local part
 use partial core corrections
 calculate Harris-corrections to forces 
   (improved forces if not selfconsistent)
 use gradient corrections 
 use of overlap-Matrix (Vanderbilt PP)
 Fermi weights with tetrahedron method with Bloechl corrections


--------------------------------------------------------------------------------------------------------


  energy-cutoff  :      700.00
  volume of cell :     1149.43
      direct lattice vectors                 reciprocal lattice vectors
    10.503930000  0.274957000  0.000000000     0.095267741 -0.002493784  0.000000000
     0.274957000 10.503930000  0.000000000    -0.002493784  0.095267741  0.000000000
     0.000000000  0.000000000 10.425000000     0.000000000  0.000000000  0.095923261

  length of vectors
    10.507528101 10.507528101 10.425000000     0.095300375  0.095300375  0.095923261


 
 k-points in units of 2pi/SCALE and weight: Automatic mesh                          
   0.00000000  0.00000000  0.00000000       0.125
   0.04763387 -0.00124689  0.00000000       0.250
   0.04638698  0.04638698  0.00000000       0.125
   0.00000000  0.00000000  0.04796163       0.125
   0.04763387 -0.00124689  0.04796163       0.250
   0.04638698  0.04638698  0.04796163       0.125
 
 k-points in reciprocal lattice and weights: Automatic mesh                          
   0.00000000  0.00000000  0.00000000       0.125
   0.50000000 -0.00000000  0.00000000       0.250
   0.50000000  0.50000000  0.00000000       0.125
   0.00000000  0.00000000  0.50000000       0.125
   0.50000000 -0.00000000  0.50000000       0.250
   0.50000000  0.50000000  0.50000000       0.125
 
 position of ions in fractional coordinates (direct lattice) 
   0.12612500  0.12530400  0.12209900
   0.62612500  0.12530400  0.12209900
   0.12612500  0.62530400  0.12209900
   0.62612500  0.62530400  0.12209900
   0.37387500  0.37469600  0.12209900
   0.87387500  0.37469600  0.12209900
   0.37387500  0.87469600  0.12209900
   0.87387500  0.87469600  0.12209900
   0.12469600  0.37387500  0.87209900
   0.62469600  0.37387500  0.87209900
   0.12469600  0.87387500  0.87209900
   0.62469600  0.87387500  0.87209900
   0.37530400  0.12612500  0.87209900
   0.87530400  0.12612500  0.87209900
   0.37530400  0.62612500  0.87209900
   0.87530400  0.62612500  0.87209900
   0.12387500  0.12469600  0.62209900
   0.62387500  0.12469600  0.62209900
   0.12387500  0.62469600  0.62209900
   0.62387500  0.62469600  0.62209900
   0.37612500  0.37530400  0.62209900
   0.87612500  0.37530400  0.62209900
   0.37612500  0.87530400  0.62209900
   0.87612500  0.87530400  0.62209900
   0.37469600  0.12387500  0.37209900
   0.87469600  0.12387500  0.37209900
   0.37469600  0.62387500  0.37209900
   0.87469600  0.62387500  0.37209900
   0.12530400  0.37612500  0.37209900
   0.62530400  0.37612500  0.37209900
   0.12530400  0.87612500  0.37209900
   0.62530400  0.87612500  0.37209900
   0.00000000  0.00000000  0.50251600
   0.50000000  0.00000000  0.50251600
   0.00000000  0.50000000  0.50251600
   0.50000000  0.50000000  0.50251600
   0.25000000  0.00000000  0.25251600
   0.75000000  0.00000000  0.25251600
   0.25000000  0.50000000  0.25251600
   0.75000000  0.50000000  0.25251600
   0.25000000  0.25000000  0.00251600
   0.75000000  0.25000000  0.00251600
   0.25000000  0.75000000  0.00251600
   0.75000000  0.75000000  0.00251600
   0.00000000  0.25000000  0.75251600
   0.50000000  0.25000000  0.75251600
   0.00000000  0.75000000  0.75251600
   0.50000000  0.75000000  0.75251600
   0.00000000  0.00000000  0.00328500
   0.50000000  0.00000000  0.00328500
   0.00000000  0.50000000  0.00328500
   0.50000000  0.50000000  0.00328500
   0.25000000  0.00000000  0.75328500
   0.75000000  0.00000000  0.75328500
   0.25000000  0.50000000  0.75328500
   0.75000000  0.50000000  0.75328500
   0.25000000  0.25000000  0.50328500
   0.75000000  0.25000000  0.50328500
   0.25000000  0.75000000  0.50328500
   0.75000000  0.75000000  0.50328500
   0.00000000  0.25000000  0.25328500
   0.50000000  0.25000000  0.25328500
   0.00000000  0.75000000  0.25328500
   0.50000000  0.75000000  0.25328500
 
 position of ions in cartesian coordinates  (Angst):
   1.35926138  1.35086340  1.27288207
   6.61122638  1.48834190  1.27288207
   1.49673988  6.60282840  1.27288207
   6.74870488  6.74030690  1.27288207
   4.03018212  4.03858010  1.27288207
   9.28214712  4.17605860  1.27288207
   4.16766062  9.29054510  1.27288207
   9.41962562  9.42802360  1.27288207
   1.41259760  3.96144287  9.09163207
   6.66456260  4.09892137  9.09163207
   1.55007610  9.21340787  9.09163207
   6.80204110  9.35088637  9.09163207
   3.97684590  1.42800063  9.09163207
   9.22881090  1.56547913  9.09163207
   4.11432440  6.67996563  9.09163207
   9.36628940  6.81744413  9.09163207
   1.33546037  1.34385835  6.48538207
   6.58742537  1.48133685  6.48538207
   1.47293887  6.59582335  6.48538207
   6.72490387  6.73330185  6.48538207
   4.05398313  4.04558515  6.48538207
   9.30594813  4.18306365  6.48538207
   4.19146163  9.29755015  6.48538207
   9.44342663  9.43502865  6.48538207
   3.96984085  1.40419962  3.87913207
   9.22180585  1.54167812  3.87913207
   4.10731935  6.65616462  3.87913207
   9.35928435  6.79364312  3.87913207
   1.41960265  3.98524388  3.87913207
   6.67156765  4.12272238  3.87913207
   1.55708115  9.23720888  3.87913207
   6.80904615  9.37468738  3.87913207
   0.00000000  0.00000000  5.23872930
   5.25196500  0.13747850  5.23872930
   0.13747850  5.25196500  5.23872930
   5.38944350  5.38944350  5.23872930
   2.62598250  0.06873925  2.63247930
   7.87794750  0.20621775  2.63247930
   2.76346100  5.32070425  2.63247930
   8.01542600  5.45818275  2.63247930
   2.69472175  2.69472175  0.02622930
   7.94668675  2.83220025  0.02622930
   2.83220025  7.94668675  0.02622930
   8.08416525  8.08416525  0.02622930
   0.06873925  2.62598250  7.84497930
   5.32070425  2.76346100  7.84497930
   0.20621775  7.87794750  7.84497930
   5.45818275  8.01542600  7.84497930
   0.00000000  0.00000000  0.03424612
   5.25196500  0.13747850  0.03424612
   0.13747850  5.25196500  0.03424612
   5.38944350  5.38944350  0.03424612
   2.62598250  0.06873925  7.85299612
   7.87794750  0.20621775  7.85299612
   2.76346100  5.32070425  7.85299612
   8.01542600  5.45818275  7.85299612
   2.69472175  2.69472175  5.24674612
   7.94668675  2.83220025  5.24674612
   2.83220025  7.94668675  5.24674612
   8.08416525  8.08416525  5.24674612
   0.06873925  2.62598250  2.64049612
   5.32070425  2.76346100  2.64049612
   0.20621775  7.87794750  2.64049612
   5.45818275  8.01542600  2.64049612
 


--------------------------------------------------------------------------------------------------------


 k-point  1 :   0.0000 0.0000 0.0000  plane waves:   48379
 k-point  2 :   0.5000-0.0000 0.0000  plane waves:   48364
 k-point  3 :   0.5000 0.5000 0.0000  plane waves:   48316
 k-point  4 :   0.0000 0.0000 0.5000  plane waves:   48368
 k-point  5 :   0.5000-0.0000 0.5000  plane waves:   48276
 k-point  6 :   0.5000 0.5000 0.5000  plane waves:   48272

 maximum and minimum number of plane-waves per node :     48379    48272

 maximum number of plane-waves:     48379
 maximum index in each direction: 
   IXMAX=   22   IYMAX=   22   IZMAX=   22
   IXMIN=  -23   IYMIN=  -23   IZMIN=  -22


 serial   3D FFT for wavefunctions
 parallel 3D FFT for charge:
    minimum data exchange during FFTs selected (reduces bandwidth)


 total amount of memory used by VASP MPI-rank0   300225. kBytes
=======================================================================

   base      :      30000. kBytes
   nonl-proj :     174956. kBytes
   fftplans  :       4588. kBytes
   grid      :      69719. kBytes
   one-center:       1990. kBytes
   wavefun   :      18972. kBytes
 
     INWAV:  cpu time    0.0001: real time    0.0002
 Broyden mixing: mesh for mixing (old mesh)
   NGX = 45   NGY = 45   NGZ = 45
  (NGX  =192   NGY  =192   NGZ  =180)
  gives a total of  91125 points

 initial charge density was supplied:
 number of electron     688.0000273 magnetization       0.0000000
 keeping initial charge density in first step


--------------------------------------------------------------------------------------------------------


 Maximum index for augmentation-charges          890 (set IRDMAX)


--------------------------------------------------------------------------------------------------------


 First call to EWALD:  gamma=   0.169
 Maximum number of real-space cells 3x 3x 3
 Maximum number of reciprocal cells 3x 3x 3

    FEWALD:  cpu time    0.0023: real time    0.0027


--------------------------------------- Iteration      1(   1)  ---------------------------------------


    POTLOK:  cpu time    0.3819: real time    0.4085
    SETDIJ:  cpu time    0.0148: real time    0.0149
     EDDAV:  cpu time   63.2414: real time   63.7815
 BZINTS: Fermi energy: 14.984301;688.000000 electrons
         Band energy:***********;  BLOECHL correction: -0.017607
       DOS:  cpu time    0.0204: real time    0.0204
    --------------------------------------------
      LOOP:  cpu time   63.6585: real time   64.2254

 eigenvalue-minimisations  : 12288
 total energy-change (2. order) : 0.6058040E+04  (-0.5161737E+05)
 number of electron     688.0000273 magnetization       0.0000000
 augmentation part      688.0000273 magnetization       0.0000000

 Free energy of the ion-electron system (eV)
  ---------------------------------------------------
  alpha Z        PSCENC =      2358.69408977
  Ewald energy   TEWEN  =    -62502.99550166
  -Hartree energ DENC   =    -42930.60926227
  -exchange      EXHF   =         0.00000000
  -V(xc)+E(xc)   XCENC  =      3286.52679963
  PAW double counting   =    112266.24997471  -115959.93329058
  entropy T*S    EENTRO =         0.00000000
  eigenvalues    EBANDS =     -4479.95748034
  atomic energy  EATOM  =    114020.06510763
  Solvation  Ediel_sol  =         0.00000000
  ---------------------------------------------------
  free energy    TOTEN  =      6058.04043687 eV

  energy without entropy =     6058.04043687  energy(sigma->0) =     6058.04043687


--------------------------------------------------------------------------------------------------------




--------------------------------------- Iteration      1(   2)  ---------------------------------------


     EDDAV:  cpu time   79.1947: real time   79.8018
 BZINTS: Fermi energy:  5.517903;688.000000 electrons
         Band energy:***********;  BLOECHL correction:  0.000000
       DOS:  cpu time    0.0033: real time    0.0033
    --------------------------------------------
      LOOP:  cpu time   79.1980: real time   79.8051

 eigenvalue-minimisations  : 14080
 total energy-change (2. order) :-0.6143496E+04  (-0.6033519E+04)
 number of electron     688.0000273 magnetization       0.0000000
 augmentation part      688.0000273 magnetization       0.0000000

 Free energy of the ion-electron system (eV)
  ---------------------------------------------------
  alpha Z        PSCENC =      2358.69408977
  Ewald energy   TEWEN  =    -62502.99550166
  -Hartree energ DENC   =    -42930.60926227
  -exchange      EXHF   =         0.00000000
  -V(xc)+E(xc)   XCENC  =      3286.52679963
  PAW double counting   =    112266.24997471  -115959.93329058
  entropy T*S    EENTRO =         0.00000000
  eigenvalues    EBANDS =    -10623.45306328
  atomic energy  EATOM  =    114020.06510763
  Solvation  Ediel_sol  =         0.00000000
  ---------------------------------------------------
  free energy    TOTEN  =       -85.45514607 eV

  energy without entropy =      -85.45514607  energy(sigma->0) =      -85.45514607


--------------------------------------------------------------------------------------------------------




--------------------------------------- Iteration      1(   3)  ---------------------------------------


     EDDAV:  cpu time  109.8010: real time  110.5850
 BZINTS: Fermi energy:  4.943020;688.000000 electrons
         Band energy:***********;  BLOECHL correction:  0.000000
       DOS:  cpu time    0.0033: real time    0.0033
    --------------------------------------------
      LOOP:  cpu time  109.8043: real time  110.5883

 eigenvalue-minimisations  : 16640
 total energy-change (2. order) :-0.2389428E+03  (-0.2382280E+03)
 number of electron     688.0000273 magnetization       0.0000000
 augmentation part      688.0000273 magnetization       0.0000000

 Free energy of the ion-electron system (eV)
  ---------------------------------------------------
  alpha Z        PSCENC =      2358.69408977
  Ewald energy   TEWEN  =    -62502.99550166
  -Hartree energ DENC   =    -42930.60926227
  -exchange      EXHF   =         0.00000000
  -V(xc)+E(xc)   XCENC  =      3286.52679963
  PAW double counting   =    112266.24997471  -115959.93329058
  entropy T*S    EENTRO =         0.00000000
  eigenvalues    EBANDS =    -10862.39588583
  atomic energy  EATOM  =    114020.06510763
  Solvation  Ediel_sol  =         0.00000000
  ---------------------------------------------------
  free energy    TOTEN  =      -324.39796863 eV

  energy without entropy =     -324.39796863  energy(sigma->0) =     -324.39796863


--------------------------------------------------------------------------------------------------------




--------------------------------------- Iteration      1(   4)  ---------------------------------------


     EDDAV:  cpu time  107.0330: real time  107.7995
 BZINTS: Fermi energy:  5.096210;688.000000 electrons
         Band energy:***********;  BLOECHL correction:  0.000000
       DOS:  cpu time    0.0032: real time    0.0032
    --------------------------------------------
      LOOP:  cpu time  107.0362: real time  107.8028

 eigenvalue-minimisations  : 15872
 total energy-change (2. order) :-0.3323795E+01  (-0.3323664E+01)
 number of electron     688.0000273 magnetization       0.0000000
 augmentation part      688.0000273 magnetization       0.0000000

 Free energy of the ion-electron system (eV)
  ---------------------------------------------------
  alpha Z        PSCENC =      2358.69408977
  Ewald energy   TEWEN  =    -62502.99550166
  -Hartree energ DENC   =    -42930.60926227
  -exchange      EXHF   =         0.00000000
  -V(xc)+E(xc)   XCENC  =      3286.52679963
  PAW double counting   =    112266.24997471  -115959.93329058
  entropy T*S    EENTRO =         0.00000000
  eigenvalues    EBANDS =    -10865.71968046
  atomic energy  EATOM  =    114020.06510763
  Solvation  Ediel_sol  =         0.00000000
  ---------------------------------------------------
  free energy    TOTEN  =      -327.72176325 eV

  energy without entropy =     -327.72176325  energy(sigma->0) =     -327.72176325


--------------------------------------------------------------------------------------------------------




--------------------------------------- Iteration      1(   5)  ---------------------------------------


     EDDAV:  cpu time   98.1059: real time   98.8177
 BZINTS: Fermi energy:  5.048693;688.000000 electrons
         Band energy:***********;  BLOECHL correction:  0.000000
       DOS:  cpu time    0.0032: real time    0.0032
    CHARGE:  cpu time    1.2465: real time    1.2554
    MIXING:  cpu time    0.0024: real time    0.0025
    --------------------------------------------
      LOOP:  cpu time   99.3579: real time  100.0788

 eigenvalue-minimisations  : 15104
 total energy-change (2. order) :-0.1039576E+00  (-0.1039573E+00)
 number of electron     688.0000273 magnetization       0.0000000
 augmentation part      282.2390384 magnetization       0.0000000

 Broyden mixing:
  rms(total) = 0.25404E-01    rms(broyden)= 0.25400E-01
  rms(prec ) = 0.25464E-01
  weight for this iteration     100.00

 Free energy of the ion-electron system (eV)
  ---------------------------------------------------
  alpha Z        PSCENC =      2358.69408977
  Ewald energy   TEWEN  =    -62502.99550166
  -Hartree energ DENC   =    -42930.60926227
  -exchange      EXHF   =         0.00000000
  -V(xc)+E(xc)   XCENC  =      3286.52679963
  PAW double counting   =    112266.24997471  -115959.93329058
  entropy T*S    EENTRO =         0.00000000
  eigenvalues    EBANDS =    -10865.82363803
  atomic energy  EATOM  =    114020.06510763
  Solvation  Ediel_sol  =         0.00000000
  ---------------------------------------------------
  free energy    TOTEN  =      -327.82572082 eV

  energy without entropy =     -327.82572082  energy(sigma->0) =     -327.82572082


--------------------------------------------------------------------------------------------------------




--------------------------------------- Iteration      1(   6)  ---------------------------------------


    POTLOK:  cpu time    0.1439: real time    0.1448
    SETDIJ:  cpu time    0.0130: real time    0.0131
     EDDAV:  cpu time  131.0422: real time  131.9381
 BZINTS: Fermi energy:  4.957254;688.000000 electrons
         Band energy:***********;  BLOECHL correction:  0.000000
       DOS:  cpu time    0.0032: real time    0.0032
    CHARGE:  cpu time    1.1881: real time    1.1963
    MIXING:  cpu time    0.0024: real time    0.0077
    --------------------------------------------
      LOOP:  cpu time  132.3928: real time  133.3031

 eigenvalue-minimisations  : 17664
 total energy-change (2. order) :-0.5176618E-02  (-0.5194622E-02)
 number of electron     688.0000273 magnetization       0.0000000
 augmentation part      282.2128200 magnetization       0.0000000

 Broyden mixing:
  rms(total) = 0.98008E-02    rms(broyden)= 0.97978E-02
  rms(prec ) = 0.10178E-01
  weight for this iteration     100.00

 eigenvalues of (default mixing * dielectric matrix)
  average eigenvalue GAMMA=   0.7208
  0.7208

 Free energy of the ion-electron system (eV)
  ---------------------------------------------------
  alpha Z        PSCENC =      2358.69408977
  Ewald energy   TEWEN  =    -62502.99550166
  -Hartree energ DENC   =    -42931.15385439
  -exchange      EXHF   =         0.00000000
  -V(xc)+E(xc)   XCENC  =      3286.55087400
  PAW double counting   =    112286.81803942  -115980.69187549
  entropy T*S    EENTRO =         0.00000000
  eigenvalues    EBANDS =    -10865.11777671
  atomic energy  EATOM  =    114020.06510763
  Solvation  Ediel_sol  =         0.00000000
  ---------------------------------------------------
  free energy    TOTEN  =      -327.83089744 eV

  energy without entropy =     -327.83089744  energy(sigma->0) =     -327.83089744


--------------------------------------------------------------------------------------------------------




--------------------------------------- Iteration      1(   7)  ---------------------------------------


    POTLOK:  cpu time    0.1406: real time    0.1415
    SETDIJ:  cpu time    0.0132: real time    0.0133
     EDDAV:  cpu time   94.3965: real time   95.0826
 BZINTS: Fermi energy:  4.944315;688.000000 electrons
         Band energy:***********;  BLOECHL correction:  0.000000
       DOS:  cpu time    0.0032: real time    0.0032
    CHARGE:  cpu time    1.1895: real time    1.1981
    MIXING:  cpu time    0.0030: real time    0.0296
    --------------------------------------------
      LOOP:  cpu time   95.7461: real time   96.4683

 eigenvalue-minimisations  : 14592
 total energy-change (2. order) :-0.2841701E-03  (-0.3251946E-03)
 number of electron     688.0000273 magnetization       0.0000000
 augmentation part      282.2267346 magnetization       0.0000000

 Broyden mixing:
  rms(total) = 0.86250E-02    rms(broyden)= 0.86241E-02
  rms(prec ) = 0.89627E-02
  weight for this iteration     100.00

 eigenvalues of (default mixing * dielectric matrix)
  average eigenvalue GAMMA=   0.5440
  0.5440  0.5440

 Free energy of the ion-electron system (eV)
  ---------------------------------------------------
  alpha Z        PSCENC =      2358.69408977
  Ewald energy   TEWEN  =    -62502.99550166
  -Hartree energ DENC   =    -42930.24081627
  -exchange      EXHF   =         0.00000000
  -V(xc)+E(xc)   XCENC  =      3286.52156440
  PAW double counting   =    112279.50660664  -115973.21559879
  entropy T*S    EENTRO =         0.00000000
  eigenvalues    EBANDS =    -10866.16663332
  atomic energy  EATOM  =    114020.06510763
  Solvation  Ediel_sol  =         0.00000000
  ---------------------------------------------------
  free energy    TOTEN  =      -327.83118161 eV

  energy without entropy =     -327.83118161  energy(sigma->0) =     -327.83118161


--------------------------------------------------------------------------------------------------------




--------------------------------------- Iteration      1(   8)  ---------------------------------------


    POTLOK:  cpu time    0.1505: real time    0.1517
    SETDIJ:  cpu time    0.0133: real time    0.0133
     EDDAV:  cpu time  119.7755: real time  120.6075
 BZINTS: Fermi energy:  4.942280;688.000000 electrons
         Band energy:***********;  BLOECHL correction:  0.000000
       DOS:  cpu time    0.0037: real time    0.0037
    CHARGE:  cpu time    1.1805: real time    1.1887
    MIXING:  cpu time    0.0018: real time    0.0031
    --------------------------------------------
      LOOP:  cpu time  121.1253: real time  121.9680

 eigenvalue-minimisations  : 16896
 total energy-change (2. order) :-0.1408416E-04  (-0.3346884E-04)
 number of electron     688.0000273 magnetization       0.0000000
 augmentation part      282.2243269 magnetization       0.0000000

 Broyden mixing:
  rms(total) = 0.75436E-02    rms(broyden)= 0.75434E-02
  rms(prec ) = 0.76151E-02
  weight for this iteration     100.00

 eigenvalues of (default mixing * dielectric matrix)
  average eigenvalue GAMMA=   0.4239
  0.5090  0.5090  0.2536

 Free energy of the ion-electron system (eV)
  ---------------------------------------------------
  alpha Z        PSCENC =      2358.69408977
  Ewald energy   TEWEN  =    -62502.99550166
  -Hartree energ DENC   =    -42930.54850894
  -exchange      EXHF   =         0.00000000
  -V(xc)+E(xc)   XCENC  =      3286.53229277
  PAW double counting   =    112278.11799267  -115971.85894926
  entropy T*S    EENTRO =         0.00000000
  eigenvalues    EBANDS =    -10865.83771866
  atomic energy  EATOM  =    114020.06510763
  Solvation  Ediel_sol  =         0.00000000
  ---------------------------------------------------
  free energy    TOTEN  =      -327.83119569 eV

  energy without entropy =     -327.83119569  energy(sigma->0) =     -327.83119569


--------------------------------------------------------------------------------------------------------




--------------------------------------- Iteration      1(   9)  ---------------------------------------


    POTLOK:  cpu time    0.1408: real time    0.1418
    SETDIJ:  cpu time    0.0132: real time    0.0133
     EDDAV:  cpu time   91.9773: real time   92.6505
 BZINTS: Fermi energy:  4.941688;688.000000 electrons
         Band energy:***********;  BLOECHL correction:  0.000000
       DOS:  cpu time    0.0032: real time    0.0032
    CHARGE:  cpu time    1.1822: real time    1.1901
    MIXING:  cpu time    0.0015: real time    0.0015
    --------------------------------------------
      LOOP:  cpu time   93.3182: real time   94.0004

 eigenvalue-minimisations  : 14592
 total energy-change (2. order) :-0.1737644E-06  (-0.1940457E-05)
 number of electron     688.0000273 magnetization       0.0000000
 augmentation part      282.2233752 magnetization       0.0000000

 Broyden mixing:
  rms(total) = 0.67711E-02    rms(broyden)= 0.67711E-02
  rms(prec ) = 0.67874E-02
  weight for this iteration     100.00

 eigenvalues of (default mixing * dielectric matrix)
  average eigenvalue GAMMA=   0.4968
  0.6471  0.6471  0.3465  0.3465

 Free energy of the ion-electron system (eV)
  ---------------------------------------------------
  alpha Z        PSCENC =      2358.69408977
  Ewald energy   TEWEN  =    -62502.99550166
  -Hartree energ DENC   =    -42930.58243983
  -exchange      EXHF   =         0.00000000
  -V(xc)+E(xc)   XCENC  =      3286.53151181
  PAW double counting   =    112277.22646616  -115970.97022282
  entropy T*S    EENTRO =         0.00000000
  eigenvalues    EBANDS =    -10865.80020692
  atomic energy  EATOM  =    114020.06510763
  Solvation  Ediel_sol  =         0.00000000
  ---------------------------------------------------
  free energy    TOTEN  =      -327.83119587 eV

  energy without entropy =     -327.83119587  energy(sigma->0) =     -327.83119587


--------------------------------------------------------------------------------------------------------




--------------------------------------- Iteration      1(  10)  ---------------------------------------


    POTLOK:  cpu time    0.1405: real time    0.1416
    SETDIJ:  cpu time    0.0130: real time    0.0130
     EDDAV:  cpu time  141.6106: real time  142.5667
 BZINTS: Fermi energy:  4.941192;688.000000 electrons
         Band energy:***********;  BLOECHL correction:  0.000000
       DOS:  cpu time    0.0032: real time    0.0032
    CHARGE:  cpu time    1.1822: real time    1.1903
    MIXING:  cpu time    0.0015: real time    0.0015
    --------------------------------------------
      LOOP:  cpu time  142.9511: real time  143.9163

 eigenvalue-minimisations  : 18688
 total energy-change (2. order) : 0.1989101E-06  (-0.1108783E-06)
 number of electron     688.0000273 magnetization      -0.0000000
 augmentation part      282.2230417 magnetization      -0.0000000

 Broyden mixing:
  rms(total) = 0.57827E-02    rms(broyden)= 0.57827E-02
  rms(prec ) = 0.57976E-02
  weight for this iteration     100.00

 eigenvalues of (default mixing * dielectric matrix)
  average eigenvalue GAMMA=   0.7642
  1.2560  1.2560  0.4833  0.4833  0.3425

 Free energy of the ion-electron system (eV)
  ---------------------------------------------------
  alpha Z        PSCENC =      2358.69408977
  Ewald energy   TEWEN  =    -62502.99550166
  -Hartree energ DENC   =    -42930.61679343
  -exchange      EXHF   =         0.00000000
  -V(xc)+E(xc)   XCENC  =      3286.53147168
  PAW double counting   =    112275.59118186  -115969.32840934
  entropy T*S    EENTRO =         0.00000000
  eigenvalues    EBANDS =    -10865.77234216
  atomic energy  EATOM  =    114020.06510763
  Solvation  Ediel_sol  =         0.00000000
  ---------------------------------------------------
  free energy    TOTEN  =      -327.83119567 eV

  energy without entropy =     -327.83119567  energy(sigma->0) =     -327.83119567


--------------------------------------------------------------------------------------------------------




--------------------------------------- Iteration      1(  11)  ---------------------------------------


    POTLOK:  cpu time    0.1399: real time    0.1408
    SETDIJ:  cpu time    0.0131: real time    0.0131
     EDDAV:  cpu time   80.5671: real time   81.1648
 BZINTS: Fermi energy:  4.940936;688.000000 electrons
         Band energy:***********;  BLOECHL correction:  0.000000
       DOS:  cpu time    0.0032: real time    0.0033
    CHARGE:  cpu time    1.1818: real time    1.1903
    MIXING:  cpu time    0.0016: real time    0.0016
    --------------------------------------------
      LOOP:  cpu time   81.9067: real time   82.5139

 eigenvalue-minimisations  : 13312
 total energy-change (2. order) : 0.8441421E-06  (-0.1361870E-06)
 number of electron     688.0000273 magnetization      -0.0000000
 augmentation part      282.2237719 magnetization      -0.0000000

 Broyden mixing:
  rms(total) = 0.25982E-02    rms(broyden)= 0.25982E-02
  rms(prec ) = 0.26082E-02
  weight for this iteration     100.00

 eigenvalues of (default mixing * dielectric matrix)
  average eigenvalue GAMMA=   0.9038
  1.7063  1.4610  0.6695  0.6695  0.5811  0.3353

 Free energy of the ion-electron system (eV)
  ---------------------------------------------------
  alpha Z        PSCENC =      2358.69408977
  Ewald energy   TEWEN  =    -62502.99550166
  -Hartree energ DENC   =    -42930.63802478
  -exchange      EXHF   =         0.00000000
  -V(xc)+E(xc)   XCENC  =      3286.53008774
  PAW double counting   =    112270.36646578  -115964.06980592
  entropy T*S    EENTRO =         0.00000000
  eigenvalues    EBANDS =    -10865.78361338
  atomic energy  EATOM  =    114020.06510763
  Solvation  Ediel_sol  =         0.00000000
  ---------------------------------------------------
  free energy    TOTEN  =      -327.83119482 eV

  energy without entropy =     -327.83119482  energy(sigma->0) =     -327.83119482


--------------------------------------------------------------------------------------------------------




--------------------------------------- Iteration      1(  12)  ---------------------------------------


    POTLOK:  cpu time    0.1396: real time    0.1419
    SETDIJ:  cpu time    0.0136: real time    0.0137
     EDDAV:  cpu time  139.3852: real time  140.3419
 BZINTS: Fermi energy:  4.940715;688.000000 electrons
         Band energy:***********;  BLOECHL correction:  0.000000
       DOS:  cpu time    0.0032: real time    0.0032
    CHARGE:  cpu time    1.1883: real time    1.1966
    MIXING:  cpu time    0.0016: real time    0.0016
    --------------------------------------------
      LOOP:  cpu time  140.7315: real time  141.6990

 eigenvalue-minimisations  : 18944
 total energy-change (2. order) : 0.5003094E-06  (-0.1469919E-06)
 number of electron     688.0000273 magnetization      -0.0000000
 augmentation part      282.2248173 magnetization      -0.0000000

 Broyden mixing:
  rms(total) = 0.25919E-03    rms(broyden)= 0.25918E-03
  rms(prec ) = 0.27527E-03
  weight for this iteration     100.00

 eigenvalues of (default mixing * dielectric matrix)
  average eigenvalue GAMMA=   0.9395
  2.3406  1.0326  1.0326  0.6547  0.6547  0.5236  0.3376

 Free energy of the ion-electron system (eV)
  ---------------------------------------------------
  alpha Z        PSCENC =      2358.69408977
  Ewald energy   TEWEN  =    -62502.99550166
  -Hartree energ DENC   =    -42930.64170879
  -exchange      EXHF   =         0.00000000
  -V(xc)+E(xc)   XCENC  =      3286.52890888
  PAW double counting   =    112265.62179062  -115959.29591189
  entropy T*S    EENTRO =         0.00000000
  eigenvalues    EBANDS =    -10865.80796887
  atomic energy  EATOM  =    114020.06510763
  Solvation  Ediel_sol  =         0.00000000
  ---------------------------------------------------
  free energy    TOTEN  =      -327.83119432 eV

  energy without entropy =     -327.83119432  energy(sigma->0) =     -327.83119432


--------------------------------------------------------------------------------------------------------




--------------------------------------- Iteration      1(  13)  ---------------------------------------


    POTLOK:  cpu time    0.1390: real time    0.1410
    SETDIJ:  cpu time    0.0130: real time    0.0130
     EDDAV:  cpu time   79.0684: real time   79.6628
 BZINTS: Fermi energy:  4.940560;688.000000 electrons
         Band energy:***********;  BLOECHL correction:  0.000000
       DOS:  cpu time    0.0032: real time    0.0032
    CHARGE:  cpu time    1.1815: real time    1.1898
    MIXING:  cpu time    0.0018: real time    0.0019
    --------------------------------------------
      LOOP:  cpu time   80.4070: real time   81.0117

 eigenvalue-minimisations  : 13312
 total energy-change (2. order) :-0.2022716E-08  (-0.1087303E-07)
 number of electron     688.0000273 magnetization      -0.0000000
 augmentation part      282.2248609 magnetization      -0.0000000

 Broyden mixing:
  rms(total) = 0.34734E-03    rms(broyden)= 0.34734E-03
  rms(prec ) = 0.35126E-03
  weight for this iteration     100.00

 eigenvalues of (default mixing * dielectric matrix)
  average eigenvalue GAMMA=   1.0611
  2.8036  1.3953  1.3953  0.7314  0.7314  0.3371  0.5474  0.5474

 Free energy of the ion-electron system (eV)
  ---------------------------------------------------
  alpha Z        PSCENC =      2358.69408977
  Ewald energy   TEWEN  =    -62502.99550166
  -Hartree energ DENC   =    -42930.64158116
  -exchange      EXHF   =         0.00000000
  -V(xc)+E(xc)   XCENC  =      3286.52888437
  PAW double counting   =    112265.33361774  -115959.00705876
  entropy T*S    EENTRO =         0.00000000
  eigenvalues    EBANDS =    -10865.80875225
  atomic energy  EATOM  =    114020.06510763
  Solvation  Ediel_sol  =         0.00000000
  ---------------------------------------------------
  free energy    TOTEN  =      -327.83119432 eV

  energy without entropy =     -327.83119432  energy(sigma->0) =     -327.83119432


--------------------------------------------------------------------------------------------------------




--------------------------------------- Iteration      1(  14)  ---------------------------------------


    POTLOK:  cpu time    0.1398: real time    0.1407
    SETDIJ:  cpu time    0.0130: real time    0.0131
     EDDAV:  cpu time  100.8721: real time  101.5710
 BZINTS: Fermi energy:  4.940327;688.000000 electrons
         Band energy:***********;  BLOECHL correction:  0.000000
       DOS:  cpu time    0.0032: real time    0.0032
    CHARGE:  cpu time    1.1808: real time    1.1894
    MIXING:  cpu time    0.0017: real time    0.0017
    --------------------------------------------
      LOOP:  cpu time  102.2106: real time  102.9191

 eigenvalue-minimisations  : 13312
 total energy-change (2. order) :-0.3355672E-07  (-0.9344022E-08)
 number of electron     688.0000273 magnetization       0.0000000
 augmentation part      282.2248773 magnetization       0.0000000

 Broyden mixing:
  rms(total) = 0.19429E-03    rms(broyden)= 0.19429E-03
  rms(prec ) = 0.19614E-03
  weight for this iteration     100.00

 eigenvalues of (default mixing * dielectric matrix)
  average eigenvalue GAMMA=   1.1520
  3.4708  1.5623  1.5623  0.8586  0.8586  0.3370  0.5927  0.5927  0.5327

 Free energy of the ion-electron system (eV)
  ---------------------------------------------------
  alpha Z        PSCENC =      2358.69408977
  Ewald energy   TEWEN  =    -62502.99550166
  -Hartree energ DENC   =    -42930.63693120
  -exchange      EXHF   =         0.00000000
  -V(xc)+E(xc)   XCENC  =      3286.52890447
  PAW double counting   =    112265.52957454  -115959.20559616
  entropy T*S    EENTRO =         0.00000000
  eigenvalues    EBANDS =    -10865.81084174
  atomic energy  EATOM  =    114020.06510763
  Solvation  Ediel_sol  =         0.00000000
  ---------------------------------------------------
  free energy    TOTEN  =      -327.83119436 eV

  energy without entropy =     -327.83119436  energy(sigma->0) =     -327.83119436


--------------------------------------------------------------------------------------------------------




--------------------------------------- Iteration      1(  15)  ---------------------------------------


    POTLOK:  cpu time    0.1388: real time    0.1419
    SETDIJ:  cpu time    0.0131: real time    0.0131
     EDDAV:  cpu time   54.0694: real time   54.4933
 BZINTS: Fermi energy:  4.940143;688.000000 electrons
         Band energy:***********;  BLOECHL correction:  0.000000
       DOS:  cpu time    0.0032: real time    0.0032
    --------------------------------------------
      LOOP:  cpu time   54.2244: real time   54.6515

 eigenvalue-minimisations  :  9216
 total energy-change (2. order) : 0.7858034E-08  (-0.2434746E-08)
 number of electron     688.0000273 magnetization       0.0000000
 augmentation part      282.2248773 magnetization       0.0000000

 Free energy of the ion-electron system (eV)
  ---------------------------------------------------
  alpha Z        PSCENC =      2358.69408977
  Ewald energy   TEWEN  =    -62502.99550166
  -Hartree energ DENC   =    -42930.63716596
  -exchange      EXHF   =         0.00000000
  -V(xc)+E(xc)   XCENC  =      3286.52885585
  PAW double counting   =    112265.46719390  -115959.14315453
  entropy T*S    EENTRO =         0.00000000
  eigenvalues    EBANDS =    -10865.81061933
  atomic energy  EATOM  =    114020.06510763
  Solvation  Ediel_sol  =         0.00000000
  ---------------------------------------------------
  free energy    TOTEN  =      -327.83119435 eV

  energy without entropy =     -327.83119435  energy(sigma->0) =     -327.83119435


--------------------------------------------------------------------------------------------------------




 average (electrostatic) potential at core
  the test charge radii are     0.9698  0.8297  0.9500
  (the norm of the test charge is              1.0000)
       1 -86.6084       2 -86.6084       3 -86.6084       4 -86.6084       5 -86.6084
       6 -86.6084       7 -86.6084       8 -86.6084       9 -86.6084      10 -86.6084
      11 -86.6084      12 -86.6084      13 -86.6084      14 -86.6084      15 -86.6084
      16 -86.6084      17 -86.6084      18 -86.6084      19 -86.6084      20 -86.6084
      21 -86.6084      22 -86.6084      23 -86.6084      24 -86.6084      25 -86.6084
      26 -86.6084      27 -86.6084      28 -86.6084      29 -86.6084      30 -86.6084
      31 -86.6084      32 -86.6084      33 -80.6907      34 -80.6907      35 -80.6907
      36 -80.6907      37 -80.6907      38 -80.6907      39 -80.6907      40 -80.6907
      41 -80.6907      42 -80.6907      43 -80.6907      44 -80.6907      45 -80.6907
      46 -80.6907      47 -80.6907      48 -80.6907      49 -80.2106      50 -80.2106
      51 -80.2106      52 -80.2106      53 -80.2106      54 -80.2106      55 -80.2106
      56 -80.2106      57 -80.2106      58 -80.2106      59 -80.2106      60 -80.2106
      61 -80.2106      62 -80.2106      63 -80.2106      64 -80.2106
 
 
 
 E-fermi :   4.9401     XC(G=0): -10.4738     alpha+bet :-10.5577


 spin component 1

 k-point     1 :       0.0000    0.0000    0.0000
  band No.  band energies     occupation 
      1     -64.3022      1.00000
      2     -64.3022      1.00000
      3     -64.3022      1.00000
      4     -64.3022      1.00000
      5     -64.3022      1.00000
      6     -64.3022      1.00000
      7     -64.3022      1.00000
      8     -64.3022      1.00000
      9     -64.2720      1.00000
     10     -64.2720      1.00000
     11     -64.2720      1.00000
     12     -64.2720      1.00000
     13     -64.2720      1.00000
     14     -64.2720      1.00000
     15     -64.2720      1.00000
     16     -64.2720      1.00000
     17     -64.2674      1.00000
     18     -64.2674      1.00000
     19     -64.2674      1.00000
     20     -64.2674      1.00000
     21     -64.2674      1.00000
     22     -64.2674      1.00000
     23     -64.2674      1.00000
     24     -64.2674      1.00000
     25     -64.2632      1.00000
     26     -64.2632      1.00000
     27     -64.2632      1.00000
     28     -64.2632      1.00000
     29     -64.2632      1.00000
     30     -64.2632      1.00000
     31     -64.2632      1.00000
     32     -64.2632      1.00000
     33     -64.2621      1.00000
     34     -64.2621      1.00000
     35     -64.2621      1.00000
     36     -64.2621      1.00000
     37     -64.2621      1.00000
     38     -64.2621      1.00000
     39     -64.2621      1.00000
     40     -64.2621      1.00000
     41     -64.2401      1.00000
     42     -64.2401      1.00000
     43     -64.2401      1.00000
     44     -64.2401      1.00000
     45     -64.2401      1.00000
     46     -64.2401      1.00000
     47     -64.2401      1.00000
     48     -64.2401      1.00000
     49     -51.8532      1.00000
     50     -51.8532      1.00000
     51     -51.8532      1.00000
     52     -51.8532      1.00000
     53     -51.8532      1.00000
     54     -51.8532      1.00000
     55     -51.8532      1.00000
     56     -51.8532      1.00000
     57     -51.8505      1.00000
     58     -51.8505      1.00000
     59     -51.8505      1.00000
     60     -51.8505      1.00000
     61     -51.8505      1.00000
     62     -51.8505      1.00000
     63     -51.8505      1.00000
     64     -51.8505      1.00000
     65     -51.8223      1.00000
     66     -51.8223      1.00000
     67     -51.8223      1.00000
     68     -51.8223      1.00000
     69     -51.8223      1.00000
     70     -51.8223      1.00000
     71     -51.8223      1.00000
     72     -51.8223      1.00000
     73     -47.7151      1.00000
     74     -47.7151      1.00000
     75     -47.7151      1.00000
     76     -47.7151      1.00000
     77     -47.7151      1.00000
     78     -47.7151      1.00000
     79     -47.7151      1.00000
     80     -47.7151      1.00000
     81     -47.7095      1.00000
     82     -47.7095      1.00000
     83     -47.7095      1.00000
     84     -47.7095      1.00000
     85     -47.7095      1.00000
     86     -47.7095      1.00000
     87     -47.7095      1.00000
     88     -47.7095      1.00000
     89     -47.7071      1.00000
     90     -47.7071      1.00000
     91     -47.7071      1.00000
     92     -47.7071      1.00000
     93     -47.7071      1.00000
     94     -47.7071      1.00000
     95     -47.7071      1.00000
     96     -47.7071      1.00000
     97      -9.1023      1.00000
     98      -8.4950      1.00000
     99      -8.4852      1.00000
    100      -8.4852      1.00000
    101      -8.4849      1.00000
    102      -8.4849      1.00000
    103      -8.4679      1.00000
    104      -8.1738      1.00000
    105      -8.1627      1.00000
    106      -8.1365      1.00000
    107      -8.1306      1.00000
    108      -8.1263      1.00000
    109      -8.1263      1.00000
    110      -8.1263      1.00000
    111      -8.1263      1.00000
    112      -8.0995      1.00000
    113      -8.0995      1.00000
    114      -8.0995      1.00000
    115      -8.0995      1.00000
    116      -8.0762      1.00000
    117      -8.0509      1.00000
    118      -8.0430      1.00000
    119      -8.0119      1.00000
    120      -7.7580      1.00000
    121      -7.7525      1.00000
    122      -7.7450      1.00000
    123      -7.7408      1.00000
    124      -7.7408      1.00000
    125      -7.7402      1.00000
    126      -7.7402      1.00000
    127      -7.7347      1.00000
    128      -7.7281      1.00000
    129      -2.0594      1.00000
    130      -2.0342      1.00000
    131      -2.0342      1.00000
    132      -2.0262      1.00000
    133      -2.0262      1.00000
    134      -2.0095      1.00000
    135      -1.9618      1.00000
    136      -1.9606      1.00000
    137      -1.9102      1.00000
    138      -1.8885      1.00000
    139      -1.8765      1.00000
    140      -1.8721      1.00000
    141      -1.8721      1.00000
    142      -1.8673      1.00000
    143      -1.8673      1.00000
    144      -1.8663      1.00000
    145      -1.8499      1.00000
    146      -1.8270      1.00000
    147      -1.8270      1.00000
    148      -1.8229      1.00000
    149      -1.8227      1.00000
    150      -1.8227      1.00000
    151      -1.7981      1.00000
    152      -1.7852      1.00000
    153      -1.7852      1.00000
    154      -1.7822      1.00000
    155      -1.7820      1.00000
    156      -1.7709      1.00000
    157      -1.7709      1.00000
    158      -1.7501      1.00000
    159      -1.7370      1.00000
    160      -1.7370      1.00000
    161      -1.7342      1.00000
    162      -1.7322      1.00000
    163      -1.7322      1.00000
    164      -1.7241      1.00000
    165      -1.7149      1.00000
    166      -1.6951      1.00000
    167      -1.6914      1.00000
    168      -1.6896      1.00000
    169      -1.0093      1.00000
    170      -0.8948      1.00000
    171      -0.8873      1.00000
    172      -0.7971      1.00000
    173      -0.7273      1.00000
    174      -0.4976      1.00000
    175      -0.2251      1.00000
    176      -0.2251      1.00000
    177      -0.2207      1.00000
    178      -0.2207      1.00000
    179      -0.1845      1.00000
    180      -0.1807      1.00000
    181      -0.1104      1.00000
    182      -0.0238      1.00000
    183      -0.0238      1.00000
    184      -0.0145      1.00000
    185      -0.0145      1.00000
    186       0.0433      1.00000
    187       0.0485      1.00000
    188       0.1090      1.00000
    189       0.1090      1.00000
[...]
   -.420E+02 0.413E+00 0.162E+02   0.429E+02 -.395E+00 -.163E+02   -.859E+00 -.177E-01 0.157E+00   -.437E-04 -.154E-06 -.137E-07
   -.420E+02 0.413E+00 0.162E+02   0.429E+02 -.395E+00 -.163E+02   -.859E+00 -.177E-01 0.157E+00   -.437E-04 -.154E-06 -.137E-07
   -.420E+02 0.413E+00 0.162E+02   0.429E+02 -.395E+00 -.163E+02   -.859E+00 -.177E-01 0.157E+00   -.437E-04 -.154E-06 -.137E-07
   -.420E+02 0.413E+00 0.162E+02   0.429E+02 -.395E+00 -.163E+02   -.859E+00 -.177E-01 0.157E+00   -.437E-04 -.154E-06 -.137E-07
   0.420E+02 -.413E+00 0.162E+02   -.429E+02 0.395E+00 -.163E+02   0.859E+00 0.177E-01 0.157E+00   0.437E-04 0.154E-06 -.137E-07
   0.420E+02 -.413E+00 0.162E+02   -.429E+02 0.395E+00 -.163E+02   0.859E+00 0.177E-01 0.157E+00   0.437E-04 0.154E-06 -.137E-07
   0.420E+02 -.413E+00 0.162E+02   -.429E+02 0.395E+00 -.163E+02   0.859E+00 0.177E-01 0.157E+00   0.437E-04 0.154E-06 -.137E-07
   0.420E+02 -.413E+00 0.162E+02   -.429E+02 0.395E+00 -.163E+02   0.859E+00 0.177E-01 0.157E+00   0.437E-04 0.154E-06 -.137E-07
   0.413E+00 -.420E+02 0.162E+02   -.395E+00 0.429E+02 -.163E+02   -.177E-01 -.859E+00 0.157E+00   -.154E-06 -.437E-04 -.137E-07
   0.413E+00 -.420E+02 0.162E+02   -.395E+00 0.429E+02 -.163E+02   -.177E-01 -.859E+00 0.157E+00   -.154E-06 -.437E-04 -.137E-07
   0.413E+00 -.420E+02 0.162E+02   -.395E+00 0.429E+02 -.163E+02   -.177E-01 -.859E+00 0.157E+00   -.154E-06 -.437E-04 -.137E-07
   0.413E+00 -.420E+02 0.162E+02   -.395E+00 0.429E+02 -.163E+02   -.177E-01 -.859E+00 0.157E+00   -.154E-06 -.437E-04 -.137E-07
   -.413E+00 0.420E+02 0.162E+02   0.395E+00 -.429E+02 -.163E+02   0.177E-01 0.859E+00 0.157E+00   0.154E-06 0.437E-04 -.137E-07
   -.413E+00 0.420E+02 0.162E+02   0.395E+00 -.429E+02 -.163E+02   0.177E-01 0.859E+00 0.157E+00   0.154E-06 0.437E-04 -.137E-07
   -.413E+00 0.420E+02 0.162E+02   0.395E+00 -.429E+02 -.163E+02   0.177E-01 0.859E+00 0.157E+00   0.154E-06 0.437E-04 -.137E-07
   -.413E+00 0.420E+02 0.162E+02   0.395E+00 -.429E+02 -.163E+02   0.177E-01 0.859E+00 0.157E+00   0.154E-06 0.437E-04 -.137E-07
   -.113E-06 0.858E-07 -.189E+02   -.862E-13 0.135E-12 0.182E+02   0.792E-25 0.258E-25 0.768E+00   0.451E-11 0.125E-11 -.172E-04
   -.113E-06 0.858E-07 -.189E+02   -.293E-13 0.142E-12 0.182E+02   -.493E-25 0.149E-24 0.768E+00   -.488E-11 0.133E-11 -.172E-04
   -.113E-06 0.859E-07 -.189E+02   -.577E-13 0.156E-12 0.182E+02   0.396E-25 -.155E-24 0.768E+00   0.452E-11 -.159E-11 -.172E-04
   -.113E-06 0.858E-07 -.189E+02   -.577E-13 0.171E-12 0.182E+02   0.137E-24 0.155E-24 0.768E+00   -.452E-11 -.619E-12 -.172E-04
   0.858E-07 -.113E-06 -.189E+02   0.114E-12 -.568E-13 0.182E+02   0.136E-24 -.155E-24 0.768E+00   -.114E-11 0.105E-11 -.172E-04
   0.859E-07 -.113E-06 -.189E+02   0.114E-12 -.568E-13 0.182E+02   0.725E-25 0.349E-24 0.768E+00   0.135E-11 0.878E-12 -.172E-04
   0.858E-07 -.113E-06 -.189E+02   0.171E-12 0.000E+00 0.182E+02   0.197E-24 0.207E-24 0.768E+00   -.620E-13 -.154E-11 -.172E-04
   0.859E-07 -.113E-06 -.189E+02   0.171E-12 0.568E-13 0.182E+02   -.173E-24 -.258E-25 0.768E+00   0.103E-11 -.192E-11 -.172E-04
   -.113E-06 0.858E-07 -.189E+02   0.000E+00 0.471E-13 0.182E+02   0.307E-25 -.103E-24 0.768E+00   -.359E-11 -.163E-11 -.172E-04
   -.113E-06 0.858E-07 -.189E+02   -.284E-13 0.613E-13 0.182E+02   0.191E-24 0.897E-25 0.768E+00   0.357E-11 -.179E-11 -.172E-04
   -.113E-06 0.859E-07 -.189E+02   -.284E-13 0.275E-13 0.182E+02   0.210E-25 0.207E-24 0.768E+00   -.350E-11 0.175E-11 -.172E-04
   -.113E-06 0.859E-07 -.189E+02   -.284E-13 -.222E-13 0.182E+02   -.172E-24 -.614E-25 0.768E+00   0.316E-11 0.155E-11 -.172E-04
   0.858E-07 -.113E-06 -.189E+02   0.198E-12 -.172E-12 0.182E+02   -.286E-24 0.646E-26 0.768E+00   0.204E-11 -.117E-11 -.172E-04
   0.859E-07 -.113E-06 -.189E+02   0.173E-12 -.172E-12 0.182E+02   0.249E-24 0.258E-25 0.768E+00   -.195E-11 -.144E-11 -.172E-04
   0.858E-07 -.113E-06 -.189E+02   0.141E-12 -.112E-12 0.182E+02   0.159E-24 -.129E-25 0.768E+00   0.272E-11 0.116E-11 -.172E-04
   0.859E-07 -.113E-06 -.189E+02   0.144E-12 -.169E-12 0.182E+02   -.404E-26 0.258E-25 0.768E+00   -.265E-11 0.450E-12 -.172E-04
   0.609E-07 -.667E-07 -.154E+02   -.122E-12 0.195E-12 0.144E+02   -.848E-25 -.517E-24 0.914E+00   -.248E-11 0.904E-12 -.159E-04
   0.609E-07 -.667E-07 -.154E+02   -.755E-13 0.171E-12 0.144E+02   -.727E-26 0.103E-24 0.914E+00   0.189E-11 0.723E-12 -.159E-04
   0.609E-07 -.667E-07 -.154E+02   -.933E-13 0.160E-12 0.144E+02   -.171E-24 0.239E-24 0.914E+00   -.254E-11 -.715E-12 -.159E-04
   0.609E-07 -.667E-07 -.154E+02   -.755E-13 0.995E-13 0.144E+02   0.889E-25 -.103E-24 0.914E+00   0.218E-11 -.744E-12 -.159E-04
   -.667E-07 0.609E-07 -.154E+02   0.497E-13 -.995E-13 0.144E+02   0.141E-24 -.258E-25 0.914E+00   -.608E-12 0.608E-12 -.159E-04
   -.667E-07 0.609E-07 -.154E+02   0.711E-13 -.995E-13 0.144E+02   -.129E-24 -.129E-25 0.914E+00   0.601E-12 0.117E-11 -.159E-04
   -.667E-07 0.609E-07 -.154E+02   0.249E-13 -.171E-12 0.144E+02   0.420E-25 0.905E-25 0.914E+00   -.539E-12 -.730E-12 -.159E-04
   -.667E-07 0.609E-07 -.154E+02   0.711E-13 -.171E-12 0.144E+02   0.244E-24 0.103E-24 0.914E+00   0.532E-12 -.114E-11 -.159E-04
   0.609E-07 -.667E-07 -.154E+02   -.156E-12 0.150E-12 0.144E+02   0.606E-25 -.155E-24 0.914E+00   0.139E-11 -.122E-11 -.159E-04
   0.609E-07 -.667E-07 -.154E+02   -.853E-13 0.175E-12 0.144E+02   -.929E-25 -.103E-24 0.914E+00   -.161E-11 -.751E-12 -.159E-04
   0.609E-07 -.667E-07 -.154E+02   -.185E-12 0.179E-12 0.144E+02   -.590E-25 0.258E-25 0.914E+00   0.160E-11 0.899E-12 -.159E-04
   0.609E-07 -.667E-07 -.154E+02   -.142E-12 0.183E-12 0.144E+02   -.460E-25 0.517E-25 0.914E+00   -.200E-11 0.864E-12 -.159E-04
   -.667E-07 0.609E-07 -.154E+02   -.224E-13 -.182E-12 0.144E+02   0.832E-25 0.181E-24 0.914E+00   -.920E-12 -.156E-11 -.159E-04
   -.667E-07 0.608E-07 -.154E+02   -.740E-14 -.183E-12 0.144E+02   0.969E-25 0.103E-24 0.914E+00   0.800E-12 -.146E-11 -.159E-04
   -.667E-07 0.609E-07 -.154E+02   -.208E-13 -.117E-12 0.144E+02   0.291E-25 -.517E-25 0.914E+00   -.510E-12 0.140E-11 -.159E-04
   -.667E-07 0.609E-07 -.154E+02   0.846E-14 -.117E-12 0.144E+02   -.170E-24 0.103E-24 0.914E+00   0.341E-12 0.131E-11 -.159E-04
 -----------------------------------------------------------------------------------------------
   -.205E-06 -.205E-06 -.319E+02   -.570E-12 0.867E-14 0.291E-12   0.113E-14 0.666E-15 0.319E+02   -.500E-12 -.301E-11 -.530E-03
 
 
 POSITION                                       TOTAL-FORCE (eV/Angst)
 -----------------------------------------------------------------------------------
      1.35926      1.35086      1.27288         0.001642     -0.000700     -0.002869
      6.61123      1.48834      1.27288         0.001642     -0.000700     -0.002869
      1.49674      6.60283      1.27288         0.001642     -0.000700     -0.002869
      6.74870      6.74031      1.27288         0.001642     -0.000700     -0.002869
      4.03018      4.03858      1.27288        -0.001642      0.000700     -0.002869
      9.28215      4.17606      1.27288        -0.001642      0.000700     -0.002869
      4.16766      9.29055      1.27288        -0.001642      0.000700     -0.002869
      9.41963      9.42802      1.27288        -0.001642      0.000700     -0.002869
      1.41260      3.96144      9.09163         0.000700     -0.001642     -0.002869
      6.66456      4.09892      9.09163         0.000700     -0.001642     -0.002869
      1.55008      9.21341      9.09163         0.000700     -0.001642     -0.002869
      6.80204      9.35089      9.09163         0.000700     -0.001642     -0.002869
      3.97685      1.42800      9.09163        -0.000700      0.001642     -0.002869
      9.22881      1.56548      9.09163        -0.000700      0.001642     -0.002869
      4.11432      6.67997      9.09163        -0.000700      0.001642     -0.002869
      9.36629      6.81744      9.09163        -0.000700      0.001642     -0.002869
      1.33546      1.34386      6.48538        -0.001642      0.000700     -0.002869
      6.58743      1.48134      6.48538        -0.001642      0.000700     -0.002869
      1.47294      6.59582      6.48538        -0.001642      0.000700     -0.002869
      6.72490      6.73330      6.48538        -0.001642      0.000700     -0.002869
      4.05398      4.04559      6.48538         0.001642     -0.000700     -0.002869
      9.30595      4.18306      6.48538         0.001642     -0.000700     -0.002869
      4.19146      9.29755      6.48538         0.001642     -0.000700     -0.002869
      9.44343      9.43503      6.48538         0.001642     -0.000700     -0.002869
      3.96984      1.40420      3.87913         0.000700     -0.001642     -0.002869
      9.22181      1.54168      3.87913         0.000700     -0.001642     -0.002869
      4.10732      6.65616      3.87913         0.000700     -0.001642     -0.002869
      9.35928      6.79364      3.87913         0.000700     -0.001642     -0.002869
      1.41960      3.98524      3.87913        -0.000700      0.001642     -0.002869
      6.67157      4.12272      3.87913        -0.000700      0.001642     -0.002869
      1.55708      9.23721      3.87913        -0.000700      0.001642     -0.002869
      6.80905      9.37469      3.87913        -0.000700      0.001642     -0.002869
      0.00000      0.00000      5.23873         0.000000     -0.000000      0.000690
      5.25197      0.13748      5.23873         0.000000     -0.000000      0.000690
      0.13748      5.25197      5.23873         0.000000     -0.000000      0.000690
      5.38944      5.38944      5.23873         0.000000     -0.000000      0.000690
      2.62598      0.06874      2.63248         0.000000     -0.000000      0.000690
      7.87795      0.20622      2.63248         0.000000     -0.000000      0.000690
      2.76346      5.32070      2.63248         0.000000     -0.000000      0.000690
      8.01543      5.45818      2.63248         0.000000     -0.000000      0.000690
      2.69472      2.69472      0.02623         0.000000     -0.000000      0.000690
      7.94669      2.83220      0.02623         0.000000     -0.000000      0.000690
      2.83220      7.94669      0.02623         0.000000     -0.000000      0.000690
      8.08417      8.08417      0.02623         0.000000     -0.000000      0.000690
      0.06874      2.62598      7.84498         0.000000     -0.000000      0.000690
      5.32070      2.76346      7.84498         0.000000     -0.000000      0.000690
      0.20622      7.87795      7.84498         0.000000     -0.000000      0.000690
      5.45818      8.01543      7.84498         0.000000     -0.000000      0.000690
      0.00000      0.00000      0.03425         0.000000     -0.000000      0.005048
      5.25197      0.13748      0.03425         0.000000     -0.000000      0.005048
      0.13748      5.25197      0.03425         0.000000     -0.000000      0.005048
      5.38944      5.38944      0.03425         0.000000     -0.000000      0.005048
      2.62598      0.06874      7.85300         0.000000     -0.000000      0.005048
      7.87795      0.20622      7.85300         0.000000     -0.000000      0.005048
      2.76346      5.32070      7.85300         0.000000     -0.000000      0.005048
      8.01543      5.45818      7.85300         0.000000     -0.000000      0.005048
      2.69472      2.69472      5.24675         0.000000     -0.000000      0.005048
      7.94669      2.83220      5.24675         0.000000     -0.000000      0.005048
      2.83220      7.94669      5.24675         0.000000     -0.000000      0.005048
      8.08417      8.08417      5.24675         0.000000     -0.000000      0.005048
      0.06874      2.62598      2.64050         0.000000     -0.000000      0.005048
      5.32070      2.76346      2.64050         0.000000     -0.000000      0.005048
      0.20622      7.87795      2.64050         0.000000     -0.000000      0.005048
      5.45818      8.01543      2.64050         0.000000     -0.000000      0.005048
 -----------------------------------------------------------------------------------
    total drift:                               -0.000000     -0.000000     -0.001510


--------------------------------------------------------------------------------------------------------



  FREE ENERGIE OF THE ION-ELECTRON SYSTEM (eV)
  ---------------------------------------------------
  free  energy   TOTEN  =      -327.83119435 eV

  energy  without entropy=     -327.83119435  energy(sigma->0) =     -327.83119435
 


--------------------------------------------------------------------------------------------------------


    POTLOK:  cpu time    0.1523: real time    0.1530


--------------------------------------------------------------------------------------------------------


 writing wavefunctions
     LOOP+:  cpu time 1634.8588: real time 1646.9307
    4ORBIT:  cpu time    0.0000: real time    0.0000
 


 total charge     
 
# of ion       s       p       d       tot
------------------------------------------
    1        1.314   2.409   0.000   3.723
    2        1.314   2.409   0.000   3.723
    3        1.314   2.409   0.000   3.723
    4        1.314   2.409   0.000   3.723
    5        1.314   2.409   0.000   3.723
    6        1.314   2.409   0.000   3.723
    7        1.314   2.409   0.000   3.723
    8        1.314   2.409   0.000   3.723
    9        1.314   2.410   0.000   3.723
   10        1.314   2.410   0.000   3.723
   11        1.314   2.410   0.000   3.723
   12        1.314   2.410   0.000   3.723
   13        1.314   2.410   0.000   3.723
   14        1.314   2.410   0.000   3.723
   15        1.314   2.410   0.000   3.723
   16        1.314   2.410   0.000   3.723
   17        1.314   2.409   0.000   3.723
   18        1.314   2.409   0.000   3.723
   19        1.314   2.409   0.000   3.723
   20        1.314   2.409   0.000   3.723
   21        1.314   2.409   0.000   3.723
   22        1.314   2.409   0.000   3.723
   23        1.314   2.409   0.000   3.723
   24        1.314   2.409   0.000   3.723
   25        1.314   2.410   0.000   3.723
   26        1.314   2.410   0.000   3.723
   27        1.314   2.410   0.000   3.723
   28        1.314   2.410   0.000   3.723
   29        1.314   2.410   0.000   3.723
   30        1.314   2.410   0.000   3.723
   31        1.314   2.410   0.000   3.723
   32        1.314   2.410   0.000   3.723
   33        0.259   6.202   8.916  15.378
   34        0.259   6.202   8.916  15.378
   35        0.259   6.202   8.916  15.378
   36        0.259   6.202   8.916  15.378
   37        0.259   6.202   8.917  15.378
   38        0.259   6.202   8.917  15.378
   39        0.259   6.202   8.917  15.378
   40        0.259   6.202   8.917  15.378
   41        0.259   6.202   8.916  15.378
   42        0.259   6.202   8.916  15.378
   43        0.259   6.202   8.916  15.378
   44        0.259   6.202   8.916  15.378
   45        0.259   6.202   8.917  15.378
   46        0.259   6.202   8.917  15.378
   47        0.259   6.202   8.917  15.378
   48        0.259   6.202   8.917  15.378
   49        0.350   6.350   5.820  12.520
   50        0.350   6.350   5.820  12.520
   51        0.350   6.350   5.820  12.520
   52        0.350   6.350   5.820  12.520
   53        0.350   6.350   5.821  12.520
   54        0.350   6.350   5.821  12.520
   55        0.350   6.350   5.821  12.520
   56        0.350   6.350   5.821  12.520
   57        0.350   6.350   5.820  12.520
   58        0.350   6.350   5.820  12.520
   59        0.350   6.350   5.820  12.520
   60        0.350   6.350   5.820  12.520
   61        0.350   6.350   5.821  12.520
   62        0.350   6.350   5.821  12.520
   63        0.350   6.350   5.821  12.520
   64        0.350   6.350   5.821  12.520
--------------------------------------------------
tot         51.785 277.940 235.792 565.517
 


 magnetization (x)
 
# of ion       s       p       d       tot
------------------------------------------
    1       -0.001  -0.013   0.000  -0.013
    2       -0.001  -0.013   0.000  -0.013
    3       -0.001  -0.013   0.000  -0.013
    4       -0.001  -0.013   0.000  -0.013
    5       -0.001  -0.013   0.000  -0.013
    6       -0.001  -0.013   0.000  -0.013
    7       -0.001  -0.013   0.000  -0.013
    8       -0.001  -0.013   0.000  -0.013
    9        0.001   0.013   0.000   0.013
   10        0.001   0.013   0.000   0.013
   11        0.001   0.013   0.000   0.013
   12        0.001   0.013   0.000   0.013
   13        0.001   0.013   0.000   0.013
   14        0.001   0.013   0.000   0.013
   15        0.001   0.013   0.000   0.013
   16        0.001   0.013   0.000   0.013
   17       -0.001  -0.013   0.000  -0.013
   18       -0.001  -0.013   0.000  -0.013
   19       -0.001  -0.013   0.000  -0.013
   20       -0.001  -0.013   0.000  -0.013
   21       -0.001  -0.013   0.000  -0.013
   22       -0.001  -0.013   0.000  -0.013
   23       -0.001  -0.013   0.000  -0.013
   24       -0.001  -0.013   0.000  -0.013
   25        0.001   0.013   0.000   0.013
   26        0.001   0.013   0.000   0.013
   27        0.001   0.013   0.000   0.013
   28        0.001   0.013   0.000   0.013
   29        0.001   0.013   0.000   0.013
   30        0.001   0.013   0.000   0.013
   31        0.001   0.013   0.000   0.013
   32        0.001   0.013   0.000   0.013
   33        0.000   0.000   0.000   0.001
   34        0.000   0.000   0.000   0.001
   35        0.000   0.000   0.000   0.001
   36        0.000   0.000   0.000   0.001
   37       -0.000  -0.000  -0.000  -0.001
   38       -0.000  -0.000  -0.000  -0.001
   39       -0.000  -0.000  -0.000  -0.001
   40       -0.000  -0.000  -0.000  -0.001
   41        0.000   0.000   0.000   0.001
   42        0.000   0.000   0.000   0.001
   43        0.000   0.000   0.000   0.001
   44        0.000   0.000   0.000   0.001
   45       -0.000  -0.000  -0.000  -0.001
   46       -0.000  -0.000  -0.000  -0.001
   47       -0.000  -0.000  -0.000  -0.001
   48       -0.000  -0.000  -0.000  -0.001
   49        0.020   0.054   3.670   3.743
   50        0.020   0.054   3.670   3.743
   51        0.020   0.054   3.670   3.743
   52        0.020   0.054   3.670   3.743
   53       -0.020  -0.054  -3.670  -3.743
   54       -0.020  -0.054  -3.670  -3.743
   55       -0.020  -0.054  -3.670  -3.743
   56       -0.020  -0.054  -3.670  -3.743
   57        0.020   0.054   3.670   3.743
   58        0.020   0.054   3.670   3.743
   59        0.020   0.054   3.670   3.743
   60        0.020   0.054   3.670   3.743
   61       -0.020  -0.054  -3.670  -3.743
   62       -0.020  -0.054  -3.670  -3.743
   63       -0.020  -0.054  -3.670  -3.743
   64       -0.020  -0.054  -3.670  -3.743
--------------------------------------------------
tot         -0.001   0.001  -0.001  -0.001
 
 BZINTS: Fermi energy:  4.940143;688.000000 electrons
         Band energy:***********;  BLOECHL correction:  0.000000

 total amount of memory used by VASP MPI-rank0   300225. kBytes
=======================================================================

   base      :      30000. kBytes
   nonl-proj :     174956. kBytes
   fftplans  :       4588. kBytes
   grid      :      69719. kBytes
   one-center:       1990. kBytes
   wavefun   :      18972. kBytes
 
  
  
 General timing and accounting informations for this job:
 ========================================================
  
                  Total CPU time used (sec):     1685.579
                            User time (sec):     1675.611
                          System time (sec):        9.968
                         Elapsed time (sec):     1699.114
  
                   Maximum memory used (kb):      677864.
                   Average memory used (kb):           0.
  
                          Minor page faults:       172630
                          Major page faults:         5837
                 Voluntary context switches:         7027
