       N       E                     dE             d eps       ncg     rms          rms(c)
DAV:   1    -0.327408539769E+03   -0.32741E+03   -0.29087E-09  1024   0.147E-04    0.118E+00
DAV:   2    -0.327416017092E+03   -0.74773E-02   -0.18247E-01  2560   0.106E+00    0.144E+00
DAV:   3    -0.327407617331E+03    0.83998E-02   -0.11075E-01  2560   0.945E-01    0.553E-01
DAV:   4    -0.327407512699E+03    0.10463E-03   -0.37404E-03  2048   0.150E-01    0.224E-01
DAV:   5    -0.327407742821E+03   -0.23012E-03   -0.98561E-04  2560   0.526E-02    0.799E-02
DAV:   6    -0.327407810244E+03   -0.67423E-04   -0.27741E-04  2560   0.312E-02    0.365E-02
DAV:   7    -0.327407829979E+03   -0.19734E-04   -0.42465E-05  2048   0.131E-02    0.169E-02
DAV:   8    -0.327407832353E+03   -0.23741E-05   -0.97083E-06  2560   0.653E-03    0.863E-03
DAV:   9    -0.327407833938E+03   -0.15853E-05   -0.54837E-06  2560   0.465E-03    0.637E-03
DAV:  10    -0.327407834321E+03   -0.38301E-06   -0.15784E-06  2560   0.206E-03    0.313E-03
DAV:  11    -0.327407834457E+03   -0.13580E-06   -0.52555E-07  2048   0.111E-03    0.105E-03
DAV:  12    -0.327407834454E+03    0.25757E-08   -0.10385E-07  2560   0.418E-04    0.513E-04
DAV:  13    -0.327407834488E+03   -0.34022E-07   -0.27069E-08  1792   0.224E-04    0.276E-04
DAV:  14    -0.327407834506E+03   -0.17782E-07   -0.48433E-09  1024   0.109E-04    0.146E-04
DAV:  15    -0.327407834507E+03   -0.11787E-08   -0.15671E-09  1024   0.531E-05
   1 F= -.32740783E+03 E0= -.32740783E+03  d E =-.507119E-20  mag=    -0.0000
