 vasp.5.4.4.18Apr17-6-g9f103f2a35 (build Oct 30 2023 17:30:16) complex          
  
 executed on             LinuxIFC date 2024.06.29  00:32:09
 running on  256 total cores
 distrk:  each k-point on  256 cores,    1 groups
 distr:  one band on NCORES_PER_BAND=   1 cores,  256 groups


--------------------------------------------------------------------------------------------------------


 INCAR:
 POTCAR:    PAW_PBE S 06Sep2000                   
 POTCAR:     PAW_PBE Cu_pv 06Sep2000              
 POTCAR:     PAW_PBE Fe_pv 02Aug2007              

 ----------------------------------------------------------------------------- 
|                                                                             |
|           W    W    AA    RRRRR   N    N  II  N    N   GGGG   !!!           |
|           W    W   A  A   R    R  NN   N  II  NN   N  G    G  !!!           |
|           W    W  A    A  R    R  N N  N  II  N N  N  G       !!!           |
|           W WW W  AAAAAA  RRRRR   N  N N  II  N  N N  G  GGG   !            |
|           WW  WW  A    A  R   R   N   NN  II  N   NN  G    G                |
|           W    W  A    A  R    R  N    N  II  N    N   GGGG   !!!           |
|                                                                             |
|      For optimal performance we recommend to set                            |
|        NCORE= 4 - approx SQRT( number of cores)                             |
|      NCORE specifies how many cores store one orbital (NPAR=cpu/NCORE).     |
|      This setting can  greatly improve the performance of VASP for DFT.     |
|      The default,   NCORE=1            might be grossly inefficient         |
|      on modern multi-core architectures or massively parallel machines.     |
|      Do your own testing !!!!                                               |
|      Unfortunately you need to use the default for GW and RPA calculations. |
|      (for HF NCORE is supported but not extensively tested yet)             |
|                                                                             |
 ----------------------------------------------------------------------------- 

 POTCAR:    PAW_PBE S 06Sep2000                   
   SHA256 =  0fc7481fb0695f01bdc6462160264c5c84044ae9ec85a907d398b887a2bc3132 S/
   COPYR  = (c) Copyright 06Sep2000 Georg Kresse                                
   COPYR  = This file is part of the software VASP. Any use, copying, and all ot
   COPYR  = If you do not have a valid VASP license, you may not use, copy or di
   VRHFIN =S : s2p4                                                             
   LEXCH  = PE                                                                  
   EATOM  =   276.8230 eV,   20.3459 Ry                                         
                                                                                
   TITEL  = PAW_PBE S 06Sep2000                                                 
   LULTRA =        F    use ultrasoft PP ?                                      
   IUNSCR =        1    unscreen: 0-lin 1-nonlin 2-no                           
   RPACOR =    1.500    partial core radius                                     
   POMASS =   32.066; ZVAL   =    6.000    mass and valenz                      
   RCORE  =    1.900    outmost cutoff radius                                   
   RWIGS  =    2.200; RWIGS  =    1.164    wigner-seitz radius (au A)           
   ENMAX  =  258.689; ENMIN  =  194.016 eV                                      
   ICORE  =        2    local potential                                         
   LCOR   =        T    correct aug charges                                     
   LPAW   =        T    paw PP                                                  
   EAUG   =  335.092                                                            
   DEXC   =    0.000                                                            
   RMAX   =    1.942    core radius for proj-oper                               
   RAUG   =    1.300    factor for augmentation sphere                          
   RDEP   =    1.954    radius for radial grids                                 
   RDEPT  =    1.744    core radius for aug-charge                              
                                                                                
   Atomic configuration                                                         
    6 entries                                                                   
     n  l   j            E        occ.                                          
     1  0  0.50     -2405.8406   2.0000                                         
     2  0  0.50      -211.7007   2.0000                                         
     2  1  1.50      -156.4958   6.0000                                         
     3  0  0.50       -17.2562   2.0000                                         
     3  1  0.50        -7.0085   4.0000                                         
     3  2  1.50        -6.8029   0.0000                                         
   Description                                                                  
     l       E           TYP  RCUT    TYP  RCUT                                 
     0    -17.2561641     23  1.900                                             
     0    -15.8743224     23  1.900                                             
     1     -7.0085400     23  1.900                                             
     1     -2.7779785     23  1.900                                             
     2     -6.8029130     23  1.900                                             
  local pseudopotential read in
  partial core-charges read in
  partial kinetic energy density read in
  atomic valenz-charges read in
  non local Contribution for L=           0  read in
    real space projection operators read in
  non local Contribution for L=           0  read in
    real space projection operators read in
  non local Contribution for L=           1  read in
    real space projection operators read in
  non local Contribution for L=           1  read in
    real space projection operators read in
    PAW grid and wavefunctions read in
 
   number of l-projection  operators is LMAX  =           4
   number of lm-projection operators is LMMAX =           8
 
 POTCAR:     PAW_PBE Cu_pv 06Sep2000              
   SHA256 =  cb7b504e2ea725fe1f25c85a9ac77d4012ce94cd394135b722c4e25ec297f1cb Cu
   COPYR  = (c) Copyright 06Sep2000 Georg Kresse                                
   COPYR  = This file is part of the software VASP. Any use, copying, and all ot
   COPYR  = If you do not have a valid VASP license, you may not use, copy or di
   VRHFIN =Cu: d10 p1                                                           
   LEXCH  = PE                                                                  
   EATOM  =  4120.1201 eV,  302.8203 Ry                                         
                                                                                
   TITEL  = PAW_PBE Cu_pv 06Sep2000                                             
   LULTRA =        F    use ultrasoft PP ?                                      
   IUNSCR =        1    unscreen: 0-lin 1-nonlin 2-no                           
   RPACOR =    1.500    partial core radius                                     
   POMASS =   63.546; ZVAL   =   17.000    mass and valenz                      
   RCORE  =    2.000    outmost cutoff radius                                   
   RWIGS  =    2.000; RWIGS  =    1.058    wigner-seitz radius (au A)           
   ENMAX  =  368.648; ENMIN  =  276.486 eV                                      
   RCLOC  =    1.304    cutoff for local pot                                    
   LCOR   =        T    correct aug charges                                     
   LPAW   =        T    paw PP                                                  
   EAUG   =  758.233                                                            
   DEXC   =    0.000                                                            
   RMAX   =    2.046    core radius for proj-oper                               
   RAUG   =    1.300    factor for augmentation sphere                          
   RDEP   =    2.025    radius for radial grids                                 
   RDEPT  =    1.558    core radius for aug-charge                              
                                                                                
   Atomic configuration                                                         
    8 entries                                                                   
     n  l   j            E        occ.                                          
     1  0  0.50     -8850.2467   2.0000                                         
     2  0  0.50     -1062.3498   2.0000                                         
     2  1  1.50      -916.8226   6.0000                                         
     3  0  0.50      -114.6929   2.0000                                         
     3  1  1.50       -72.1325   6.0000                                         
     3  2  2.50        -5.0394  10.0000                                         
     4  0  0.50        -4.6097   1.0000                                         
     4  3  2.50        -1.3606   0.0000                                         
   Description                                                                  
     l       E           TYP  RCUT    TYP  RCUT                                 
     1    -72.1324777     23  1.700                                             
     1     -1.3605826     23  1.700                                             
     2     -5.0393776     23  2.000                                             
     2     -6.3999602     23  2.000                                             
     0     -4.6097062     23  1.800                                             
     0     14.1620818     23  1.800                                             
  local pseudopotential read in
  partial core-charges read in
  partial kinetic energy density read in
  atomic valenz-charges read in
  non local Contribution for L=           1  read in
    real space projection operators read in
  non local Contribution for L=           1  read in
    real space projection operators read in
  non local Contribution for L=           2  read in
    real space projection operators read in
  non local Contribution for L=           2  read in
    real space projection operators read in
  non local Contribution for L=           0  read in
    real space projection operators read in
  non local Contribution for L=           0  read in
    real space projection operators read in
    PAW grid and wavefunctions read in
 
   number of l-projection  operators is LMAX  =           6
   number of lm-projection operators is LMMAX =          18
 
 POTCAR:     PAW_PBE Fe_pv 02Aug2007              
   SHA256 =  5d22e414b1f82158bf2c7ecb8b97b28fd0923e48cadc1c3bf74d524558f5dd32 Fe
   COPYR  = (c) Copyright 02Aug2007 Georg Kresse                                
   COPYR  = This file is part of the software VASP. Any use, copying, and all ot
   COPYR  = If you do not have a valid VASP license, you may not use, copy or di
   VRHFIN =Fe:  3pd7s1                                                          
   LEXCH  = PE                                                                  
   EATOM  =  2457.4239 eV,  180.6156 Ry                                         
                                                                                
   TITEL  = PAW_PBE Fe_pv 02Aug2007                                             
   LULTRA =        F    use ultrasoft PP ?                                      
   IUNSCR =        1    unscreen: 0-lin 1-nonlin 2-no                           
   RPACOR =    1.750    partial core radius                                     
   POMASS =   55.847; ZVAL   =   14.000    mass and valenz                      
   RCORE  =    2.200    outmost cutoff radius                                   
   RWIGS  =    2.200; RWIGS  =    1.164    wigner-seitz radius (au A)           
   ENMAX  =  293.238; ENMIN  =  219.928 eV                                      
   ICORE  =        3    local potential                                         
   LCOR   =        T    correct aug charges                                     
   LPAW   =        T    paw PP                                                  
   EAUG   =  578.342                                                            
   DEXC   =    0.000                                                            
   RMAX   =    2.249    core radius for proj-oper                               
   RAUG   =    1.300    factor for augmentation sphere                          
   RDEP   =    2.296    radius for radial grids                                 
   RDEPT  =    1.766    core radius for aug-charge                              
                                                                                
   Atomic configuration                                                         
    8 entries                                                                   
     n  l   j            E        occ.                                          
     1  0  0.50     -6993.8440   2.0000                                         
     2  0  0.50      -814.6047   2.0000                                         
     2  1  1.50      -693.3689   6.0000                                         
     3  0  0.50       -89.4732   2.0000                                         
     3  1  1.50       -55.6373   6.0000                                         
     3  2  2.50        -3.8151   7.0000                                         
     4  0  0.50        -4.2551   1.0000                                         
     4  3  2.50        -1.3606   0.0000                                         
   Description                                                                  
     l       E           TYP  RCUT    TYP  RCUT                                 
     1    -55.6372668     23  2.000                                             
     1     -5.4423304     23  2.000                                             
     2     -3.8151096     23  2.200                                             
     2     -5.1756922     23  2.200                                             
     0     -4.2550951     23  2.200                                             
     0     27.2116520     23  2.200                                             
     3     -1.3605826     23  2.200                                             
  local pseudopotential read in
  partial core-charges read in
  partial kinetic energy density read in
  atomic valenz-charges read in
  non local Contribution for L=           1  read in
    real space projection operators read in
  non local Contribution for L=           1  read in
    real space projection operators read in
  non local Contribution for L=           2  read in
    real space projection operators read in
  non local Contribution for L=           2  read in
    real space projection operators read in
  non local Contribution for L=           0  read in
    real space projection operators read in
  non local Contribution for L=           0  read in
    real space projection operators read in
    PAW grid and wavefunctions read in
 
   number of l-projection  operators is LMAX  =           6
   number of lm-projection operators is LMMAX =          18
 

 ----------------------------------------------------------------------------- 
|                                                                             |
|  ADVICE TO THIS USER RUNNING 'VASP/VAMP'   (HEAR YOUR MASTER'S VOICE ...):  |
|                                                                             |
|      You have a (more or less) 'large supercell' and for larger cells       |
|      it might be more efficient to use real space projection opertators     |
|      So try LREAL= Auto  in the INCAR   file.                               |
|      Mind:          For very  accurate calculation you might also keep the  |
|      reciprocal projection scheme          (i.e. LREAL=.FALSE.)             |
|                                                                             |
 ----------------------------------------------------------------------------- 


 ----------------------------------------------------------------------------- 
|                                                                             |
|  ADVICE TO THIS USER RUNNING 'VASP/VAMP'   (HEAR YOUR MASTER'S VOICE ...):  |
|                                                                             |
|      You enforced a specific xc-type in the INCAR file,                     |
|      a different type was found on the POTCAR file                          |
|          I HOPE YOU KNOW, WHAT YOU ARE  DOING                               |
|                                                                             |
 ----------------------------------------------------------------------------- 

  PAW_PBE S 06Sep2000                   :
 energy of atom  1       EATOM= -276.8230
 kinetic energy error for atom=    0.0007 (will be added to EATOM!!)
   PAW_PBE Cu_pv 06Sep2000              :
 energy of atom  2       EATOM=-4120.1201
 kinetic energy error for atom=    0.0094 (will be added to EATOM!!)
   PAW_PBE Fe_pv 02Aug2007              :
 energy of atom  3       EATOM=-2457.4239
 kinetic energy error for atom=    0.0025 (will be added to EATOM!!)
 
 
 POSCAR: Fe16 Cu16 S32                           
  positions in direct lattice
  No initial velocities read in
 exchange correlation table for  LEXCH =       14
   RHO(1)=    0.500       N(1)  =     2000
   RHO(2)=  100.500       N(2)  =     4000
 


--------------------------------------------------------------------------------------------------------


 ion  position               nearest neighbor table
   1  0.126  0.125  0.122-  37 2.26  41 2.27  61 2.27  49 2.28
   2  0.626  0.125  0.122-  38 2.26  42 2.27  62 2.27  50 2.28
   3  0.126  0.625  0.122-  39 2.26  43 2.27  63 2.27  51 2.28
   4  0.626  0.625  0.122-  40 2.26  44 2.27  64 2.27  52 2.28
   5  0.374  0.375  0.122-  39 2.26  41 2.27  62 2.27  52 2.28
   6  0.874  0.375  0.122-  40 2.26  42 2.27  61 2.27  51 2.28
   7  0.374  0.875  0.122-  37 2.26  43 2.27  64 2.27  50 2.28
   8  0.874  0.875  0.122-  38 2.26  44 2.27  63 2.27  49 2.28
   9  0.125  0.374  0.872-  41 2.26  45 2.27  51 2.27  55 2.28
  10  0.625  0.374  0.872-  42 2.26  46 2.27  52 2.27  56 2.28
  11  0.125  0.874  0.872-  43 2.26  47 2.27  49 2.27  53 2.28
  12  0.625  0.874  0.872-  44 2.26  48 2.27  50 2.27  54 2.28
  13  0.375  0.126  0.872-  41 2.26  46 2.27  50 2.27  53 2.28
  14  0.875  0.126  0.872-  42 2.26  45 2.27  49 2.27  54 2.28
  15  0.375  0.626  0.872-  43 2.26  48 2.27  52 2.27  55 2.28
  16  0.875  0.626  0.872-  44 2.26  47 2.27  51 2.27  56 2.28
  17  0.124  0.125  0.622-  45 2.26  33 2.27  53 2.27  57 2.28
  18  0.624  0.125  0.622-  46 2.26  34 2.27  54 2.27  58 2.28
  19  0.124  0.625  0.622-  47 2.26  35 2.27  55 2.27  59 2.28
  20  0.624  0.625  0.622-  48 2.26  36 2.27  56 2.27  60 2.28
  21  0.376  0.375  0.622-  46 2.26  36 2.27  55 2.27  57 2.28
  22  0.876  0.375  0.622-  45 2.26  35 2.27  56 2.27  58 2.28
  23  0.376  0.875  0.622-  48 2.26  34 2.27  53 2.27  59 2.28
  24  0.876  0.875  0.622-  47 2.26  33 2.27  54 2.27  60 2.28
  25  0.375  0.124  0.372-  34 2.26  37 2.27  57 2.27  62 2.28
  26  0.875  0.124  0.372-  33 2.26  38 2.27  58 2.27  61 2.28
  27  0.375  0.624  0.372-  36 2.26  39 2.27  59 2.27  64 2.28
  28  0.875  0.624  0.372-  35 2.26  40 2.27  60 2.27  63 2.28
  29  0.125  0.376  0.372-  35 2.26  39 2.27  57 2.27  61 2.28
  30  0.625  0.376  0.372-  36 2.26  40 2.27  58 2.27  62 2.28
  31  0.125  0.876  0.372-  33 2.26  37 2.27  59 2.27  63 2.28
  32  0.625  0.876  0.372-  34 2.26  38 2.27  60 2.27  64 2.28
  33  0.000  0.000  0.503-  26 2.26  31 2.26  17 2.27  24 2.27
  34  0.500  0.000  0.503-  25 2.26  32 2.26  18 2.27  23 2.27
  35  0.000  0.500  0.503-  28 2.26  29 2.26  19 2.27  22 2.27
  36  0.500  0.500  0.503-  27 2.26  30 2.26  20 2.27  21 2.27
  37  0.250  0.000  0.253-   1 2.26   7 2.26  25 2.27  31 2.27
  38  0.750  0.000  0.253-   2 2.26   8 2.26  26 2.27  32 2.27
  39  0.250  0.500  0.253-   3 2.26   5 2.26  27 2.27  29 2.27
  40  0.750  0.500  0.253-   4 2.26   6 2.26  28 2.27  30 2.27
  41  0.250  0.250  0.003-   9 2.26  13 2.26   1 2.27   5 2.27
  42  0.750  0.250  0.003-  10 2.26  14 2.26   2 2.27   6 2.27
  43  0.250  0.750  0.003-  11 2.26  15 2.26   3 2.27   7 2.27
  44  0.750  0.750  0.003-  12 2.26  16 2.26   4 2.27   8 2.27
  45  0.000  0.250  0.753-  17 2.26  22 2.26   9 2.27  14 2.27
  46  0.500  0.250  0.753-  18 2.26  21 2.26  10 2.27  13 2.27
  47  0.000  0.750  0.753-  19 2.26  24 2.26  11 2.27  16 2.27
  48  0.500  0.750  0.753-  20 2.26  23 2.26  12 2.27  15 2.27
  49  0.000  0.000  0.004-  11 2.27  14 2.27   1 2.28   8 2.28
  50  0.500  0.000  0.004-  12 2.27  13 2.27   2 2.28   7 2.28
  51  0.000  0.500  0.004-   9 2.27  16 2.27   3 2.28   6 2.28
  52  0.500  0.500  0.004-  10 2.27  15 2.27   4 2.28   5 2.28
  53  0.250  0.000  0.754-  17 2.27  23 2.27  11 2.28  13 2.28
  54  0.750  0.000  0.754-  18 2.27  24 2.27  12 2.28  14 2.28
  55  0.250  0.500  0.754-  19 2.27  21 2.27   9 2.28  15 2.28
  56  0.750  0.500  0.754-  20 2.27  22 2.27  10 2.28  16 2.28
  57  0.250  0.250  0.504-  25 2.27  29 2.27  17 2.28  21 2.28
  58  0.750  0.250  0.504-  26 2.27  30 2.27  18 2.28  22 2.28
  59  0.250  0.750  0.504-  27 2.27  31 2.27  19 2.28  23 2.28
  60  0.750  0.750  0.504-  28 2.27  32 2.27  20 2.28  24 2.28
  61  0.000  0.250  0.254-   1 2.27   6 2.27  26 2.28  29 2.28
  62  0.500  0.250  0.254-   2 2.27   5 2.27  25 2.28  30 2.28
  63  0.000  0.750  0.254-   3 2.27   8 2.27  28 2.28  31 2.28
  64  0.500  0.750  0.254-   4 2.27   7 2.27  27 2.28  32 2.28
 
  LATTYP: Found a base centered orthorhombic cell.
 ALAT       =    14.3847863868
 B/A-ratio  =     1.0648766465
 C/A-ratio  =     0.7249646758
  
  Lattice vectors:
  
 A1 = (  10.5015290000,   0.3299490000,   0.0000000000)
 A2 = (  -0.3299490000, -10.5015290000,   0.0000000000)
 A3 = (   0.0000000000,   0.0000000000, -10.4284620000)


Analysis of symmetry for initial positions (statically):
=====================================================================
 Subroutine PRICEL returns following result:
 
  LATTYP: Found a face centered orthorhombic cell.
 ALAT       =     7.1923931934
 B/A-ratio  =     1.0648766465
 C/A-ratio  =     1.4499293517
  
  Lattice vectors:
  
 A1 = (  -2.7078695000,  -2.7078695000,   5.2142310000)
 A2 = (  -2.5428950000,   2.5428950000,   5.2142310000)
 A3 = (  -5.2507645000,  -0.1649745000,   0.0000000000)
 
   8 primitive cells build up your supercell.
 

 Routine SETGRP: Setting up the symmetry group for a 
 base centered orthorhombic supercell.


 Subroutine GETGRP returns: Found  4 space group operations
 (whereof  2 operations were pure point group operations)
 out of a pool of  8 trial point group operations.


The static configuration has the point symmetry C_2 .
 The point group associated with its full space group is C_2v.


Analysis of symmetry for dynamics (positions and initial velocities):
=====================================================================
 Subroutine PRICEL returns following result:
 
  LATTYP: Found a face centered orthorhombic cell.
 ALAT       =     7.1923931934
 B/A-ratio  =     1.0648766465
 C/A-ratio  =     1.4499293517
  
  Lattice vectors:
  
 A1 = (  -2.7078695000,  -2.7078695000,   5.2142310000)
 A2 = (  -2.5428950000,   2.5428950000,   5.2142310000)
 A3 = (  -5.2507645000,  -0.1649745000,   0.0000000000)
 
   8 primitive cells build up your supercell.
 

 Routine SETGRP: Setting up the symmetry group for a 
 base centered orthorhombic supercell.


 Subroutine GETGRP returns: Found  4 space group operations
 (whereof  2 operations were pure point group operations)
 out of a pool of  8 trial point group operations.


The dynamic configuration has the point symmetry C_2 .
 The point group associated with its full space group is C_2v.


Analysis of structural, dynamic, and magnetic symmetry:
=====================================================================
 Subroutine PRICEL returns following result:
 
  LATTYP: Found a face centered orthorhombic cell.
 ALAT       =     7.1923931934
 B/A-ratio  =     1.0648766465
 C/A-ratio  =     1.4499293517
  
  Lattice vectors:
  
 A1 = (  -2.7078695000,  -2.7078695000,   5.2142310000)
 A2 = (  -2.5428950000,   2.5428950000,   5.2142310000)
 A3 = (  -5.2507645000,  -0.1649745000,   0.0000000000)
 
   8 primitive cells build up your supercell.
 

 Routine SETGRP: Setting up the symmetry group for a 
 base centered orthorhombic supercell.


 Subroutine GETGRP returns: Found  4 space group operations
 (whereof  2 operations were pure point group operations)
 out of a pool of  8 trial point group operations.


The magnetic configuration has the point symmetry C_2 .
 The point group associated with its full space group is C_2v.


 Subroutine INISYM returns: Found  4 space group operations
 (whereof  2 operations are pure point group operations),
 and found     8 'primitive' translations

 
 
 KPOINTS: Automatic mesh                          

Automatic generation of k-mesh.
Space group operators:
 irot       det(A)        alpha          n_x          n_y          n_z        tau_x        tau_y        tau_z
    1     1.000000     0.000001     1.000000     0.000000     0.000000     0.000000     0.000000     0.000000
    2     1.000000   179.999999     0.000000     0.000000     1.000000     0.000000     0.000000     0.000000
    3    -1.000000   180.000000     0.707107     0.707107     0.000000    -0.750000     0.000000     0.750000
    4    -1.000000   180.000000     0.707107    -0.707107     0.000000    -0.750000     0.000000     0.750000
 
 Subroutine IBZKPT returns following result:
 ===========================================
 
 Found      6 irreducible k-points:
 
 Following reciprocal coordinates:
            Coordinates               Weight
  0.000000  0.000000  0.000000      1.000000
  0.500000  0.000000  0.000000      2.000000
  0.500000  0.500000  0.000000      1.000000
  0.000000  0.000000  0.500000      1.000000
  0.500000  0.000000  0.500000      2.000000
  0.500000  0.500000  0.500000      1.000000
 
 Following cartesian coordinates:
            Coordinates               Weight
  0.000000  0.000000  0.000000      1.000000
  0.047659 -0.001497  0.000000      2.000000
  0.046162  0.046162  0.000000      1.000000
  0.000000  0.000000  0.047946      1.000000
  0.047659 -0.001497  0.047946      2.000000
  0.046162  0.046162  0.047946      1.000000
 
 TETIRR: Found     12 inequivalent tetrahedra from       48
 
 Subroutine IBZKPT_HF returns following result:
 ==============================================
 
 Found      8 k-points in 1st BZ
 the following      8 k-points will be used (e.g. in the exchange kernel)
 Following reciprocal coordinates:   # in IRBZ
  0.000000  0.000000  0.000000    0.12500000   1 t-inv F
  0.500000  0.000000  0.000000    0.12500000   2 t-inv F
  0.500000  0.500000  0.000000    0.12500000   3 t-inv F
  0.000000  0.000000  0.500000    0.12500000   4 t-inv F
  0.500000  0.000000  0.500000    0.12500000   5 t-inv F
  0.500000  0.500000  0.500000    0.12500000   6 t-inv F
 -0.000000 -0.500000  0.000000    0.12500000   2 t-inv F spinflp
 -0.000000 -0.500000  0.500000    0.12500000   5 t-inv F spinflp


--------------------------------------------------------------------------------------------------------




 Dimension of arrays:
   k-points           NKPTS =      6   k-points in BZ     NKDIM =      6   number of bands    NBANDS=    512
   number of dos      NEDOS =    301   number of ions     NIONS =     64
   non local maximal  LDIM  =      6   non local SUM 2l+1 LMDIM =     18
   total plane-waves  NPLWV = 829440
   max r-space proj   IRMAX =      1   max aug-charges    IRDMAX=  22941
   dimension x,y,z NGX =    96 NGY =   96 NGZ =   90
   dimension x,y,z NGXF=   192 NGYF=  192 NGZF=  180
   support grid    NGXF=   192 NGYF=  192 NGZF=  180
   ions per type =              32  16  16
   NGX,Y,Z   is equivalent  to a cutoff of  15.19, 15.19, 14.35 a.u.
   NGXF,Y,Z  is equivalent  to a cutoff of  30.38, 30.38, 28.69 a.u.

 SYSTEM =  CuFeS2                                  
 POSCAR =  Fe16 Cu16 S32                           

 Startparameter for this run:
   NWRITE =      2    write-flag & timer
   PREC   = accura    normal or accurate (medium, high low for compatibility)
   ISTART =      1    job   : 0-new  1-cont  2-samecut
   ICHARG =      1    charge: 1-file 2-atom 10-const
   ISPIN  =      2    spin polarized calculation?
   LNONCOLLINEAR =      F non collinear calculations
   LSORBIT =      F    spin-orbit coupling
   INIWAV =      1    electr: 0-lowe 1-rand  2-diag
   LASPH  =      F    aspherical Exc in radial PAW
   METAGGA=      F    non-selfconsistent MetaGGA calc.

 Electronic Relaxation 1
   ENCUT  =  700.0 eV  51.45 Ry    7.17 a.u.  22.67 22.67 22.50*2*pi/ulx,y,z
   ENINI  =  700.0     initial cutoff
   ENAUG  =  758.2 eV  augmentation charge cutoff
   NELM   =    500;   NELMIN=  2; NELMDL=  0     # of ELM steps 
   EDIFF  = 0.1E-07   stopping-criterion for ELM
   LREAL  =      F    real-space projection
   NLSPLINE    = F    spline interpolate recip. space projectors
   LCOMPAT=      F    compatible to vasp.4.4
   GGA_COMPAT  = T    GGA compatible to vasp.4.4-vasp.4.6
   LMAXPAW     = -100 max onsite density
   LMAXMIX     =    4 max onsite mixed and CHGCAR
   VOSKOWN=      0    Vosko Wilk Nusair interpolation
   ROPT   =    0.00000   0.00000   0.00000
 Ionic relaxation
   EDIFFG = -.1E-04   stopping-criterion for IOM
   NSW    =      0    number of steps for IOM
   NBLOCK =      1;   KBLOCK =      1    inner block; outer block 
   IBRION =     -1    ionic relax: 0-MD 1-quasi-New 2-CG
   NFREE  =      0    steps in history (QN), initial steepest desc. (CG)
   ISIF   =      2    stress and relaxation
   IWAVPR =     10    prediction:  0-non 1-charg 2-wave 3-comb
   ISYM   =      2    0-nonsym 1-usesym 2-fastsym
   LCORR  =      T    Harris-Foulkes like correction to forces

   POTIM  = 0.5000    time-step for ionic-motion
   TEIN   =    0.0    initial temperature
   TEBEG  =    0.0;   TEEND  =   0.0 temperature during run
   SMASS  =  -3.00    Nose mass-parameter (am)
   estimated Nose-frequenzy (Omega)   =  0.10E-29 period in steps =****** mass=  -0.252E-26a.u.
   SCALEE = 1.0000    scale energy and forces
   NPACO  =    256;   APACO  = 16.0  distance and # of slots for P.C.
   PSTRESS=    0.0 pullay stress

  Mass of Ions in am
   POMASS =  32.07 63.55 55.85
  Ionic Valenz
   ZVAL   =   6.00 17.00 14.00
  Atomic Wigner-Seitz radii
   RWIGS  =  -1.00 -1.00 -1.00
  virtual crystal weights 
   VCA    =   1.00  1.00  1.00
   NELECT =     688.0000    total number of electrons
   NUPDOWN=      -1.0000    fix difference up-down

 DOS related values:
   EMIN   =  10.00;   EMAX   =-10.00  energy-range for DOS
   EFERMI =   0.00
   ISMEAR =    -5;   SIGMA  =   0.03  broadening in eV -4-tet -1-fermi 0-gaus

 Electronic relaxation 2 (details)
   IALGO  =     38    algorithm
   LDIAG  =      T    sub-space diagonalisation (order eigenvalues)
   LSUBROT=      F    optimize rotation matrix (better conditioning)
   TURBO    =      0    0=normal 1=particle mesh
   IRESTART =      0    0=no restart 2=restart with 2 vectors
   NREBOOT  =      0    no. of reboots
   NMIN     =      0    reboot dimension
   EREF     =   0.00    reference energy to select bands
   IMIX   =      4    mixing-type and parameters
     AMIX     =   0.40;   BMIX     =  1.00
     AMIX_MAG =   1.60;   BMIX_MAG =  1.00
     AMIN     =   0.10
     WC   =   100.;   INIMIX=   1;  MIXPRE=   1;  MAXMIX= -45

 Intra band minimization:
   WEIMIN = 0.0000     energy-eigenvalue tresh-hold
   EBREAK =  0.49E-11  absolut break condition
   DEPER  =   0.30     relativ break condition  

   TIME   =   0.40     timestep for ELM

  volume/ion in A,a.u.               =      17.95       121.15
  Fermi-wavevector in a.u.,A,eV,Ry     =   1.379872  2.607580 25.906133  1.904047
  Thomas-Fermi vector in A             =   2.504802
 
 Write flags
   LWAVE        =      T    write WAVECAR
   LDOWNSAMPLE  =      F    k-point downsampling of WAVECAR
   LCHARG       =      T    write CHGCAR
   LVTOT        =      F    write LOCPOT, total local potential
   LVHAR        =      F    write LOCPOT, Hartree potential only
   LELF         =      F    write electronic localiz. function (ELF)
   LORBIT       =     11    0 simple, 1 ext, 2 COOP (PROOUT), +10 PAW based schemes


 Dipole corrections
   LMONO  =      F    monopole corrections only (constant potential shift)
   LDIPOL =      F    correct potential (dipole corrections)
   IDIPOL =      0    1-x, 2-y, 3-z, 4-all directions 
   EPSILON=  1.0000000 bulk dielectric constant

 LDA+U is selected, type is set to LDAUTYPE =  2
   angular momentum for each species LDAUL =     2    2    2
   U (eV)           for each species LDAUU =   0.0  0.1  4.7
   J (eV)           for each species LDAUJ =   0.0  0.0  0.0
 Exchange correlation treatment:
   GGA     =    PS    GGA type
   LEXCH   =    14    internal setting for exchange type
   VOSKOWN=      0    Vosko Wilk Nusair interpolation
   LHFCALC =     F    Hartree Fock is set to
   LHFONE  =     F    Hartree Fock one center treatment
   AEXX    =    0.0000 exact exchange contribution

 Linear response parameters
   LEPSILON=     F    determine dielectric tensor
   LRPA    =     F    only Hartree local field effects (RPA)
   LNABLA  =     F    use nabla operator in PAW spheres
   LVEL    =     F    velocity operator in full k-point grid
   LINTERFAST=   F  fast interpolation
   KINTER  =     0    interpolate to denser k-point grid
   CSHIFT  =0.1000    complex shift for real part using Kramers Kronig
   OMEGAMAX=  -1.0    maximum frequency
   DEG_THRESHOLD= 0.2000000E-02 threshold for treating states as degnerate
   RTIME   =   -0.100 relaxation time in fs
  (WPLASMAI=    0.000 imaginary part of plasma frequency in eV, 0.658/RTIME)
   DFIELD  = 0.0000000 0.0000000 0.0000000 field for delta impulse in time
 
 Orbital magnetization related:
   ORBITALMAG=     F  switch on orbital magnetization
   LCHIMAG   =     F  perturbation theory with respect to B field
   DQ        =  0.001000  dq finite difference perturbation B field
   LLRAUG    =     F  two centre corrections for induced B field

 PEAD related settings:
   LPEAD      =     T    switch on PEAD
   IPEAD      =     4    finite difference order for dpsi/dk
   LCALCPOL   =     T    calculate macroscopic polarization
   LCALCEPS   =     F    calculate dielectric tensor
   EFIELD_PEAD=    0.0000    0.0000    0.0000
   SKIP_EDOTP =     F
   LRPA       =     F
   SKIP_SCF   =     F


--------------------------------------------------------------------------------------------------------


 Static calculation
 charge density and potential will be updated during run
 spin polarized calculation
 Variant of blocked Davidson
 Davidson routine will perform the subspace rotation
 perform sub-space diagonalisation
    after iterative eigenvector-optimisation
 modified Broyden-mixing scheme, WC =      100.0
 initial mixing is a Kerker type mixing with AMIX =  0.4000 and BMIX =      1.0000
 Hartree-type preconditioning will be used
 using additional bands          168
 reciprocal scheme for non local part
 use partial core corrections
 calculate Harris-corrections to forces 
   (improved forces if not selfconsistent)
 use gradient corrections 
 use of overlap-Matrix (Vanderbilt PP)
 Fermi weights with tetrahedron method with Bloechl corrections


--------------------------------------------------------------------------------------------------------


  energy-cutoff  :      700.00
  volume of cell :     1148.94
      direct lattice vectors                 reciprocal lattice vectors
    10.501529000  0.329949000  0.000000000     0.095318323 -0.002994820  0.000000000
     0.329949000 10.501529000  0.000000000    -0.002994820  0.095318323  0.000000000
     0.000000000  0.000000000 10.428462000     0.000000000  0.000000000  0.095891417

  length of vectors
    10.506711078 10.506711078 10.428462000     0.095365359  0.095365359  0.095891417


 
 old parameters found on file WAVECAR:
  energy-cutoff  :      700.00
  volume of cell :     1148.94
      direct lattice vectors                 reciprocal lattice vectors
    10.501529000  0.329949000  0.000000000     0.095318323 -0.002994820  0.000000000
     0.329949000 10.501529000  0.000000000    -0.002994820  0.095318323  0.000000000
     0.000000000  0.000000000 10.428462000     0.000000000  0.000000000  0.095891417

  length of vectors

 
 k-points in units of 2pi/SCALE and weight: Automatic mesh                          
   0.00000000  0.00000000  0.00000000       0.125
   0.04765916 -0.00149741  0.00000000       0.250
   0.04616175  0.04616175  0.00000000       0.125
   0.00000000  0.00000000  0.04794571       0.125
   0.04765916 -0.00149741  0.04794571       0.250
   0.04616175  0.04616175  0.04794571       0.125
 
 k-points in reciprocal lattice and weights: Automatic mesh                          
   0.00000000  0.00000000  0.00000000       0.125
   0.50000000  0.00000000  0.00000000       0.250
   0.50000000  0.50000000  0.00000000       0.125
   0.00000000  0.00000000  0.50000000       0.125
   0.50000000  0.00000000  0.50000000       0.250
   0.50000000  0.50000000  0.50000000       0.125
 
 position of ions in fractional coordinates (direct lattice) 
   0.12612900  0.12536100  0.12150300
   0.62612900  0.12536100  0.12150300
   0.12612900  0.62536100  0.12150300
   0.62612900  0.62536100  0.12150300
   0.37387100  0.37463900  0.12150300
   0.87387100  0.37463900  0.12150300
   0.37387100  0.87463900  0.12150300
   0.87387100  0.87463900  0.12150300
   0.12463900  0.37387100  0.87150300
   0.62463900  0.37387100  0.87150300
   0.12463900  0.87387100  0.87150300
   0.62463900  0.87387100  0.87150300
   0.37536100  0.12612900  0.87150300
   0.87536100  0.12612900  0.87150300
   0.37536100  0.62612900  0.87150300
   0.87536100  0.62612900  0.87150300
   0.12387100  0.12463900  0.62150300
   0.62387100  0.12463900  0.62150300
   0.12387100  0.62463900  0.62150300
   0.62387100  0.62463900  0.62150300
   0.37612900  0.37536100  0.62150300
   0.87612900  0.37536100  0.62150300
   0.37612900  0.87536100  0.62150300
   0.87612900  0.87536100  0.62150300
   0.37463900  0.12387100  0.37150300
   0.87463900  0.12387100  0.37150300
   0.37463900  0.62387100  0.37150300
   0.87463900  0.62387100  0.37150300
   0.12536100  0.37612900  0.37150300
   0.62536100  0.37612900  0.37150300
   0.12536100  0.87612900  0.37150300
   0.62536100  0.87612900  0.37150300
   0.00000000  0.00000000  0.50304100
   0.50000000  0.00000000  0.50304100
   0.00000000  0.50000000  0.50304100
   0.50000000  0.50000000  0.50304100
   0.25000000  0.00000000  0.25304100
   0.75000000  0.00000000  0.25304100
   0.25000000  0.50000000  0.25304100
   0.75000000  0.50000000  0.25304100
   0.25000000  0.25000000  0.00304100
   0.75000000  0.25000000  0.00304100
   0.25000000  0.75000000  0.00304100
   0.75000000  0.75000000  0.00304100
   0.00000000  0.25000000  0.75304100
   0.50000000  0.25000000  0.75304100
   0.00000000  0.75000000  0.75304100
   0.50000000  0.75000000  0.75304100
   0.00000000  0.00000000  0.00395200
   0.50000000  0.00000000  0.00395200
   0.00000000  0.50000000  0.00395200
   0.50000000  0.50000000  0.00395200
   0.25000000  0.00000000  0.75395200
   0.75000000  0.00000000  0.75395200
   0.25000000  0.50000000  0.75395200
   0.75000000  0.50000000  0.75395200
   0.25000000  0.25000000  0.50395200
   0.75000000  0.25000000  0.50395200
   0.25000000  0.75000000  0.50395200
   0.75000000  0.75000000  0.50395200
   0.00000000  0.25000000  0.25395200
   0.50000000  0.25000000  0.25395200
   0.00000000  0.75000000  0.25395200
   0.50000000  0.75000000  0.25395200
 
 position of ions in cartesian coordinates  (Angst):
   1.36591009  1.35809831  1.26708942
   6.61667459  1.52307281  1.26708942
   1.53088459  6.60886281  1.26708942
   6.78164909  6.77383731  1.26708942
   4.04982891  4.05764069  1.26708942
   9.30059341  4.22261519  1.26708942
   4.21480341  9.30840519  1.26708942
   9.46556791  9.47337969  1.26708942
   1.43225844  3.96734166  9.08843592
   6.68302294  4.13231616  9.08843592
   1.59723294  9.21810616  9.08843592
   6.84799744  9.38308066  9.08843592
   3.98348056  1.44839734  9.08843592
   9.23424506  1.61337184  9.08843592
   4.14845506  6.69916184  9.08843592
   9.39921956  6.86413634  9.08843592
   1.34195941  1.34977119  6.48132042
   6.59272391  1.51474569  6.48132042
   1.50693391  6.60053569  6.48132042
   6.75769841  6.76551019  6.48132042
   4.07377959  4.06596781  6.48132042
   9.32454409  4.23094231  6.48132042
   4.23875409  9.31673231  6.48132042
   9.48951859  9.48170681  6.48132042
   3.97515344  1.42444666  3.87420492
   9.22591794  1.58942116  3.87420492
   4.14012794  6.67521116  3.87420492
   9.39089244  6.84018566  3.87420492
   1.44058556  3.99129234  3.87420492
   6.69135006  4.15626684  3.87420492
   1.60556006  9.24205684  3.87420492
   6.85632456  9.40703134  3.87420492
   0.00000000  0.00000000  5.24594395
   5.25076450  0.16497450  5.24594395
   0.16497450  5.25076450  5.24594395
   5.41573900  5.41573900  5.24594395
   2.62538225  0.08248725  2.63882845
   7.87614675  0.24746175  2.63882845
   2.79035675  5.33325175  2.63882845
   8.04112125  5.49822625  2.63882845
   2.70786950  2.70786950  0.03171295
   7.95863400  2.87284400  0.03171295
   2.87284400  7.95863400  0.03171295
   8.12360850  8.12360850  0.03171295
   0.08248725  2.62538225  7.85305945
   5.33325175  2.79035675  7.85305945
   0.24746175  7.87614675  7.85305945
   5.49822625  8.04112125  7.85305945
   0.00000000  0.00000000  0.04121328
   5.25076450  0.16497450  0.04121328
   0.16497450  5.25076450  0.04121328
   5.41573900  5.41573900  0.04121328
   2.62538225  0.08248725  7.86255978
   7.87614675  0.24746175  7.86255978
   2.79035675  5.33325175  7.86255978
   8.04112125  5.49822625  7.86255978
   2.70786950  2.70786950  5.25544428
   7.95863400  2.87284400  5.25544428
   2.87284400  7.95863400  5.25544428
   8.12360850  8.12360850  5.25544428
   0.08248725  2.62538225  2.64832878
   5.33325175  2.79035675  2.64832878
   0.24746175  7.87614675  2.64832878
   5.49822625  8.04112125  2.64832878
 


--------------------------------------------------------------------------------------------------------


 k-point  1 :   0.0000 0.0000 0.0000  plane waves:   48327
 k-point  2 :   0.5000 0.0000 0.0000  plane waves:   48350
 k-point  3 :   0.5000 0.5000 0.0000  plane waves:   48346
 k-point  4 :   0.0000 0.0000 0.5000  plane waves:   48316
 k-point  5 :   0.5000 0.0000 0.5000  plane waves:   48292
 k-point  6 :   0.5000 0.5000 0.5000  plane waves:   48220

 maximum and minimum number of plane-waves per node :     48350    48220

 maximum number of plane-waves:     48350
 maximum index in each direction: 
   IXMAX=   22   IYMAX=   22   IZMAX=   22
   IXMIN=  -23   IYMIN=  -23   IZMIN=  -22


 serial   3D FFT for wavefunctions
 parallel 3D FFT for charge:
    minimum data exchange during FFTs selected (reduces bandwidth)


 total amount of memory used by VASP MPI-rank0   300225. kBytes
=======================================================================

   base      :      30000. kBytes
   nonl-proj :     174956. kBytes
   fftplans  :       4588. kBytes
   grid      :      69719. kBytes
   one-center:       1990. kBytes
   wavefun   :      18972. kBytes
 
     INWAV:  cpu time   11.2615: real time   11.4046
 Broyden mixing: mesh for mixing (old mesh)
   NGX = 45   NGY = 45   NGZ = 45
  (NGX  =192   NGY  =192   NGZ  =180)
  gives a total of  91125 points

 initial charge density was supplied:
 number of electron     688.0000279 magnetization       0.0000000
 keeping initial charge density in first step


--------------------------------------------------------------------------------------------------------


 Maximum index for augmentation-charges          897 (set IRDMAX)


--------------------------------------------------------------------------------------------------------


 First call to EWALD:  gamma=   0.169
 Maximum number of real-space cells 3x 3x 3
 Maximum number of reciprocal cells 3x 3x 3

    FEWALD:  cpu time    0.0027: real time    0.0031


--------------------------------------- Iteration      1(   1)  ---------------------------------------


    POTLOK:  cpu time    0.3605: real time    0.4095
    SETDIJ:  cpu time    0.0144: real time    0.0146
     EDDAV:  cpu time  141.3421: real time  142.4491
 BZINTS: Fermi energy:  4.958235;688.000000 electrons
         Band energy:***********;  BLOECHL correction:  0.000000
       DOS:  cpu time    0.0029: real time    0.0029
    CHARGE:  cpu time    1.2078: real time    1.2151
    MIXING:  cpu time    0.0025: real time    0.0026
    --------------------------------------------
      LOOP:  cpu time  142.9302: real time  144.0939

 eigenvalue-minimisations  : 18944
 total energy-change (2. order) :-0.2983166E+03  (-0.1744380E+03)
 number of electron     688.0000281 magnetization       0.0000000
 augmentation part      283.1435407 magnetization       0.0000000

 Broyden mixing:
  rms(total) = 0.41307E+01    rms(broyden)= 0.41307E+01
  rms(prec ) = 0.41321E+01
  weight for this iteration     100.00

 Free energy of the ion-electron system (eV)
  ---------------------------------------------------
  alpha Z        PSCENC =      2359.70237512
  Ewald energy   TEWEN  =    -62517.72125216
  -Hartree energ DENC   =    -42933.17636434
  -exchange      EXHF   =         0.00000000
  -V(xc)+E(xc)   XCENC  =      3287.07369405
  PAW double counting   =    112279.97497021  -115972.22836621
  entropy T*S    EENTRO =         0.00000000
  eigenvalues    EBANDS =    -10822.00678497
  atomic energy  EATOM  =    114020.06510763
  Solvation  Ediel_sol  =         0.00000000
  ---------------------------------------------------
  free energy    TOTEN  =      -298.31662069 eV

  energy without entropy =     -298.31662069  energy(sigma->0) =     -298.31662069


--------------------------------------------------------------------------------------------------------




--------------------------------------- Iteration      1(   2)  ---------------------------------------


    POTLOK:  cpu time    0.1486: real time    0.1515
    SETDIJ:  cpu time    0.0129: real time    0.0130
     EDDAV:  cpu time   73.8959: real time   74.4619
 BZINTS: Fermi energy:  5.099119;688.000000 electrons
         Band energy:***********;  BLOECHL correction:  0.000000
       DOS:  cpu time    0.0031: real time    0.0032
    CHARGE:  cpu time    1.2035: real time    1.2106
    MIXING:  cpu time    0.0030: real time    0.1626
    --------------------------------------------
      LOOP:  cpu time   75.2671: real time   76.0027

 eigenvalue-minimisations  : 13312
 total energy-change (2. order) :-0.2907514E+02  (-0.2914063E+02)
 number of electron     688.0000280 magnetization      -0.0000000
 augmentation part      281.4950522 magnetization      -0.0000000

 Broyden mixing:
  rms(total) = 0.16675E+01    rms(broyden)= 0.16675E+01
  rms(prec ) = 0.16809E+01
  weight for this iteration     100.00

 eigenvalues of (default mixing * dielectric matrix)
  average eigenvalue GAMMA=   0.7027
  0.7027

 Free energy of the ion-electron system (eV)
  ---------------------------------------------------
  alpha Z        PSCENC =      2359.70237512
  Ewald energy   TEWEN  =    -62517.72125216
  -Hartree energ DENC   =    -42945.24848448
  -exchange      EXHF   =         0.00000000
  -V(xc)+E(xc)   XCENC  =      3287.46762448
  PAW double counting   =    115814.94965076  -119523.84646166
  entropy T*S    EENTRO =         0.00000000
  eigenvalues    EBANDS =    -10822.76032151
  atomic energy  EATOM  =    114020.06510763
  Solvation  Ediel_sol  =         0.00000000
  ---------------------------------------------------
  free energy    TOTEN  =      -327.39176183 eV

  energy without entropy =     -327.39176183  energy(sigma->0) =     -327.39176183


--------------------------------------------------------------------------------------------------------




--------------------------------------- Iteration      1(   3)  ---------------------------------------


    POTLOK:  cpu time    0.1481: real time    0.1516
    SETDIJ:  cpu time    0.0129: real time    0.0130
     EDDAV:  cpu time  146.3918: real time  147.3827
 BZINTS: Fermi energy:  5.076375;688.000000 electrons
         Band energy:***********;  BLOECHL correction:  0.000000
       DOS:  cpu time    0.0031: real time    0.0031
    CHARGE:  cpu time    1.2055: real time    1.2127
    MIXING:  cpu time    0.0017: real time    0.0280
    --------------------------------------------
      LOOP:  cpu time  147.7631: real time  148.7912

 eigenvalue-minimisations  : 19712
 total energy-change (2. order) :-0.3286016E+00  (-0.5091870E+00)
 number of electron     688.0000280 magnetization      -0.0000000
 augmentation part      282.3303289 magnetization      -0.0000000

 Broyden mixing:
  rms(total) = 0.12429E+01    rms(broyden)= 0.12429E+01
  rms(prec ) = 0.12553E+01
  weight for this iteration     100.00

 eigenvalues of (default mixing * dielectric matrix)
  average eigenvalue GAMMA=   0.5113
  0.5113  0.5113

 Free energy of the ion-electron system (eV)
  ---------------------------------------------------
  alpha Z        PSCENC =      2359.70237512
  Ewald energy   TEWEN  =    -62517.72125216
  -Hartree energ DENC   =    -42909.04476188
  -exchange      EXHF   =         0.00000000
  -V(xc)+E(xc)   XCENC  =      3286.71875331
  PAW double counting   =    114828.81835015  -118528.25151105
  entropy T*S    EENTRO =         0.00000000
  eigenvalues    EBANDS =    -10868.00742451
  atomic energy  EATOM  =    114020.06510763
  Solvation  Ediel_sol  =         0.00000000
  ---------------------------------------------------
  free energy    TOTEN  =      -327.72036341 eV

  energy without entropy =     -327.72036341  energy(sigma->0) =     -327.72036341


--------------------------------------------------------------------------------------------------------




--------------------------------------- Iteration      1(   4)  ---------------------------------------


    POTLOK:  cpu time    0.1539: real time    0.1549
    SETDIJ:  cpu time    0.0130: real time    0.0131
     EDDAV:  cpu time   75.3576: real time   75.9321
 BZINTS: Fermi energy:  5.063345;688.000000 electrons
         Band energy:***********;  BLOECHL correction:  0.000000
       DOS:  cpu time    0.0032: real time    0.0032
    CHARGE:  cpu time    1.2021: real time    1.2093
    MIXING:  cpu time    0.0015: real time    0.0027
    --------------------------------------------
      LOOP:  cpu time   76.7313: real time   77.3152

 eigenvalue-minimisations  : 13312
 total energy-change (2. order) : 0.1568522E-01  (-0.5077368E-01)
 number of electron     688.0000280 magnetization      -0.0000000
 augmentation part      282.1880579 magnetization      -0.0000000

 Broyden mixing:
  rms(total) = 0.10476E+01    rms(broyden)= 0.10476E+01
  rms(prec ) = 0.10485E+01
  weight for this iteration     100.00

 eigenvalues of (default mixing * dielectric matrix)
  average eigenvalue GAMMA=   0.5350
  0.6283  0.6283  0.3483

 Free energy of the ion-electron system (eV)
  ---------------------------------------------------
  alpha Z        PSCENC =      2359.70237512
  Ewald energy   TEWEN  =    -62517.72125216
  -Hartree energ DENC   =    -42911.05567315
  -exchange      EXHF   =         0.00000000
  -V(xc)+E(xc)   XCENC  =      3286.41484152
  PAW double counting   =    114525.28754936  -118225.33068171
  entropy T*S    EENTRO =         0.00000000
  eigenvalues    EBANDS =    -10865.06694479
  atomic energy  EATOM  =    114020.06510763
  Solvation  Ediel_sol  =         0.00000000
  ---------------------------------------------------
  free energy    TOTEN  =      -327.70467818 eV

  energy without entropy =     -327.70467818  energy(sigma->0) =     -327.70467818


--------------------------------------------------------------------------------------------------------




--------------------------------------- Iteration      1(   5)  ---------------------------------------


    POTLOK:  cpu time    0.1528: real time    0.1538
    SETDIJ:  cpu time    0.0130: real time    0.0130
     EDDAV:  cpu time  119.8050: real time  120.6404
 BZINTS: Fermi energy:  5.056564;688.000000 electrons
         Band energy:***********;  BLOECHL correction:  0.000000
       DOS:  cpu time    0.0048: real time    0.0049
    CHARGE:  cpu time    1.2060: real time    1.2136
    MIXING:  cpu time    0.0016: real time    0.0016
    --------------------------------------------
      LOOP:  cpu time  121.1833: real time  122.0273

 eigenvalue-minimisations  : 16896
 total energy-change (2. order) : 0.1188989E-03  (-0.3534545E-02)
 number of electron     688.0000280 magnetization       0.0000000
 augmentation part      282.1261206 magnetization       0.0000000

 Broyden mixing:
  rms(total) = 0.90270E+00    rms(broyden)= 0.90270E+00
  rms(prec ) = 0.90294E+00
  weight for this iteration     100.00

 eigenvalues of (default mixing * dielectric matrix)
  average eigenvalue GAMMA=   0.5742
  0.7885  0.7885  0.3599  0.3599

 Free energy of the ion-electron system (eV)
  ---------------------------------------------------
  alpha Z        PSCENC =      2359.70237512
  Ewald energy   TEWEN  =    -62517.72125216
  -Hartree energ DENC   =    -42918.64852522
  -exchange      EXHF   =         0.00000000
  -V(xc)+E(xc)   XCENC  =      3286.61540560
  PAW double counting   =    114182.65011865  -117882.36416572
  entropy T*S    EENTRO =         0.00000000
  eigenvalues    EBANDS =    -10858.00362317
  atomic energy  EATOM  =    114020.06510763
  Solvation  Ediel_sol  =         0.00000000
  ---------------------------------------------------
  free energy    TOTEN  =      -327.70455928 eV

  energy without entropy =     -327.70455928  energy(sigma->0) =     -327.70455928


--------------------------------------------------------------------------------------------------------




--------------------------------------- Iteration      1(   6)  ---------------------------------------


    POTLOK:  cpu time    0.1520: real time    0.1531
    SETDIJ:  cpu time    0.0129: real time    0.0130
     EDDAV:  cpu time   97.2631: real time   97.9610
 BZINTS: Fermi energy:  5.055541;688.000000 electrons
         Band energy:***********;  BLOECHL correction:  0.000000
       DOS:  cpu time    0.0032: real time    0.0032
    CHARGE:  cpu time    1.2039: real time    1.2113
    MIXING:  cpu time    0.0014: real time    0.0014
    --------------------------------------------
      LOOP:  cpu time   98.6365: real time   99.3429

 eigenvalue-minimisations  : 14848
 total energy-change (2. order) : 0.4522553E-03  (-0.3536879E-03)
 number of electron     688.0000280 magnetization      -0.0000000
 augmentation part      282.1201887 magnetization      -0.0000000

 Broyden mixing:
  rms(total) = 0.72275E+00    rms(broyden)= 0.72275E+00
  rms(prec ) = 0.72316E+00
  weight for this iteration     100.00

 eigenvalues of (default mixing * dielectric matrix)
  average eigenvalue GAMMA=   0.8021
  1.3072  1.3072  0.5336  0.5336  0.3288

 Free energy of the ion-electron system (eV)
  ---------------------------------------------------
  alpha Z        PSCENC =      2359.70237512
  Ewald energy   TEWEN  =    -62517.72125216
  -Hartree energ DENC   =    -42920.01995494
  -exchange      EXHF   =         0.00000000
  -V(xc)+E(xc)   XCENC  =      3286.59248991
  PAW double counting   =    113770.46315470  -117468.82714146
  entropy T*S    EENTRO =         0.00000000
  eigenvalues    EBANDS =    -10857.95888582
  atomic energy  EATOM  =    114020.06510763
  Solvation  Ediel_sol  =         0.00000000
  ---------------------------------------------------
  free energy    TOTEN  =      -327.70410703 eV

  energy without entropy =     -327.70410703  energy(sigma->0) =     -327.70410703


--------------------------------------------------------------------------------------------------------




--------------------------------------- Iteration      1(   7)  ---------------------------------------


    POTLOK:  cpu time    0.1510: real time    0.1537
    SETDIJ:  cpu time    0.0130: real time    0.0130
     EDDAV:  cpu time  116.3113: real time  117.1202
 BZINTS: Fermi energy:  5.054270;688.000000 electrons
         Band energy:***********;  BLOECHL correction:  0.000000
       DOS:  cpu time    0.0034: real time    0.0034
    CHARGE:  cpu time    1.3713: real time    1.3802
    MIXING:  cpu time    0.0016: real time    0.0016
    --------------------------------------------
      LOOP:  cpu time  117.8515: real time  118.6722

 eigenvalue-minimisations  : 16384
 total energy-change (2. order) : 0.1993617E-02  (-0.7317029E-03)
 number of electron     688.0000280 magnetization      -0.0000000
 augmentation part      282.2157362 magnetization      -0.0000000

 Broyden mixing:
  rms(total) = 0.16320E+00    rms(broyden)= 0.16320E+00
  rms(prec ) = 0.16341E+00
  weight for this iteration     100.00

 eigenvalues of (default mixing * dielectric matrix)
  average eigenvalue GAMMA=   0.8693
  1.5433  1.5433  0.6170  0.6170  0.5558  0.3394

 Free energy of the ion-electron system (eV)
  ---------------------------------------------------
  alpha Z        PSCENC =      2359.70237512
  Ewald energy   TEWEN  =    -62517.72125216
  -Hartree energ DENC   =    -42920.99279231
  -exchange      EXHF   =         0.00000000
  -V(xc)+E(xc)   XCENC  =      3286.51156474
  PAW double counting   =    112523.18920204  -116217.08462088
  entropy T*S    EENTRO =         0.00000000
  eigenvalues    EBANDS =    -10861.37169759
  atomic energy  EATOM  =    114020.06510763
  Solvation  Ediel_sol  =         0.00000000
  ---------------------------------------------------
  free energy    TOTEN  =      -327.70211341 eV

  energy without entropy =     -327.70211341  energy(sigma->0) =     -327.70211341


--------------------------------------------------------------------------------------------------------




--------------------------------------- Iteration      1(   8)  ---------------------------------------


    POTLOK:  cpu time    0.1672: real time    0.1686
    SETDIJ:  cpu time    0.0154: real time    0.0155
     EDDAV:  cpu time   78.4280: real time   79.0197
 BZINTS: Fermi energy:  5.016084;688.000000 electrons
         Band energy:***********;  BLOECHL correction:  0.000000
       DOS:  cpu time    0.0031: real time    0.0032
    CHARGE:  cpu time    1.2034: real time    1.2110
    MIXING:  cpu time    0.0018: real time    0.0018
    --------------------------------------------
      LOOP:  cpu time   79.8190: real time   80.4197

 eigenvalue-minimisations  : 13312
 total energy-change (2. order) :-0.4218554E-04  (-0.3053788E-04)
 number of electron     688.0000280 magnetization      -0.0000000
 augmentation part      282.2109292 magnetization      -0.0000000

 Broyden mixing:
  rms(total) = 0.11372E+00    rms(broyden)= 0.11372E+00
  rms(prec ) = 0.11399E+00
  weight for this iteration     100.00

 eigenvalues of (default mixing * dielectric matrix)
  average eigenvalue GAMMA=   0.8054
  1.5735  1.5735  0.6370  0.6370  0.4993  0.3956  0.3221

 Free energy of the ion-electron system (eV)
  ---------------------------------------------------
  alpha Z        PSCENC =      2359.70237512
  Ewald energy   TEWEN  =    -62517.72125216
  -Hartree energ DENC   =    -42921.59665785
  -exchange      EXHF   =         0.00000000
  -V(xc)+E(xc)   XCENC  =      3286.52246618
  PAW double counting   =    112432.12586731  -116125.89696810
  entropy T*S    EENTRO =         0.00000000
  eigenvalues    EBANDS =    -10860.90309371
  atomic energy  EATOM  =    114020.06510763
  Solvation  Ediel_sol  =         0.00000000
  ---------------------------------------------------
  free energy    TOTEN  =      -327.70215560 eV

  energy without entropy =     -327.70215560  energy(sigma->0) =     -327.70215560


--------------------------------------------------------------------------------------------------------




--------------------------------------- Iteration      1(   9)  ---------------------------------------


    POTLOK:  cpu time    0.1527: real time    0.1538
    SETDIJ:  cpu time    0.0134: real time    0.0135
     EDDAV:  cpu time  131.1597: real time  132.0669
 BZINTS: Fermi energy:  4.989510;688.000000 electrons
         Band energy:***********;  BLOECHL correction:  0.000000
       DOS:  cpu time    0.0028: real time    0.0028
    CHARGE:  cpu time    1.2076: real time    1.2146
    MIXING:  cpu time    0.0016: real time    0.0016
    --------------------------------------------
      LOOP:  cpu time  132.5377: real time  133.4531

 eigenvalue-minimisations  : 17408
 total energy-change (2. order) : 0.1779362E-04  (-0.4314976E-05)
 number of electron     688.0000280 magnetization       0.0000000
 augmentation part      282.2135012 magnetization       0.0000000

 Broyden mixing:
  rms(total) = 0.95676E-01    rms(broyden)= 0.95676E-01
  rms(prec ) = 0.95885E-01
  weight for this iteration     100.00

 eigenvalues of (default mixing * dielectric matrix)
  average eigenvalue GAMMA=   1.1293
  2.6852  2.0956  1.1456  0.9509  0.3365  0.5922  0.5922  0.6362

 Free energy of the ion-electron system (eV)
  ---------------------------------------------------
  alpha Z        PSCENC =      2359.70237512
  Ewald energy   TEWEN  =    -62517.72125216
  -Hartree energ DENC   =    -42921.43744551
  -exchange      EXHF   =         0.00000000
  -V(xc)+E(xc)   XCENC  =      3286.52001189
  PAW double counting   =    112407.90963616  -116101.65048252
  entropy T*S    EENTRO =         0.00000000
  eigenvalues    EBANDS =    -10861.09008841
  atomic energy  EATOM  =    114020.06510763
  Solvation  Ediel_sol  =         0.00000000
  ---------------------------------------------------
  free energy    TOTEN  =      -327.70213780 eV

  energy without entropy =     -327.70213780  energy(sigma->0) =     -327.70213780


--------------------------------------------------------------------------------------------------------




--------------------------------------- Iteration      1(  10)  ---------------------------------------


    POTLOK:  cpu time    0.1527: real time    0.1536
    SETDIJ:  cpu time    0.0129: real time    0.0130
     EDDAV:  cpu time   94.4785: real time   95.1632
 BZINTS: Fermi energy:  4.989528;688.000000 electrons
         Band energy:***********;  BLOECHL correction:  0.000000
       DOS:  cpu time    0.0041: real time    0.0041
    CHARGE:  cpu time    1.2063: real time    1.2142
    MIXING:  cpu time    0.0017: real time    0.0017
    --------------------------------------------
      LOOP:  cpu time   95.8562: real time   96.5497

 eigenvalue-minimisations  : 14592
 total energy-change (2. order) : 0.2940770E-04  (-0.5622562E-04)
 number of electron     688.0000280 magnetization       0.0000000
 augmentation part      282.2271013 magnetization       0.0000000

 Broyden mixing:
  rms(total) = 0.16782E-02    rms(broyden)= 0.16776E-02
  rms(prec ) = 0.17434E-02
  weight for this iteration     100.00

 eigenvalues of (default mixing * dielectric matrix)
  average eigenvalue GAMMA=   1.0718
  2.9630  1.5317  1.5317  0.7802  0.7802  0.3365  0.5781  0.5781  0.5665

 Free energy of the ion-electron system (eV)
  ---------------------------------------------------
  alpha Z        PSCENC =      2359.70237512
  Ewald energy   TEWEN  =    -62517.72125216
  -Hartree energ DENC   =    -42920.96610036
  -exchange      EXHF   =         0.00000000
  -V(xc)+E(xc)   XCENC  =      3286.50795114
  PAW double counting   =    112252.37721933  -115945.81946854
  entropy T*S    EENTRO =         0.00000000
  eigenvalues    EBANDS =    -10861.84794054
  atomic energy  EATOM  =    114020.06510763
  Solvation  Ediel_sol  =         0.00000000
  ---------------------------------------------------
  free energy    TOTEN  =      -327.70210840 eV

  energy without entropy =     -327.70210840  energy(sigma->0) =     -327.70210840


--------------------------------------------------------------------------------------------------------




--------------------------------------- Iteration      1(  11)  ---------------------------------------


    POTLOK:  cpu time    0.1524: real time    0.1533
    SETDIJ:  cpu time    0.0131: real time    0.0131
     EDDAV:  cpu time   94.6142: real time   95.2895
 BZINTS: Fermi energy:  4.989546;688.000000 electrons
         Band energy:***********;  BLOECHL correction:  0.000000
       DOS:  cpu time    0.0028: real time    0.0028
    CHARGE:  cpu time    1.2043: real time    1.2112
    MIXING:  cpu time    0.0019: real time    0.0019
    --------------------------------------------
      LOOP:  cpu time   95.9885: real time   96.6718

 eigenvalue-minimisations  : 14336
 total energy-change (2. order) :-0.2923174E-05  (-0.1622347E-05)
 number of electron     688.0000280 magnetization       0.0000000
 augmentation part      282.2284502 magnetization       0.0000000

 Broyden mixing:
  rms(total) = 0.50209E-02    rms(broyden)= 0.50209E-02
  rms(prec ) = 0.50311E-02
  weight for this iteration     100.00

 eigenvalues of (default mixing * dielectric matrix)
  average eigenvalue GAMMA=   1.0588
  3.0503  1.5545  1.5545  0.7699  0.7699  0.3365  0.6720  0.6720  0.6041  0.6041

 Free energy of the ion-electron system (eV)
  ---------------------------------------------------
  alpha Z        PSCENC =      2359.70237512
  Ewald energy   TEWEN  =    -62517.72125216
  -Hartree energ DENC   =    -42920.96586753
  -exchange      EXHF   =         0.00000000
  -V(xc)+E(xc)   XCENC  =      3286.50696535
  PAW double counting   =    112242.57135117  -115935.99896277
  entropy T*S    EENTRO =         0.00000000
  eigenvalues    EBANDS =    -10861.86182811
  atomic energy  EATOM  =    114020.06510763
  Solvation  Ediel_sol  =         0.00000000
  ---------------------------------------------------
  free energy    TOTEN  =      -327.70211132 eV

  energy without entropy =     -327.70211132  energy(sigma->0) =     -327.70211132


--------------------------------------------------------------------------------------------------------




--------------------------------------- Iteration      1(  12)  ---------------------------------------


    POTLOK:  cpu time    0.1499: real time    0.1509
    SETDIJ:  cpu time    0.0130: real time    0.0130
     EDDAV:  cpu time  124.7867: real time  125.6466
 BZINTS: Fermi energy:  4.989566;688.000000 electrons
         Band energy:***********;  BLOECHL correction:  0.000000
       DOS:  cpu time    0.0028: real time    0.0028
    CHARGE:  cpu time    1.2055: real time    1.2129
    MIXING:  cpu time    0.0021: real time    0.0027
    --------------------------------------------
      LOOP:  cpu time  126.1599: real time  127.0289

 eigenvalue-minimisations  : 16896
 total energy-change (2. order) :-0.1432243E-05  (-0.2598417E-06)
 number of electron     688.0000280 magnetization       0.0000000
 augmentation part      282.2283336 magnetization       0.0000000

 Broyden mixing:
  rms(total) = 0.65870E-02    rms(broyden)= 0.65870E-02
  rms(prec ) = 0.65915E-02
  weight for this iteration     100.00

 eigenvalues of (default mixing * dielectric matrix)
  average eigenvalue GAMMA=   1.1779
  3.3354  1.9454  1.9454  1.0884  1.0884  0.3365  0.5943  0.5943  0.7109  0.7109
  0.6069

 Free energy of the ion-electron system (eV)
  ---------------------------------------------------
  alpha Z        PSCENC =      2359.70237512
  Ewald energy   TEWEN  =    -62517.72125216
  -Hartree energ DENC   =    -42920.97452464
  -exchange      EXHF   =         0.00000000
  -V(xc)+E(xc)   XCENC  =      3286.50713193
  PAW double counting   =    112239.20493929  -115932.64253399
  entropy T*S    EENTRO =         0.00000000
  eigenvalues    EBANDS =    -10861.84335593
  atomic energy  EATOM  =    114020.06510763
  Solvation  Ediel_sol  =         0.00000000
  ---------------------------------------------------
  free energy    TOTEN  =      -327.70211275 eV

  energy without entropy =     -327.70211275  energy(sigma->0) =     -327.70211275


--------------------------------------------------------------------------------------------------------




--------------------------------------- Iteration      1(  13)  ---------------------------------------


    POTLOK:  cpu time    0.1528: real time    0.1537
    SETDIJ:  cpu time    0.0131: real time    0.0131
     EDDAV:  cpu time  111.6765: real time  112.4585
 BZINTS: Fermi energy:  4.989614;688.000000 electrons
         Band energy:***********;  BLOECHL correction:  0.000000
       DOS:  cpu time    0.0028: real time    0.0028
    CHARGE:  cpu time    1.2032: real time    1.2104
    MIXING:  cpu time    0.0020: real time    0.0020
    --------------------------------------------
      LOOP:  cpu time  113.0503: real time  113.8405

 eigenvalue-minimisations  : 16128
 total energy-change (2. order) :-0.1678694E-05  (-0.4392981E-06)
 number of electron     688.0000280 magnetization      -0.0000000
 augmentation part      282.2276247 magnetization      -0.0000000

 Broyden mixing:
  rms(total) = 0.46342E-02    rms(broyden)= 0.46342E-02
  rms(prec ) = 0.46355E-02
  weight for this iteration     100.00

 eigenvalues of (default mixing * dielectric matrix)
  average eigenvalue GAMMA=   1.1692
  3.3094  2.0704  2.0704  1.1238  1.1238  0.3365  0.7959  0.7959  0.5952  0.5952
  0.6066  0.6066

 Free energy of the ion-electron system (eV)
  ---------------------------------------------------
  alpha Z        PSCENC =      2359.70237512
  Ewald energy   TEWEN  =    -62517.72125216
  -Hartree energ DENC   =    -42920.99524801
  -exchange      EXHF   =         0.00000000
  -V(xc)+E(xc)   XCENC  =      3286.50788786
  PAW double counting   =    112242.24149154  -115935.71121960
  entropy T*S    EENTRO =         0.00000000
  eigenvalues    EBANDS =    -10861.79125680
  atomic energy  EATOM  =    114020.06510763
  Solvation  Ediel_sol  =         0.00000000
  ---------------------------------------------------
  free energy    TOTEN  =      -327.70211443 eV

  energy without entropy =     -327.70211443  energy(sigma->0) =     -327.70211443


--------------------------------------------------------------------------------------------------------




--------------------------------------- Iteration      1(  14)  ---------------------------------------


    POTLOK:  cpu time    0.1515: real time    0.1524
    SETDIJ:  cpu time    0.0129: real time    0.0130
     EDDAV:  cpu time   97.1384: real time   97.8250
 BZINTS: Fermi energy:  4.989621;688.000000 electrons
         Band energy:***********;  BLOECHL correction:  0.000000
       DOS:  cpu time    0.0028: real time    0.0028
    CHARGE:  cpu time    1.2011: real time    1.2081
    MIXING:  cpu time    0.0022: real time    0.0022
    --------------------------------------------
      LOOP:  cpu time   98.5088: real time   99.2035

 eigenvalue-minimisations  : 14592
 total energy-change (2. order) :-0.5758484E-06  (-0.4554372E-07)
 number of electron     688.0000280 magnetization      -0.0000000
 augmentation part      282.2275956 magnetization      -0.0000000

 Broyden mixing:
  rms(total) = 0.22951E-02    rms(broyden)= 0.22951E-02
  rms(prec ) = 0.22963E-02
  weight for this iteration     100.00

 eigenvalues of (default mixing * dielectric matrix)
  average eigenvalue GAMMA=   1.2023
  3.4753  2.2325  2.2325  1.0856  1.0856  1.0033  1.0033  0.3365  0.5961  0.5961
  0.6885  0.6885  0.6064

 Free energy of the ion-electron system (eV)
  ---------------------------------------------------
  alpha Z        PSCENC =      2359.70237512
  Ewald energy   TEWEN  =    -62517.72125216
  -Hartree energ DENC   =    -42920.98160883
  -exchange      EXHF   =         0.00000000
  -V(xc)+E(xc)   XCENC  =      3286.50781910
  PAW double counting   =    112246.52266768  -115940.00678736
  entropy T*S    EENTRO =         0.00000000
  eigenvalues    EBANDS =    -10861.79043616
  atomic energy  EATOM  =    114020.06510763
  Solvation  Ediel_sol  =         0.00000000
  ---------------------------------------------------
  free energy    TOTEN  =      -327.70211501 eV

  energy without entropy =     -327.70211501  energy(sigma->0) =     -327.70211501


--------------------------------------------------------------------------------------------------------




--------------------------------------- Iteration      1(  15)  ---------------------------------------


    POTLOK:  cpu time    0.1523: real time    0.1533
    SETDIJ:  cpu time    0.0130: real time    0.0130
     EDDAV:  cpu time  115.9976: real time  116.7962
 BZINTS: Fermi energy:  4.989621;688.000000 electrons
         Band energy:***********;  BLOECHL correction:  0.000000
       DOS:  cpu time    0.0028: real time    0.0028
    CHARGE:  cpu time    1.2045: real time    1.2119
    MIXING:  cpu time    0.0023: real time    0.0023
    --------------------------------------------
      LOOP:  cpu time  117.3723: real time  118.1794

 eigenvalue-minimisations  : 16128
 total energy-change (2. order) :-0.3536697E-06  (-0.6111789E-07)
 number of electron     688.0000280 magnetization       0.0000000
 augmentation part      282.2276532 magnetization       0.0000000

 Broyden mixing:
  rms(total) = 0.11128E-02    rms(broyden)= 0.11128E-02
  rms(prec ) = 0.11139E-02
  weight for this iteration     100.00

 eigenvalues of (default mixing * dielectric matrix)
  average eigenvalue GAMMA=   1.2686
  4.0306  2.4031  2.4031  1.3661  1.3661  1.0099  1.0099  0.3365  0.5944  0.5944
  0.7195  0.7195  0.6034  0.6034

 Free energy of the ion-electron system (eV)
  ---------------------------------------------------
  alpha Z        PSCENC =      2359.70237512
  Ewald energy   TEWEN  =    -62517.72125216
  -Hartree energ DENC   =    -42920.96549380
  -exchange      EXHF   =         0.00000000
  -V(xc)+E(xc)   XCENC  =      3286.50740545
  PAW double counting   =    112248.67205833  -115942.16375547
  entropy T*S    EENTRO =         0.00000000
  eigenvalues    EBANDS =    -10861.79856044
  atomic energy  EATOM  =    114020.06510763
  Solvation  Ediel_sol  =         0.00000000
  ---------------------------------------------------
  free energy    TOTEN  =      -327.70211536 eV

  energy without entropy =     -327.70211536  energy(sigma->0) =     -327.70211536


--------------------------------------------------------------------------------------------------------




--------------------------------------- Iteration      1(  16)  ---------------------------------------


    POTLOK:  cpu time    0.1528: real time    0.1538
    SETDIJ:  cpu time    0.0127: real time    0.0128
     EDDAV:  cpu time   92.5309: real time   93.1931
 BZINTS: Fermi energy:  4.989621;688.000000 electrons
         Band energy:***********;  BLOECHL correction:  0.000000
       DOS:  cpu time    0.0028: real time    0.0028
    CHARGE:  cpu time    1.2840: real time    1.2914
    MIXING:  cpu time    0.0022: real time    0.0023
    --------------------------------------------
      LOOP:  cpu time   93.9854: real time   94.6561

 eigenvalue-minimisations  : 14336
 total energy-change (2. order) :-0.9882206E-07  (-0.2276781E-07)
 number of electron     688.0000280 magnetization       0.0000000
 augmentation part      282.2275357 magnetization       0.0000000

 Broyden mixing:
  rms(total) = 0.30086E-03    rms(broyden)= 0.30086E-03
  rms(prec ) = 0.30154E-03
  weight for this iteration     100.00

 eigenvalues of (default mixing * dielectric matrix)
  average eigenvalue GAMMA=   1.2814
  4.3534  2.6770  1.9648  1.9648  1.1837  1.1837  0.3365  0.8614  0.7968  0.7968
  0.5959  0.5959  0.6752  0.6178  0.6178

 Free energy of the ion-electron system (eV)
  ---------------------------------------------------
  alpha Z        PSCENC =      2359.70237512
  Ewald energy   TEWEN  =    -62517.72125216
  -Hartree energ DENC   =    -42920.96091881
  -exchange      EXHF   =         0.00000000
  -V(xc)+E(xc)   XCENC  =      3286.50736411
  PAW double counting   =    112250.32708450  -115943.82344514
  entropy T*S    EENTRO =         0.00000000
  eigenvalues    EBANDS =    -10861.79843070
  atomic energy  EATOM  =    114020.06510763
  Solvation  Ediel_sol  =         0.00000000
  ---------------------------------------------------
  free energy    TOTEN  =      -327.70211546 eV

  energy without entropy =     -327.70211546  energy(sigma->0) =     -327.70211546


--------------------------------------------------------------------------------------------------------




--------------------------------------- Iteration      1(  17)  ---------------------------------------


    POTLOK:  cpu time    0.1757: real time    0.1767
    SETDIJ:  cpu time    0.0129: real time    0.0129
     EDDAV:  cpu time   82.0832: real time   82.6647
 BZINTS: Fermi energy:  4.989622;688.000000 electrons
         Band energy:***********;  BLOECHL correction:  0.000000
       DOS:  cpu time    0.0028: real time    0.0028
    CHARGE:  cpu time    1.2047: real time    1.2118
    MIXING:  cpu time    0.0025: real time    0.0025
    --------------------------------------------
      LOOP:  cpu time   83.4818: real time   84.0715

 eigenvalue-minimisations  : 11776
 total energy-change (2. order) :-0.1447916E-07  (-0.3227093E-08)
 number of electron     688.0000280 magnetization       0.0000000
 augmentation part      282.2274481 magnetization       0.0000000

 Broyden mixing:
  rms(total) = 0.16725E-03    rms(broyden)= 0.16725E-03
  rms(prec ) = 0.16743E-03
  weight for this iteration     100.00

 eigenvalues of (default mixing * dielectric matrix)
  average eigenvalue GAMMA=   1.2509
  4.3541  2.7804  1.9896  1.9896  1.1854  1.1854  0.3365  0.7775  0.7775  0.7880
  0.7880  0.5959  0.5959  0.6410  0.6410  0.5885

 Free energy of the ion-electron system (eV)
  ---------------------------------------------------
  alpha Z        PSCENC =      2359.70237512
  Ewald energy   TEWEN  =    -62517.72125216
  -Hartree energ DENC   =    -42920.96047293
  -exchange      EXHF   =         0.00000000
  -V(xc)+E(xc)   XCENC  =      3286.50746156
  PAW double counting   =    112251.32532580  -115944.82383023
  entropy T*S    EENTRO =         0.00000000
  eigenvalues    EBANDS =    -10861.79683026
  atomic energy  EATOM  =    114020.06510763
  Solvation  Ediel_sol  =         0.00000000
  ---------------------------------------------------
  free energy    TOTEN  =      -327.70211547 eV

  energy without entropy =     -327.70211547  energy(sigma->0) =     -327.70211547


--------------------------------------------------------------------------------------------------------




--------------------------------------- Iteration      1(  18)  ---------------------------------------


    POTLOK:  cpu time    0.1481: real time    0.1500
    SETDIJ:  cpu time    0.0129: real time    0.0129
     EDDAV:  cpu time   69.2164: real time   69.7107
 BZINTS: Fermi energy:  4.989622;688.000000 electrons
         Band energy:***********;  BLOECHL correction:  0.000000
       DOS:  cpu time    0.0027: real time    0.0028
    --------------------------------------------
      LOOP:  cpu time   69.3799: real time   69.8763

 eigenvalue-minimisations  :  9728
[...]
   -.420E+02 0.459E+00 0.193E+02   0.429E+02 -.435E+00 -.195E+02   -.854E+00 -.235E-01 0.192E+00   -.338E-04 0.148E-05 0.698E-05
   -.420E+02 0.459E+00 0.193E+02   0.429E+02 -.435E+00 -.195E+02   -.854E+00 -.235E-01 0.192E+00   -.338E-04 0.148E-05 0.698E-05
   -.420E+02 0.459E+00 0.193E+02   0.429E+02 -.435E+00 -.195E+02   -.854E+00 -.235E-01 0.192E+00   -.338E-04 0.148E-05 0.698E-05
   -.420E+02 0.459E+00 0.193E+02   0.429E+02 -.435E+00 -.195E+02   -.854E+00 -.235E-01 0.192E+00   -.338E-04 0.148E-05 0.698E-05
   0.420E+02 -.459E+00 0.193E+02   -.429E+02 0.435E+00 -.195E+02   0.854E+00 0.235E-01 0.192E+00   0.338E-04 -.148E-05 0.698E-05
   0.420E+02 -.459E+00 0.193E+02   -.429E+02 0.435E+00 -.195E+02   0.854E+00 0.235E-01 0.192E+00   0.338E-04 -.148E-05 0.698E-05
   0.420E+02 -.459E+00 0.193E+02   -.429E+02 0.435E+00 -.195E+02   0.854E+00 0.235E-01 0.192E+00   0.338E-04 -.148E-05 0.698E-05
   0.420E+02 -.459E+00 0.193E+02   -.429E+02 0.435E+00 -.195E+02   0.854E+00 0.235E-01 0.192E+00   0.338E-04 -.148E-05 0.698E-05
   0.459E+00 -.420E+02 0.193E+02   -.435E+00 0.429E+02 -.195E+02   -.235E-01 -.854E+00 0.192E+00   0.148E-05 -.338E-04 0.698E-05
   0.459E+00 -.420E+02 0.193E+02   -.435E+00 0.429E+02 -.195E+02   -.235E-01 -.854E+00 0.192E+00   0.148E-05 -.338E-04 0.698E-05
   0.459E+00 -.420E+02 0.193E+02   -.435E+00 0.429E+02 -.195E+02   -.235E-01 -.854E+00 0.192E+00   0.148E-05 -.338E-04 0.698E-05
   0.459E+00 -.420E+02 0.193E+02   -.435E+00 0.429E+02 -.195E+02   -.235E-01 -.854E+00 0.192E+00   0.148E-05 -.338E-04 0.698E-05
   -.459E+00 0.420E+02 0.193E+02   0.435E+00 -.429E+02 -.195E+02   0.235E-01 0.854E+00 0.192E+00   -.148E-05 0.338E-04 0.698E-05
   -.459E+00 0.420E+02 0.193E+02   0.435E+00 -.429E+02 -.195E+02   0.235E-01 0.854E+00 0.192E+00   -.148E-05 0.338E-04 0.698E-05
   -.459E+00 0.420E+02 0.193E+02   0.435E+00 -.429E+02 -.195E+02   0.235E-01 0.854E+00 0.192E+00   -.148E-05 0.338E-04 0.698E-05
   -.459E+00 0.420E+02 0.193E+02   0.435E+00 -.429E+02 -.195E+02   0.235E-01 0.854E+00 0.192E+00   -.148E-05 0.338E-04 0.698E-05
   -.889E-07 0.395E-07 -.226E+02   -.906E-13 0.639E-13 0.217E+02   -.755E-25 0.246E-24 0.916E+00   0.406E-14 -.588E-12 -.472E-04
   -.889E-07 0.395E-07 -.226E+02   -.906E-13 0.000E+00 0.217E+02   -.178E-25 -.207E-24 0.916E+00   0.659E-13 -.566E-12 -.472E-04
   -.889E-07 0.395E-07 -.226E+02   -.906E-13 0.284E-13 0.217E+02   0.174E-25 0.000E+00 0.916E+00   -.871E-13 0.569E-12 -.472E-04
   -.889E-07 0.395E-07 -.226E+02   -.119E-12 0.284E-13 0.217E+02   -.828E-25 -.905E-25 0.916E+00   0.159E-12 0.319E-12 -.472E-04
   0.395E-07 -.889E-07 -.226E+02   0.284E-12 -.199E-12 0.217E+02   -.945E-25 0.646E-25 0.916E+00   0.685E-13 -.487E-12 -.472E-04
   0.395E-07 -.889E-07 -.226E+02   0.341E-12 -.199E-12 0.217E+02   0.578E-25 -.129E-24 0.916E+00   -.193E-12 -.281E-12 -.472E-04
   0.395E-07 -.889E-07 -.226E+02   0.256E-12 -.227E-12 0.217E+02   -.182E-25 -.775E-25 0.916E+00   0.600E-13 0.677E-12 -.472E-04
   0.395E-07 -.889E-07 -.226E+02   0.313E-12 -.171E-12 0.217E+02   -.775E-25 -.155E-24 0.916E+00   -.169E-12 0.571E-12 -.472E-04
   -.889E-07 0.395E-07 -.226E+02   -.568E-13 0.195E-12 0.217E+02   0.687E-25 0.233E-24 0.916E+00   -.122E-12 0.124E-12 -.472E-04
   -.889E-07 0.395E-07 -.226E+02   -.853E-13 0.195E-12 0.217E+02   -.485E-25 -.181E-24 0.916E+00   -.531E-13 0.359E-12 -.472E-04
   -.889E-07 0.395E-07 -.226E+02   -.114E-12 0.234E-12 0.217E+02   0.710E-25 -.614E-25 0.916E+00   -.125E-12 -.205E-12 -.472E-04
   -.889E-07 0.395E-07 -.226E+02   -.853E-13 0.226E-12 0.217E+02   0.727E-26 0.310E-24 0.916E+00   -.736E-15 -.304E-12 -.472E-04
   0.395E-07 -.889E-07 -.226E+02   0.343E-12 -.586E-13 0.217E+02   -.965E-25 -.220E-24 0.916E+00   -.120E-12 0.438E-12 -.472E-04
   0.395E-07 -.889E-07 -.226E+02   0.346E-12 -.587E-13 0.217E+02   -.307E-24 0.207E-24 0.916E+00   0.106E-12 0.270E-12 -.472E-04
   0.395E-07 -.889E-07 -.226E+02   0.300E-12 -.842E-13 0.217E+02   -.153E-24 -.155E-24 0.916E+00   -.576E-13 -.213E-12 -.472E-04
   0.395E-07 -.889E-07 -.226E+02   0.274E-12 0.293E-13 0.217E+02   -.202E-24 0.388E-25 0.916E+00   0.196E-12 -.164E-12 -.472E-04
   0.265E-07 -.554E-07 -.183E+02   -.400E-12 0.124E-12 0.173E+02   0.159E-25 0.711E-25 0.109E+01   -.199E-12 -.389E-12 -.152E-04
   0.265E-07 -.554E-07 -.183E+02   -.329E-12 0.156E-12 0.173E+02   0.242E-26 -.679E-25 0.109E+01   0.381E-12 -.373E-12 -.152E-04
   0.265E-07 -.554E-07 -.183E+02   -.339E-12 0.178E-12 0.173E+02   -.788E-26 -.582E-25 0.109E+01   -.409E-12 0.526E-12 -.152E-04
   0.265E-07 -.554E-07 -.183E+02   -.297E-12 0.185E-12 0.173E+02   0.587E-25 0.452E-25 0.109E+01   0.468E-12 0.462E-12 -.152E-04
   -.554E-07 0.265E-07 -.183E+02   -.284E-13 -.817E-13 0.173E+02   -.586E-25 0.258E-25 0.109E+01   0.712E-13 -.488E-12 -.152E-04
   -.554E-07 0.265E-07 -.183E+02   -.213E-13 -.817E-13 0.173E+02   0.973E-25 -.646E-26 0.109E+01   -.118E-12 -.463E-12 -.152E-04
   -.554E-07 0.265E-07 -.183E+02   0.000E+00 -.355E-13 0.173E+02   0.226E-25 -.452E-25 0.109E+01   0.140E-13 0.449E-12 -.152E-04
   -.554E-07 0.265E-07 -.183E+02   0.711E-14 -.426E-13 0.173E+02   -.187E-24 -.711E-25 0.109E+01   -.509E-13 0.471E-12 -.152E-04
   0.265E-07 -.554E-07 -.183E+02   -.259E-12 0.148E-12 0.173E+02   0.880E-25 0.110E-24 0.109E+01   0.231E-12 0.316E-12 -.152E-04
   0.265E-07 -.554E-07 -.183E+02   -.245E-12 0.148E-12 0.173E+02   0.841E-25 -.132E-24 0.109E+01   -.215E-12 0.414E-12 -.152E-04
   0.265E-07 -.554E-07 -.183E+02   -.298E-12 0.139E-12 0.173E+02   0.112E-25 -.388E-25 0.109E+01   0.784E-13 -.143E-12 -.152E-04
   0.265E-07 -.554E-07 -.183E+02   -.256E-12 0.199E-12 0.173E+02   -.727E-26 0.775E-25 0.109E+01   -.124E-12 -.141E-12 -.152E-04
   -.554E-07 0.265E-07 -.183E+02   0.402E-13 -.174E-12 0.173E+02   0.144E-24 -.646E-26 0.109E+01   -.435E-12 0.261E-12 -.152E-04
   -.554E-07 0.264E-07 -.183E+02   0.479E-13 -.117E-12 0.173E+02   -.143E-24 0.129E-25 0.109E+01   0.468E-12 0.134E-12 -.152E-04
   -.554E-07 0.265E-07 -.183E+02   0.121E-13 -.769E-13 0.173E+02   0.133E-25 0.000E+00 0.109E+01   -.284E-12 -.234E-12 -.152E-04
   -.554E-07 0.265E-07 -.183E+02   0.483E-13 -.769E-13 0.173E+02   -.715E-25 0.116E-24 0.109E+01   0.386E-12 -.260E-12 -.152E-04
 -----------------------------------------------------------------------------------------------
   -.396E-06 -.396E-06 -.382E+02   -.381E-12 0.765E-12 -.426E-13   0.173E-16 -.555E-15 0.382E+02   -.696E-12 -.141E-11 -.775E-03
 
 
 POSITION                                       TOTAL-FORCE (eV/Angst)
 -----------------------------------------------------------------------------------
      1.36591      1.35810      1.26709         0.000060     -0.000146     -0.000294
      6.61667      1.52307      1.26709         0.000060     -0.000146     -0.000294
      1.53088      6.60886      1.26709         0.000060     -0.000146     -0.000294
      6.78165      6.77384      1.26709         0.000060     -0.000146     -0.000294
      4.04983      4.05764      1.26709        -0.000060      0.000146     -0.000294
      9.30059      4.22262      1.26709        -0.000060      0.000146     -0.000294
      4.21480      9.30841      1.26709        -0.000060      0.000146     -0.000294
      9.46557      9.47338      1.26709        -0.000060      0.000146     -0.000294
      1.43226      3.96734      9.08844         0.000146     -0.000060     -0.000294
      6.68302      4.13232      9.08844         0.000146     -0.000060     -0.000294
      1.59723      9.21811      9.08844         0.000146     -0.000060     -0.000294
      6.84800      9.38308      9.08844         0.000146     -0.000060     -0.000294
      3.98348      1.44840      9.08844        -0.000146      0.000060     -0.000294
      9.23425      1.61337      9.08844        -0.000146      0.000060     -0.000294
      4.14846      6.69916      9.08844        -0.000146      0.000060     -0.000294
      9.39922      6.86414      9.08844        -0.000146      0.000060     -0.000294
      1.34196      1.34977      6.48132        -0.000060      0.000146     -0.000294
      6.59272      1.51475      6.48132        -0.000060      0.000146     -0.000294
      1.50693      6.60054      6.48132        -0.000060      0.000146     -0.000294
      6.75770      6.76551      6.48132        -0.000060      0.000146     -0.000294
      4.07378      4.06597      6.48132         0.000060     -0.000146     -0.000294
      9.32454      4.23094      6.48132         0.000060     -0.000146     -0.000294
      4.23875      9.31673      6.48132         0.000060     -0.000146     -0.000294
      9.48952      9.48171      6.48132         0.000060     -0.000146     -0.000294
      3.97515      1.42445      3.87420         0.000146     -0.000060     -0.000294
      9.22592      1.58942      3.87420         0.000146     -0.000060     -0.000294
      4.14013      6.67521      3.87420         0.000146     -0.000060     -0.000294
      9.39089      6.84019      3.87420         0.000146     -0.000060     -0.000294
      1.44059      3.99129      3.87420        -0.000146      0.000060     -0.000294
      6.69135      4.15627      3.87420        -0.000146      0.000060     -0.000294
      1.60556      9.24206      3.87420        -0.000146      0.000060     -0.000294
      6.85632      9.40703      3.87420        -0.000146      0.000060     -0.000294
      0.00000      0.00000      5.24594        -0.000000      0.000000     -0.000891
      5.25076      0.16497      5.24594         0.000000      0.000000     -0.000891
      0.16497      5.25076      5.24594         0.000000      0.000000     -0.000891
      5.41574      5.41574      5.24594         0.000000      0.000000     -0.000891
      2.62538      0.08249      2.63883         0.000000      0.000000     -0.000891
      7.87615      0.24746      2.63883        -0.000000      0.000000     -0.000891
      2.79036      5.33325      2.63883         0.000000      0.000000     -0.000891
      8.04112      5.49823      2.63883        -0.000000      0.000000     -0.000891
      2.70787      2.70787      0.03171         0.000000      0.000000     -0.000891
      7.95863      2.87284      0.03171         0.000000      0.000000     -0.000891
      2.87284      7.95863      0.03171         0.000000      0.000000     -0.000891
      8.12361      8.12361      0.03171        -0.000000      0.000000     -0.000891
      0.08249      2.62538      7.85306        -0.000000      0.000000     -0.000891
      5.33325      2.79036      7.85306        -0.000000      0.000000     -0.000891
      0.24746      7.87615      7.85306        -0.000000      0.000000     -0.000891
      5.49823      8.04112      7.85306         0.000000      0.000000     -0.000891
      0.00000      0.00000      0.04121         0.000000      0.000000      0.001478
      5.25076      0.16497      0.04121         0.000000      0.000000      0.001478
      0.16497      5.25076      0.04121        -0.000000      0.000000      0.001478
      5.41574      5.41574      0.04121         0.000000      0.000000      0.001478
      2.62538      0.08249      7.86256        -0.000000      0.000000      0.001478
      7.87615      0.24746      7.86256         0.000000      0.000000      0.001478
      2.79036      5.33325      7.86256         0.000000      0.000000      0.001478
      8.04112      5.49823      7.86256        -0.000000      0.000000      0.001478
      2.70787      2.70787      5.25544         0.000000      0.000000      0.001478
      7.95863      2.87284      5.25544        -0.000000      0.000000      0.001478
      2.87284      7.95863      5.25544         0.000000      0.000000      0.001478
      8.12361      8.12361      5.25544        -0.000000      0.000000      0.001478
      0.08249      2.62538      2.64833         0.000000      0.000000      0.001478
      5.33325      2.79036      2.64833         0.000000      0.000000      0.001478
      0.24746      7.87615      2.64833         0.000000      0.000000      0.001478
      5.49823      8.04112      2.64833         0.000000      0.000000      0.001478
 -----------------------------------------------------------------------------------
    total drift:                               -0.000000     -0.000000      0.013475


--------------------------------------------------------------------------------------------------------



  FREE ENERGIE OF THE ION-ELECTRON SYSTEM (eV)
  ---------------------------------------------------
  free  energy   TOTEN  =      -327.70211548 eV

  energy  without entropy=     -327.70211548  energy(sigma->0) =     -327.70211548
 


--------------------------------------------------------------------------------------------------------


    POTLOK:  cpu time    0.1611: real time    0.1619


--------------------------------------------------------------------------------------------------------


 writing wavefunctions
     LOOP+:  cpu time 2015.3459: real time 2273.7117
    4ORBIT:  cpu time    0.0000: real time    0.0000
 


 total charge     
 
# of ion       s       p       d       tot
------------------------------------------
    1        1.314   2.409   0.000   3.723
    2        1.314   2.409   0.000   3.723
    3        1.314   2.409   0.000   3.723
    4        1.314   2.409   0.000   3.723
    5        1.314   2.409   0.000   3.723
    6        1.314   2.409   0.000   3.723
    7        1.314   2.409   0.000   3.723
    8        1.314   2.409   0.000   3.723
    9        1.314   2.409   0.000   3.723
   10        1.314   2.409   0.000   3.723
   11        1.314   2.409   0.000   3.723
   12        1.314   2.409   0.000   3.723
   13        1.314   2.409   0.000   3.723
   14        1.314   2.409   0.000   3.723
   15        1.314   2.409   0.000   3.723
   16        1.314   2.409   0.000   3.723
   17        1.314   2.409   0.000   3.723
   18        1.314   2.409   0.000   3.723
   19        1.314   2.409   0.000   3.723
   20        1.314   2.409   0.000   3.723
   21        1.314   2.409   0.000   3.723
   22        1.314   2.409   0.000   3.723
   23        1.314   2.409   0.000   3.723
   24        1.314   2.409   0.000   3.723
   25        1.314   2.409   0.000   3.723
   26        1.314   2.409   0.000   3.723
   27        1.314   2.409   0.000   3.723
   28        1.314   2.409   0.000   3.723
   29        1.314   2.409   0.000   3.723
   30        1.314   2.409   0.000   3.723
   31        1.314   2.409   0.000   3.723
   32        1.314   2.409   0.000   3.723
   33        0.259   6.202   8.916  15.378
   34        0.259   6.202   8.916  15.378
   35        0.259   6.202   8.916  15.378
   36        0.259   6.202   8.916  15.378
   37        0.259   6.202   8.916  15.378
   38        0.259   6.202   8.916  15.378
   39        0.259   6.202   8.916  15.378
   40        0.259   6.202   8.916  15.378
   41        0.259   6.202   8.916  15.378
   42        0.259   6.202   8.916  15.378
   43        0.259   6.202   8.916  15.378
   44        0.259   6.202   8.916  15.378
   45        0.259   6.202   8.916  15.378
   46        0.259   6.202   8.916  15.378
   47        0.259   6.202   8.916  15.378
   48        0.259   6.202   8.916  15.378
   49        0.349   6.349   5.821  12.519
   50        0.349   6.349   5.821  12.519
   51        0.349   6.349   5.821  12.519
   52        0.349   6.349   5.821  12.519
   53        0.349   6.349   5.821  12.520
   54        0.349   6.349   5.821  12.520
   55        0.349   6.349   5.821  12.520
   56        0.349   6.349   5.821  12.520
   57        0.349   6.349   5.821  12.519
   58        0.349   6.349   5.821  12.519
   59        0.349   6.349   5.821  12.519
   60        0.349   6.349   5.821  12.519
   61        0.349   6.349   5.821  12.520
   62        0.349   6.349   5.821  12.520
   63        0.349   6.349   5.821  12.520
   64        0.349   6.349   5.821  12.520
--------------------------------------------------
tot         51.781 277.914 235.793 565.489
 


 magnetization (x)
 
# of ion       s       p       d       tot
------------------------------------------
    1       -0.001  -0.015   0.000  -0.016
    2       -0.001  -0.015   0.000  -0.016
    3       -0.001  -0.015   0.000  -0.016
    4       -0.001  -0.015   0.000  -0.016
    5       -0.001  -0.015   0.000  -0.016
    6       -0.001  -0.015   0.000  -0.016
    7       -0.001  -0.015   0.000  -0.016
    8       -0.001  -0.015   0.000  -0.016
    9        0.001   0.015   0.000   0.016
   10        0.001   0.015   0.000   0.016
   11        0.001   0.015   0.000   0.016
   12        0.001   0.015   0.000   0.016
   13        0.001   0.015   0.000   0.016
   14        0.001   0.015   0.000   0.016
   15        0.001   0.015   0.000   0.016
   16        0.001   0.015   0.000   0.016
   17       -0.001  -0.015   0.000  -0.016
   18       -0.001  -0.015   0.000  -0.016
   19       -0.001  -0.015   0.000  -0.016
   20       -0.001  -0.015   0.000  -0.016
   21       -0.001  -0.015   0.000  -0.016
   22       -0.001  -0.015   0.000  -0.016
   23       -0.001  -0.015   0.000  -0.016
   24       -0.001  -0.015   0.000  -0.016
   25        0.001   0.015   0.000   0.016
   26        0.001   0.015   0.000   0.016
   27        0.001   0.015   0.000   0.016
   28        0.001   0.015   0.000   0.016
   29        0.001   0.015   0.000   0.016
   30        0.001   0.015   0.000   0.016
   31        0.001   0.015   0.000   0.016
   32        0.001   0.015   0.000   0.016
   33        0.000   0.000   0.001   0.001
   34        0.000   0.000   0.001   0.001
   35        0.000   0.000   0.001   0.001
   36        0.000   0.000   0.001   0.001
   37       -0.000  -0.000  -0.001  -0.001
   38       -0.000  -0.000  -0.001  -0.001
   39       -0.000  -0.000  -0.001  -0.001
   40       -0.000  -0.000  -0.001  -0.001
   41        0.000   0.000   0.001   0.001
   42        0.000   0.000   0.001   0.001
   43        0.000   0.000   0.001   0.001
   44        0.000   0.000   0.001   0.001
   45       -0.000  -0.000  -0.001  -0.001
   46       -0.000  -0.000  -0.001  -0.001
   47       -0.000  -0.000  -0.001  -0.001
   48       -0.000  -0.000  -0.001  -0.001
   49        0.020   0.054   3.670   3.743
   50        0.020   0.054   3.670   3.743
   51        0.020   0.054   3.670   3.743
   52        0.020   0.054   3.670   3.743
   53       -0.020  -0.053  -3.670  -3.743
   54       -0.020  -0.053  -3.670  -3.743
   55       -0.020  -0.053  -3.670  -3.743
   56       -0.020  -0.053  -3.670  -3.743
   57        0.020   0.054   3.670   3.743
   58        0.020   0.054   3.670   3.743
   59        0.020   0.054   3.670   3.743
   60        0.020   0.054   3.670   3.743
   61       -0.020  -0.053  -3.670  -3.743
   62       -0.020  -0.053  -3.670  -3.743
   63       -0.020  -0.053  -3.670  -3.743
   64       -0.020  -0.053  -3.670  -3.743
--------------------------------------------------
tot         -0.001   0.002  -0.001  -0.001
 
 BZINTS: Fermi energy:  4.989622;688.000000 electrons
         Band energy:***********;  BLOECHL correction:  0.000000

 total amount of memory used by VASP MPI-rank0   300225. kBytes
=======================================================================

   base      :      30000. kBytes
   nonl-proj :     174956. kBytes
   fftplans  :       4588. kBytes
   grid      :      69719. kBytes
   one-center:       1990. kBytes
   wavefun   :      18972. kBytes
 
  
  
 General timing and accounting informations for this job:
 ========================================================
  
                  Total CPU time used (sec):     2065.871
                            User time (sec):     2053.901
                          System time (sec):       11.971
                         Elapsed time (sec):     2325.937
  
                   Maximum memory used (kb):      656212.
                   Average memory used (kb):           0.
  
                          Minor page faults:       530599
                          Major page faults:         5544
                 Voluntary context switches:         7905
