 vasp.5.4.4.18Apr17-6-g9f103f2a35 (build Oct 30 2023 17:30:16) complex          
  
 executed on             LinuxIFC date 2024.06.30  20:56:50
 running on  256 total cores
 distrk:  each k-point on  256 cores,    1 groups
 distr:  one band on NCORES_PER_BAND=   1 cores,  256 groups


--------------------------------------------------------------------------------------------------------


 INCAR:
 POTCAR:    PAW_PBE S 06Sep2000                   
 POTCAR:     PAW_PBE Cu_pv 06Sep2000              
 POTCAR:     PAW_PBE Fe_pv 02Aug2007              

 ----------------------------------------------------------------------------- 
|                                                                             |
|           W    W    AA    RRRRR   N    N  II  N    N   GGGG   !!!           |
|           W    W   A  A   R    R  NN   N  II  NN   N  G    G  !!!           |
|           W    W  A    A  R    R  N N  N  II  N N  N  G       !!!           |
|           W WW W  AAAAAA  RRRRR   N  N N  II  N  N N  G  GGG   !            |
|           WW  WW  A    A  R   R   N   NN  II  N   NN  G    G                |
|           W    W  A    A  R    R  N    N  II  N    N   GGGG   !!!           |
|                                                                             |
|      For optimal performance we recommend to set                            |
|        NCORE= 4 - approx SQRT( number of cores)                             |
|      NCORE specifies how many cores store one orbital (NPAR=cpu/NCORE).     |
|      This setting can  greatly improve the performance of VASP for DFT.     |
|      The default,   NCORE=1            might be grossly inefficient         |
|      on modern multi-core architectures or massively parallel machines.     |
|      Do your own testing !!!!                                               |
|      Unfortunately you need to use the default for GW and RPA calculations. |
|      (for HF NCORE is supported but not extensively tested yet)             |
|                                                                             |
 ----------------------------------------------------------------------------- 

 POTCAR:    PAW_PBE S 06Sep2000                   
   SHA256 =  0fc7481fb0695f01bdc6462160264c5c84044ae9ec85a907d398b887a2bc3132 S/
   COPYR  = (c) Copyright 06Sep2000 Georg Kresse                                
   COPYR  = This file is part of the software VASP. Any use, copying, and all ot
   COPYR  = If you do not have a valid VASP license, you may not use, copy or di
   VRHFIN =S : s2p4                                                             
   LEXCH  = PE                                                                  
   EATOM  =   276.8230 eV,   20.3459 Ry                                         
                                                                                
   TITEL  = PAW_PBE S 06Sep2000                                                 
   LULTRA =        F    use ultrasoft PP ?                                      
   IUNSCR =        1    unscreen: 0-lin 1-nonlin 2-no                           
   RPACOR =    1.500    partial core radius                                     
   POMASS =   32.066; ZVAL   =    6.000    mass and valenz                      
   RCORE  =    1.900    outmost cutoff radius                                   
   RWIGS  =    2.200; RWIGS  =    1.164    wigner-seitz radius (au A)           
   ENMAX  =  258.689; ENMIN  =  194.016 eV                                      
   ICORE  =        2    local potential                                         
   LCOR   =        T    correct aug charges                                     
   LPAW   =        T    paw PP                                                  
   EAUG   =  335.092                                                            
   DEXC   =    0.000                                                            
   RMAX   =    1.942    core radius for proj-oper                               
   RAUG   =    1.300    factor for augmentation sphere                          
   RDEP   =    1.954    radius for radial grids                                 
   RDEPT  =    1.744    core radius for aug-charge                              
                                                                                
   Atomic configuration                                                         
    6 entries                                                                   
     n  l   j            E        occ.                                          
     1  0  0.50     -2405.8406   2.0000                                         
     2  0  0.50      -211.7007   2.0000                                         
     2  1  1.50      -156.4958   6.0000                                         
     3  0  0.50       -17.2562   2.0000                                         
     3  1  0.50        -7.0085   4.0000                                         
     3  2  1.50        -6.8029   0.0000                                         
   Description                                                                  
     l       E           TYP  RCUT    TYP  RCUT                                 
     0    -17.2561641     23  1.900                                             
     0    -15.8743224     23  1.900                                             
     1     -7.0085400     23  1.900                                             
     1     -2.7779785     23  1.900                                             
     2     -6.8029130     23  1.900                                             
  local pseudopotential read in
  partial core-charges read in
  partial kinetic energy density read in
  atomic valenz-charges read in
  non local Contribution for L=           0  read in
    real space projection operators read in
  non local Contribution for L=           0  read in
    real space projection operators read in
  non local Contribution for L=           1  read in
    real space projection operators read in
  non local Contribution for L=           1  read in
    real space projection operators read in
    PAW grid and wavefunctions read in
 
   number of l-projection  operators is LMAX  =           4
   number of lm-projection operators is LMMAX =           8
 
 POTCAR:     PAW_PBE Cu_pv 06Sep2000              
   SHA256 =  cb7b504e2ea725fe1f25c85a9ac77d4012ce94cd394135b722c4e25ec297f1cb Cu
   COPYR  = (c) Copyright 06Sep2000 Georg Kresse                                
   COPYR  = This file is part of the software VASP. Any use, copying, and all ot
   COPYR  = If you do not have a valid VASP license, you may not use, copy or di
   VRHFIN =Cu: d10 p1                                                           
   LEXCH  = PE                                                                  
   EATOM  =  4120.1201 eV,  302.8203 Ry                                         
                                                                                
   TITEL  = PAW_PBE Cu_pv 06Sep2000                                             
   LULTRA =        F    use ultrasoft PP ?                                      
   IUNSCR =        1    unscreen: 0-lin 1-nonlin 2-no                           
   RPACOR =    1.500    partial core radius                                     
   POMASS =   63.546; ZVAL   =   17.000    mass and valenz                      
   RCORE  =    2.000    outmost cutoff radius                                   
   RWIGS  =    2.000; RWIGS  =    1.058    wigner-seitz radius (au A)           
   ENMAX  =  368.648; ENMIN  =  276.486 eV                                      
   RCLOC  =    1.304    cutoff for local pot                                    
   LCOR   =        T    correct aug charges                                     
   LPAW   =        T    paw PP                                                  
   EAUG   =  758.233                                                            
   DEXC   =    0.000                                                            
   RMAX   =    2.046    core radius for proj-oper                               
   RAUG   =    1.300    factor for augmentation sphere                          
   RDEP   =    2.025    radius for radial grids                                 
   RDEPT  =    1.558    core radius for aug-charge                              
                                                                                
   Atomic configuration                                                         
    8 entries                                                                   
     n  l   j            E        occ.                                          
     1  0  0.50     -8850.2467   2.0000                                         
     2  0  0.50     -1062.3498   2.0000                                         
     2  1  1.50      -916.8226   6.0000                                         
     3  0  0.50      -114.6929   2.0000                                         
     3  1  1.50       -72.1325   6.0000                                         
     3  2  2.50        -5.0394  10.0000                                         
     4  0  0.50        -4.6097   1.0000                                         
     4  3  2.50        -1.3606   0.0000                                         
   Description                                                                  
     l       E           TYP  RCUT    TYP  RCUT                                 
     1    -72.1324777     23  1.700                                             
     1     -1.3605826     23  1.700                                             
     2     -5.0393776     23  2.000                                             
     2     -6.3999602     23  2.000                                             
     0     -4.6097062     23  1.800                                             
     0     14.1620818     23  1.800                                             
  local pseudopotential read in
  partial core-charges read in
  partial kinetic energy density read in
  atomic valenz-charges read in
  non local Contribution for L=           1  read in
    real space projection operators read in
  non local Contribution for L=           1  read in
    real space projection operators read in
  non local Contribution for L=           2  read in
    real space projection operators read in
  non local Contribution for L=           2  read in
    real space projection operators read in
  non local Contribution for L=           0  read in
    real space projection operators read in
  non local Contribution for L=           0  read in
    real space projection operators read in
    PAW grid and wavefunctions read in
 
   number of l-projection  operators is LMAX  =           6
   number of lm-projection operators is LMMAX =          18
 
 POTCAR:     PAW_PBE Fe_pv 02Aug2007              
   SHA256 =  5d22e414b1f82158bf2c7ecb8b97b28fd0923e48cadc1c3bf74d524558f5dd32 Fe
   COPYR  = (c) Copyright 02Aug2007 Georg Kresse                                
   COPYR  = This file is part of the software VASP. Any use, copying, and all ot
   COPYR  = If you do not have a valid VASP license, you may not use, copy or di
   VRHFIN =Fe:  3pd7s1                                                          
   LEXCH  = PE                                                                  
   EATOM  =  2457.4239 eV,  180.6156 Ry                                         
                                                                                
   TITEL  = PAW_PBE Fe_pv 02Aug2007                                             
   LULTRA =        F    use ultrasoft PP ?                                      
   IUNSCR =        1    unscreen: 0-lin 1-nonlin 2-no                           
   RPACOR =    1.750    partial core radius                                     
   POMASS =   55.847; ZVAL   =   14.000    mass and valenz                      
   RCORE  =    2.200    outmost cutoff radius                                   
   RWIGS  =    2.200; RWIGS  =    1.164    wigner-seitz radius (au A)           
   ENMAX  =  293.238; ENMIN  =  219.928 eV                                      
   ICORE  =        3    local potential                                         
   LCOR   =        T    correct aug charges                                     
   LPAW   =        T    paw PP                                                  
   EAUG   =  578.342                                                            
   DEXC   =    0.000                                                            
   RMAX   =    2.249    core radius for proj-oper                               
   RAUG   =    1.300    factor for augmentation sphere                          
   RDEP   =    2.296    radius for radial grids                                 
   RDEPT  =    1.766    core radius for aug-charge                              
                                                                                
   Atomic configuration                                                         
    8 entries                                                                   
     n  l   j            E        occ.                                          
     1  0  0.50     -6993.8440   2.0000                                         
     2  0  0.50      -814.6047   2.0000                                         
     2  1  1.50      -693.3689   6.0000                                         
     3  0  0.50       -89.4732   2.0000                                         
     3  1  1.50       -55.6373   6.0000                                         
     3  2  2.50        -3.8151   7.0000                                         
     4  0  0.50        -4.2551   1.0000                                         
     4  3  2.50        -1.3606   0.0000                                         
   Description                                                                  
     l       E           TYP  RCUT    TYP  RCUT                                 
     1    -55.6372668     23  2.000                                             
     1     -5.4423304     23  2.000                                             
     2     -3.8151096     23  2.200                                             
     2     -5.1756922     23  2.200                                             
     0     -4.2550951     23  2.200                                             
     0     27.2116520     23  2.200                                             
     3     -1.3605826     23  2.200                                             
  local pseudopotential read in
  partial core-charges read in
  partial kinetic energy density read in
  atomic valenz-charges read in
  non local Contribution for L=           1  read in
    real space projection operators read in
  non local Contribution for L=           1  read in
    real space projection operators read in
  non local Contribution for L=           2  read in
    real space projection operators read in
  non local Contribution for L=           2  read in
    real space projection operators read in
  non local Contribution for L=           0  read in
    real space projection operators read in
  non local Contribution for L=           0  read in
    real space projection operators read in
    PAW grid and wavefunctions read in
 
   number of l-projection  operators is LMAX  =           6
   number of lm-projection operators is LMMAX =          18
 

 ----------------------------------------------------------------------------- 
|                                                                             |
|  ADVICE TO THIS USER RUNNING 'VASP/VAMP'   (HEAR YOUR MASTER'S VOICE ...):  |
|                                                                             |
|      You have a (more or less) 'large supercell' and for larger cells       |
|      it might be more efficient to use real space projection opertators     |
|      So try LREAL= Auto  in the INCAR   file.                               |
|      Mind:          For very  accurate calculation you might also keep the  |
|      reciprocal projection scheme          (i.e. LREAL=.FALSE.)             |
|                                                                             |
 ----------------------------------------------------------------------------- 


 ----------------------------------------------------------------------------- 
|                                                                             |
|  ADVICE TO THIS USER RUNNING 'VASP/VAMP'   (HEAR YOUR MASTER'S VOICE ...):  |
|                                                                             |
|      You enforced a specific xc-type in the INCAR file,                     |
|      a different type was found on the POTCAR file                          |
|          I HOPE YOU KNOW, WHAT YOU ARE  DOING                               |
|                                                                             |
 ----------------------------------------------------------------------------- 

  PAW_PBE S 06Sep2000                   :
 energy of atom  1       EATOM= -276.8230
 kinetic energy error for atom=    0.0007 (will be added to EATOM!!)
   PAW_PBE Cu_pv 06Sep2000              :
 energy of atom  2       EATOM=-4120.1201
 kinetic energy error for atom=    0.0094 (will be added to EATOM!!)
   PAW_PBE Fe_pv 02Aug2007              :
 energy of atom  3       EATOM=-2457.4239
 kinetic energy error for atom=    0.0025 (will be added to EATOM!!)
 
 
 POSCAR: Fe16 Cu16 S32                           
  positions in direct lattice
  No initial velocities read in
 exchange correlation table for  LEXCH =       14
   RHO(1)=    0.500       N(1)  =     2000
   RHO(2)=  100.500       N(2)  =     4000
 


--------------------------------------------------------------------------------------------------------


 ion  position               nearest neighbor table
   1  0.126  0.120  0.126-  41 2.25  61 2.26  37 2.27  49 2.29
   2  0.626  0.120  0.126-  42 2.25  62 2.26  38 2.27  50 2.29
   3  0.126  0.620  0.126-  43 2.25  63 2.26  39 2.27  51 2.29
   4  0.626  0.620  0.126-  44 2.25  64 2.26  40 2.27  52 2.29
   5  0.374  0.370  0.124-  39 2.25  52 2.26  41 2.27  62 2.29
   6  0.874  0.370  0.124-  40 2.25  51 2.26  42 2.27  61 2.29
   7  0.374  0.870  0.124-  37 2.25  50 2.26  43 2.27  64 2.29
   8  0.874  0.870  0.124-  38 2.25  49 2.26  44 2.27  63 2.29
   9  0.125  0.371  0.875-  41 2.27  45 2.27  51 2.27  55 2.27
  10  0.625  0.371  0.875-  42 2.27  46 2.27  52 2.27  56 2.27
  11  0.125  0.871  0.875-  43 2.27  47 2.27  49 2.27  53 2.27
  12  0.625  0.871  0.875-  44 2.27  48 2.27  50 2.27  54 2.27
  13  0.375  0.123  0.875-  41 2.26  46 2.26  50 2.29  53 2.29
  14  0.875  0.123  0.875-  42 2.26  45 2.26  49 2.29  54 2.29
  15  0.375  0.623  0.875-  43 2.26  48 2.26  52 2.29  55 2.29
  16  0.875  0.623  0.875-  44 2.26  47 2.26  51 2.29  56 2.29
  17  0.124  0.120  0.624-  45 2.25  57 2.26  33 2.27  53 2.29
  18  0.624  0.120  0.624-  46 2.25  58 2.26  34 2.27  54 2.29
  19  0.124  0.620  0.624-  47 2.25  59 2.26  35 2.27  55 2.29
  20  0.624  0.620  0.624-  48 2.25  60 2.26  36 2.27  56 2.29
  21  0.376  0.370  0.626-  36 2.25  55 2.26  46 2.27  57 2.29
  22  0.876  0.370  0.626-  35 2.25  56 2.26  45 2.27  58 2.29
  23  0.376  0.870  0.626-  34 2.25  53 2.26  48 2.27  59 2.29
  24  0.876  0.870  0.626-  33 2.25  54 2.26  47 2.27  60 2.29
  25  0.375  0.121  0.375-  34 2.27  37 2.27  57 2.27  62 2.27
  26  0.875  0.121  0.375-  33 2.27  38 2.27  58 2.27  61 2.27
  27  0.375  0.621  0.375-  36 2.27  39 2.27  59 2.27  64 2.27
  28  0.875  0.621  0.375-  35 2.27  40 2.27  60 2.27  63 2.27
  29  0.125  0.373  0.375-  35 2.26  39 2.26  57 2.29  61 2.29
  30  0.625  0.373  0.375-  36 2.26  40 2.26  58 2.29  62 2.29
  31  0.125  0.873  0.375-  33 2.26  37 2.26  59 2.29  63 2.29
  32  0.625  0.873  0.375-  34 2.26  38 2.26  60 2.29  64 2.29
  33  0.998  0.004  0.500-  24 2.25  31 2.26  26 2.27  17 2.27
  34  0.498  0.004  0.500-  23 2.25  32 2.26  25 2.27  18 2.27
  35  0.998  0.504  0.500-  22 2.25  29 2.26  28 2.27  19 2.27
  36  0.498  0.504  0.500-  21 2.25  30 2.26  27 2.27  20 2.27
  37  0.252  0.004  0.250-   7 2.25  31 2.26  25 2.27   1 2.27
  38  0.752  0.004  0.250-   8 2.25  32 2.26  26 2.27   2 2.27
  39  0.252  0.504  0.250-   5 2.25  29 2.26  27 2.27   3 2.27
  40  0.752  0.504  0.250-   6 2.25  30 2.26  28 2.27   4 2.27
  41  0.248  0.254  0.000-   1 2.25  13 2.26   9 2.27   5 2.27
  42  0.748  0.254  0.000-   2 2.25  14 2.26  10 2.27   6 2.27
  43  0.248  0.754  0.000-   3 2.25  15 2.26  11 2.27   7 2.27
  44  0.748  0.754  0.000-   4 2.25  16 2.26  12 2.27   8 2.27
  45  0.002  0.254  0.750-  17 2.25  14 2.26   9 2.27  22 2.27
  46  0.502  0.254  0.750-  18 2.25  13 2.26  10 2.27  21 2.27
  47  0.002  0.754  0.750-  19 2.25  16 2.26  11 2.27  24 2.27
  48  0.502  0.754  0.750-  20 2.25  15 2.26  12 2.27  23 2.27
  49  0.999  0.004  0.001-   8 2.26  11 2.27  14 2.29   1 2.29
  50  0.499  0.004  0.001-   7 2.26  12 2.27  13 2.29   2 2.29
  51  0.999  0.504  0.001-   6 2.26   9 2.27  16 2.29   3 2.29
  52  0.499  0.504  0.001-   5 2.26  10 2.27  15 2.29   4 2.29
  53  0.251  0.004  0.749-  23 2.26  11 2.27  13 2.29  17 2.29
  54  0.751  0.004  0.749-  24 2.26  12 2.27  14 2.29  18 2.29
  55  0.251  0.504  0.749-  21 2.26   9 2.27  15 2.29  19 2.29
  56  0.751  0.504  0.749-  22 2.26  10 2.27  16 2.29  20 2.29
  57  0.249  0.254  0.501-  17 2.26  25 2.27  29 2.29  21 2.29
  58  0.749  0.254  0.501-  18 2.26  26 2.27  30 2.29  22 2.29
  59  0.249  0.754  0.501-  19 2.26  27 2.27  31 2.29  23 2.29
  60  0.749  0.754  0.501-  20 2.26  28 2.27  32 2.29  24 2.29
  61  0.001  0.254  0.249-   1 2.26  26 2.27  29 2.29   6 2.29
  62  0.501  0.254  0.249-   2 2.26  25 2.27  30 2.29   5 2.29
  63  0.001  0.754  0.249-   3 2.26  28 2.27  31 2.29   8 2.29
  64  0.501  0.754  0.249-   4 2.26  27 2.27  32 2.29   7 2.29
 
  LATTYP: Found a simple monoclinic cell.
 ALAT       =    15.3953382019
 B/A-ratio  =     0.6838389558
 C/A-ratio  =     1.5644458273
 COS(beta)  =    -0.9558442232
  
  Lattice vectors:
  
 A1 = ( -10.9362960000,   0.0000000000, -10.8357680000)
 A2 = (   0.0000000000, -10.5279320000,   0.0000000000)
 A3 = (  11.3720300000,   0.0000000000,  21.2314030000)


Analysis of symmetry for initial positions (statically):
=====================================================================
 Subroutine PRICEL returns following result:
 
  LATTYP: Found a base centered monoclinic cell.
 ALAT       =    11.2570891936
 B/A-ratio  =     0.4676134220
 C/A-ratio  =     0.9242853751
 COS(beta)  =    -0.8018815577
  
  Lattice vectors:
  
 A1 = (  -2.4072735000,  -2.6319830000,   5.0877842500)
 A2 = (  -2.4072735000,   2.6319830000,   5.0877842500)
 A3 = (  -0.4357340000,   0.0000000000, -10.3956350000)
 
   8 primitive cells build up your supercell.
 

 Routine SETGRP: Setting up the symmetry group for a 
 simple monoclinic supercell.


 Subroutine GETGRP returns: Found  2 space group operations
 (whereof  1 operations were pure point group operations)
 out of a pool of  4 trial point group operations.


The static configuration has the point symmetry C_1 .
 The point group associated with its full space group is C_2 .


Analysis of symmetry for dynamics (positions and initial velocities):
=====================================================================
 Subroutine PRICEL returns following result:
 
  LATTYP: Found a base centered monoclinic cell.
 ALAT       =    11.2570891936
 B/A-ratio  =     0.4676134220
 C/A-ratio  =     0.9242853751
 COS(beta)  =    -0.8018815577
  
  Lattice vectors:
  
 A1 = (  -2.4072735000,  -2.6319830000,   5.0877842500)
 A2 = (  -2.4072735000,   2.6319830000,   5.0877842500)
 A3 = (  -0.4357340000,   0.0000000000, -10.3956350000)
 
   8 primitive cells build up your supercell.
 

 Routine SETGRP: Setting up the symmetry group for a 
 simple monoclinic supercell.


 Subroutine GETGRP returns: Found  2 space group operations
 (whereof  1 operations were pure point group operations)
 out of a pool of  4 trial point group operations.


The dynamic configuration has the point symmetry C_1 .
 The point group associated with its full space group is C_2 .


Analysis of structural, dynamic, and magnetic symmetry:
=====================================================================
 Subroutine PRICEL returns following result:
 
  LATTYP: Found a base centered monoclinic cell.
 ALAT       =    11.2570891936
 B/A-ratio  =     0.4676134220
 C/A-ratio  =     0.9242853751
 COS(beta)  =    -0.8018815577
  
  Lattice vectors:
  
 A1 = (  -2.4072735000,  -2.6319830000,   5.0877842500)
 A2 = (  -2.4072735000,   2.6319830000,   5.0877842500)
 A3 = (  -0.4357340000,   0.0000000000, -10.3956350000)
 
   8 primitive cells build up your supercell.
 

 Routine SETGRP: Setting up the symmetry group for a 
 simple monoclinic supercell.


 Subroutine GETGRP returns: Found  2 space group operations
 (whereof  1 operations were pure point group operations)
 out of a pool of  4 trial point group operations.


The magnetic configuration has the point symmetry C_1 .
 The point group associated with its full space group is C_2 .


 Subroutine INISYM returns: Found  2 space group operations
 (whereof  1 operations are pure point group operations),
 and found     8 'primitive' translations

 
 
 KPOINTS: Automatic mesh                          

Automatic generation of k-mesh.
Space group operators:
 irot       det(A)        alpha          n_x          n_y          n_z        tau_x        tau_y        tau_z
    1     1.000000     0.000000     1.000000     0.000000     0.000000     0.000000     0.000000     0.000000
    2     1.000000   180.000000     0.000000     1.000000     0.000000    -0.250000     0.000000    -0.250000
 
 Subroutine IBZKPT returns following result:
 ===========================================
 
 Found      8 irreducible k-points:
 
 Following reciprocal coordinates:
            Coordinates               Weight
  0.000000  0.000000  0.000000      1.000000
  0.500000  0.000000  0.000000      1.000000
  0.000000  0.500000  0.000000      1.000000
  0.500000  0.500000  0.000000      1.000000
 -0.000000  0.000000  0.500000      1.000000
  0.500000  0.000000  0.500000      1.000000
 -0.000000  0.500000  0.500000      1.000000
  0.500000  0.500000  0.500000      1.000000
 
 Following cartesian coordinates:
            Coordinates               Weight
  0.000000  0.000000  0.000000      1.000000
  0.047700  0.000000 -0.001999      1.000000
  0.000000  0.047493  0.000000      1.000000
  0.047700  0.047493 -0.001999      1.000000
 -0.002020  0.000000  0.048182      1.000000
  0.045681  0.000000  0.046182      1.000000
 -0.002020  0.047493  0.048182      1.000000
  0.045681  0.047493  0.046182      1.000000
 
 TETIRR: Found     24 inequivalent tetrahedra from       48
 
 Subroutine IBZKPT_HF returns following result:
 ==============================================
 
 Found      8 k-points in 1st BZ
 the following      8 k-points will be used (e.g. in the exchange kernel)
 Following reciprocal coordinates:   # in IRBZ
  0.000000  0.000000  0.000000    0.12500000   1 t-inv F
  0.500000  0.000000  0.000000    0.12500000   2 t-inv F
  0.000000  0.500000  0.000000    0.12500000   3 t-inv F
  0.500000  0.500000  0.000000    0.12500000   4 t-inv F
 -0.000000  0.000000  0.500000    0.12500000   5 t-inv F
  0.500000  0.000000  0.500000    0.12500000   6 t-inv F
 -0.000000  0.500000  0.500000    0.12500000   7 t-inv F
  0.500000  0.500000  0.500000    0.12500000   8 t-inv F


--------------------------------------------------------------------------------------------------------




 Dimension of arrays:
   k-points           NKPTS =      8   k-points in BZ     NKDIM =      8   number of bands    NBANDS=    512
   number of dos      NEDOS =    301   number of ions     NIONS =     64
   non local maximal  LDIM  =      6   non local SUM 2l+1 LMDIM =     18
   total plane-waves  NPLWV = 829440
   max r-space proj   IRMAX =      1   max aug-charges    IRDMAX=  22975
   dimension x,y,z NGX =    96 NGY =   96 NGZ =   90
   dimension x,y,z NGXF=   192 NGYF=  192 NGZF=  180
   support grid    NGXF=   192 NGYF=  192 NGZF=  180
   ions per type =              32  16  16
   NGX,Y,Z   is equivalent  to a cutoff of  15.19, 15.16, 14.38 a.u.
   NGXF,Y,Z  is equivalent  to a cutoff of  30.37, 30.32, 28.76 a.u.

 SYSTEM =  CuFeS2                                  
 POSCAR =  Fe16 Cu16 S32                           

 Startparameter for this run:
   NWRITE =      2    write-flag & timer
   PREC   = accura    normal or accurate (medium, high low for compatibility)
   ISTART =      0    job   : 0-new  1-cont  2-samecut
   ICHARG =      1    charge: 1-file 2-atom 10-const
   ISPIN  =      2    spin polarized calculation?
   LNONCOLLINEAR =      F non collinear calculations
   LSORBIT =      F    spin-orbit coupling
   INIWAV =      1    electr: 0-lowe 1-rand  2-diag
   LASPH  =      F    aspherical Exc in radial PAW
   METAGGA=      F    non-selfconsistent MetaGGA calc.

 Electronic Relaxation 1
   ENCUT  =  700.0 eV  51.45 Ry    7.17 a.u.  22.67 22.71 22.45*2*pi/ulx,y,z
   ENINI  =  700.0     initial cutoff
   ENAUG  =  758.2 eV  augmentation charge cutoff
   NELM   =    500;   NELMIN=  2; NELMDL= -5     # of ELM steps 
   EDIFF  = 0.1E-07   stopping-criterion for ELM
   LREAL  =      F    real-space projection
   NLSPLINE    = F    spline interpolate recip. space projectors
   LCOMPAT=      F    compatible to vasp.4.4
   GGA_COMPAT  = T    GGA compatible to vasp.4.4-vasp.4.6
   LMAXPAW     = -100 max onsite density
   LMAXMIX     =    4 max onsite mixed and CHGCAR
   VOSKOWN=      0    Vosko Wilk Nusair interpolation
   ROPT   =    0.00000   0.00000   0.00000
 Ionic relaxation
   EDIFFG = -.1E-04   stopping-criterion for IOM
   NSW    =      0    number of steps for IOM
   NBLOCK =      1;   KBLOCK =      1    inner block; outer block 
   IBRION =     -1    ionic relax: 0-MD 1-quasi-New 2-CG
   NFREE  =      0    steps in history (QN), initial steepest desc. (CG)
   ISIF   =      2    stress and relaxation
   IWAVPR =     10    prediction:  0-non 1-charg 2-wave 3-comb
   ISYM   =      2    0-nonsym 1-usesym 2-fastsym
   LCORR  =      T    Harris-Foulkes like correction to forces

   POTIM  = 0.5000    time-step for ionic-motion
   TEIN   =    0.0    initial temperature
   TEBEG  =    0.0;   TEEND  =   0.0 temperature during run
   SMASS  =  -3.00    Nose mass-parameter (am)
   estimated Nose-frequenzy (Omega)   =  0.10E-29 period in steps =****** mass=  -0.252E-26a.u.
   SCALEE = 1.0000    scale energy and forces
   NPACO  =    256;   APACO  = 16.0  distance and # of slots for P.C.
   PSTRESS=    0.0 pullay stress

  Mass of Ions in am
   POMASS =  32.07 63.55 55.85
  Ionic Valenz
   ZVAL   =   6.00 17.00 14.00
  Atomic Wigner-Seitz radii
   RWIGS  =  -1.00 -1.00 -1.00
  virtual crystal weights 
   VCA    =   1.00  1.00  1.00
   NELECT =     688.0000    total number of electrons
   NUPDOWN=      -1.0000    fix difference up-down

 DOS related values:
   EMIN   =  10.00;   EMAX   =-10.00  energy-range for DOS
   EFERMI =   0.00
   ISMEAR =    -5;   SIGMA  =   0.03  broadening in eV -4-tet -1-fermi 0-gaus

 Electronic relaxation 2 (details)
   IALGO  =     38    algorithm
   LDIAG  =      T    sub-space diagonalisation (order eigenvalues)
   LSUBROT=      F    optimize rotation matrix (better conditioning)
   TURBO    =      0    0=normal 1=particle mesh
   IRESTART =      0    0=no restart 2=restart with 2 vectors
   NREBOOT  =      0    no. of reboots
   NMIN     =      0    reboot dimension
   EREF     =   0.00    reference energy to select bands
   IMIX   =      4    mixing-type and parameters
     AMIX     =   0.40;   BMIX     =  1.00
     AMIX_MAG =   1.60;   BMIX_MAG =  1.00
     AMIN     =   0.10
     WC   =   100.;   INIMIX=   1;  MIXPRE=   1;  MAXMIX= -45

 Intra band minimization:
   WEIMIN = 0.0000     energy-eigenvalue tresh-hold
   EBREAK =  0.49E-11  absolut break condition
   DEPER  =   0.30     relativ break condition  

   TIME   =   0.40     timestep for ELM

  volume/ion in A,a.u.               =      17.93       120.96
  Fermi-wavevector in a.u.,A,eV,Ry     =   1.380564  2.608888 25.932132  1.905958
  Thomas-Fermi vector in A             =   2.505430
 
 Write flags
   LWAVE        =      T    write WAVECAR
   LDOWNSAMPLE  =      F    k-point downsampling of WAVECAR
   LCHARG       =      T    write CHGCAR
   LVTOT        =      F    write LOCPOT, total local potential
   LVHAR        =      F    write LOCPOT, Hartree potential only
   LELF         =      F    write electronic localiz. function (ELF)
   LORBIT       =     11    0 simple, 1 ext, 2 COOP (PROOUT), +10 PAW based schemes


 Dipole corrections
   LMONO  =      F    monopole corrections only (constant potential shift)
   LDIPOL =      F    correct potential (dipole corrections)
   IDIPOL =      0    1-x, 2-y, 3-z, 4-all directions 
   EPSILON=  1.0000000 bulk dielectric constant

 LDA+U is selected, type is set to LDAUTYPE =  2
   angular momentum for each species LDAUL =     2    2    2
   U (eV)           for each species LDAUU =   0.0  0.1  4.7
   J (eV)           for each species LDAUJ =   0.0  0.0  0.0
 Exchange correlation treatment:
   GGA     =    PS    GGA type
   LEXCH   =    14    internal setting for exchange type
   VOSKOWN=      0    Vosko Wilk Nusair interpolation
   LHFCALC =     F    Hartree Fock is set to
   LHFONE  =     F    Hartree Fock one center treatment
   AEXX    =    0.0000 exact exchange contribution

 Linear response parameters
   LEPSILON=     F    determine dielectric tensor
   LRPA    =     F    only Hartree local field effects (RPA)
   LNABLA  =     F    use nabla operator in PAW spheres
   LVEL    =     F    velocity operator in full k-point grid
   LINTERFAST=   F  fast interpolation
   KINTER  =     0    interpolate to denser k-point grid
   CSHIFT  =0.1000    complex shift for real part using Kramers Kronig
   OMEGAMAX=  -1.0    maximum frequency
   DEG_THRESHOLD= 0.2000000E-02 threshold for treating states as degnerate
   RTIME   =   -0.100 relaxation time in fs
  (WPLASMAI=    0.000 imaginary part of plasma frequency in eV, 0.658/RTIME)
   DFIELD  = 0.0000000 0.0000000 0.0000000 field for delta impulse in time
 
 Orbital magnetization related:
   ORBITALMAG=     F  switch on orbital magnetization
   LCHIMAG   =     F  perturbation theory with respect to B field
   DQ        =  0.001000  dq finite difference perturbation B field
   LLRAUG    =     F  two centre corrections for induced B field

 PEAD related settings:
   LPEAD      =     T    switch on PEAD
   IPEAD      =     4    finite difference order for dpsi/dk
   LCALCPOL   =     T    calculate macroscopic polarization
   LCALCEPS   =     F    calculate dielectric tensor
   EFIELD_PEAD=    0.0000    0.0000    0.0000
   SKIP_EDOTP =     F
   LRPA       =     F
   SKIP_SCF   =     F


--------------------------------------------------------------------------------------------------------


 Static calculation
 charge density and potential will be updated during run
 spin polarized calculation
 Variant of blocked Davidson
 Davidson routine will perform the subspace rotation
 perform sub-space diagonalisation
    after iterative eigenvector-optimisation
 modified Broyden-mixing scheme, WC =      100.0
 initial mixing is a Kerker type mixing with AMIX =  0.4000 and BMIX =      1.0000
 Hartree-type preconditioning will be used
 using additional bands          168
 reciprocal scheme for non local part
 use partial core corrections
 calculate Harris-corrections to forces 
   (improved forces if not selfconsistent)
 use gradient corrections 
 use of overlap-Matrix (Vanderbilt PP)
 Fermi weights with tetrahedron method with Bloechl corrections


--------------------------------------------------------------------------------------------------------


  energy-cutoff  :      700.00
  volume of cell :     1147.21
      direct lattice vectors                 reciprocal lattice vectors
    10.500562000  0.000000000  0.440133000     0.095400605  0.000000000 -0.003998725
     0.000000000 10.527932000  0.000000000     0.000000000  0.094985416  0.000000000
     0.435734000  0.000000000 10.395635000    -0.004039095  0.000000000  0.096363519

  length of vectors
    10.509782080 10.527932000 10.404762908     0.095484372  0.094985416  0.096448132


 
 k-points in units of 2pi/SCALE and weight: Automatic mesh                          
   0.00000000  0.00000000  0.00000000       0.125
   0.04770030  0.00000000 -0.00199936       0.125
   0.00000000  0.04749271  0.00000000       0.125
   0.04770030  0.04749271 -0.00199936       0.125
  -0.00201955  0.00000000  0.04818176       0.125
   0.04568076  0.00000000  0.04618240       0.125
  -0.00201955  0.04749271  0.04818176       0.125
   0.04568076  0.04749271  0.04618240       0.125
 
 k-points in reciprocal lattice and weights: Automatic mesh                          
   0.00000000  0.00000000  0.00000000       0.125
   0.50000000  0.00000000  0.00000000       0.125
   0.00000000  0.50000000  0.00000000       0.125
   0.50000000  0.50000000  0.00000000       0.125
  -0.00000000  0.00000000  0.50000000       0.125
   0.50000000  0.00000000  0.50000000       0.125
  -0.00000000  0.50000000  0.50000000       0.125
   0.50000000  0.50000000  0.50000000       0.125
 
 position of ions in fractional coordinates (direct lattice) 
   0.12643700  0.11956500  0.12579100
   0.62643700  0.11956500  0.12579100
   0.12643700  0.61956500  0.12579100
   0.62643700  0.61956500  0.12579100
   0.37356300  0.36956500  0.12420900
   0.87356300  0.36956500  0.12420900
   0.37356300  0.86956500  0.12420900
   0.87356300  0.86956500  0.12420900
   0.12500000  0.37091300  0.87500000
   0.62500000  0.37091300  0.87500000
   0.12500000  0.87091300  0.87500000
   0.62500000  0.87091300  0.87500000
   0.37500000  0.12250400  0.87500000
   0.87500000  0.12250400  0.87500000
   0.37500000  0.62250400  0.87500000
   0.87500000  0.62250400  0.87500000
   0.12356300  0.11956500  0.62420900
   0.62356300  0.11956500  0.62420900
   0.12356300  0.61956500  0.62420900
   0.62356300  0.61956500  0.62420900
   0.37643700  0.36956500  0.62579100
   0.87643700  0.36956500  0.62579100
   0.37643700  0.86956500  0.62579100
   0.87643700  0.86956500  0.62579100
   0.37500000  0.12091300  0.37500000
   0.87500000  0.12091300  0.37500000
   0.37500000  0.62091300  0.37500000
   0.87500000  0.62091300  0.37500000
   0.12500000  0.37250400  0.37500000
   0.62500000  0.37250400  0.37500000
   0.12500000  0.87250400  0.37500000
   0.62500000  0.87250400  0.37500000
   0.99790500  0.00440900  0.50001900
   0.49790500  0.00440900  0.50001900
   0.99790500  0.50440900  0.50001900
   0.49790500  0.50440900  0.50001900
   0.25209500  0.00440900  0.24998100
   0.75209500  0.00440900  0.24998100
   0.25209500  0.50440900  0.24998100
   0.75209500  0.50440900  0.24998100
   0.24790500  0.25440900  0.00001900
   0.74790500  0.25440900  0.00001900
   0.24790500  0.75440900  0.00001900
   0.74790500  0.75440900  0.00001900
   0.00209500  0.25440900  0.74998100
   0.50209500  0.25440900  0.74998100
   0.00209500  0.75440900  0.74998100
   0.50209500  0.75440900  0.74998100
   0.99874400  0.00431800  0.00077400
   0.49874400  0.00431800  0.00077400
   0.99874400  0.50431800  0.00077400
   0.49874400  0.50431800  0.00077400
   0.25125600  0.00431800  0.74922600
   0.75125600  0.00431800  0.74922600
   0.25125600  0.50431800  0.74922600
   0.75125600  0.50431800  0.74922600
   0.24874400  0.25431800  0.50077400
   0.74874400  0.25431800  0.50077400
   0.24874400  0.75431800  0.50077400
   0.74874400  0.75431800  0.50077400
   0.00125600  0.25431800  0.24922600
   0.50125600  0.25431800  0.24922600
   0.00125600  0.75431800  0.24922600
   0.50125600  0.75431800  0.24922600
 
 position of ions in cartesian coordinates  (Angst):
   1.38247097  1.25877219  1.36332642
   6.63275197  1.25877219  1.58339292
   1.38247097  6.52273819  1.36332642
   6.63275197  6.52273819  1.58339292
   3.97674353  3.89075519  1.45564883
   9.22702453  3.89075519  1.67571533
   3.97674353  9.15472119  1.45564883
   9.22702453  9.15472119  1.67571533
   1.69383750  3.90494684  9.15119725
   6.94411850  3.90494684  9.37126375
   1.69383750  9.16891284  9.15119725
   6.94411850  9.16891284  9.37126375
   4.31897800  1.28971378  9.26123050
   9.56925900  1.28971378  9.48129700
   4.31897800  6.55367978  9.26123050
   9.56925900  6.55367978  9.48129700
   1.56947003  1.25877219  6.54343308
   6.81975103  1.25877219  6.76349958
   1.56947003  6.52273819  6.54343308
   6.81975103  6.52273819  6.76349958
   4.22547847  3.89075519  6.67117717
   9.47575947  3.89075519  6.89124367
   4.22547847  9.15472119  6.67117717
   9.47575947  9.15472119  6.89124367
   4.10111100  1.27296384  4.06341300
   9.35139200  1.27296384  4.28347950
   4.10111100  6.53692984  4.06341300
   9.35139200  6.53692984  4.28347950
   1.47597050  3.92169678  3.95337975
   6.72625150  3.92169678  4.17344625
   1.47597050  9.18566278  3.95337975
   6.72625150  9.18566278  4.17344625
  10.69643860  0.04641765  5.63722594
   5.44615760  0.04641765  5.41715944
  10.69643860  5.31038365  5.63722594
   5.44615760  5.31038365  5.41715944
   2.75606440  0.04641765  2.70966656
   8.00634540  0.04641765  2.92973306
   2.75606440  5.31038365  2.70966656
   8.00634540  5.31038365  2.92973306
   2.60315010  2.67840065  0.10930869
   7.85343110  2.67840065  0.32937519
   2.60315010  7.94236665  0.10930869
   7.85343110  7.94236665  0.32937519
   0.34879090  2.67840065  7.79745081
   5.59907190  2.67840065  8.01751731
   0.34879090  7.94236665  7.79745081
   5.59907190  7.94236665  8.01751731
  10.48771055  0.04545961  0.44762641
   5.23742955  0.04545961  0.22755991
  10.48771055  5.30942561  0.44762641
   5.23742955  5.30942561  0.22755991
   2.96479245  0.04545961  7.89926609
   8.21507345  0.04545961  8.11933259
   2.96479245  5.30942561  7.89926609
   8.21507345  5.30942561  8.11933259
   2.83015605  2.67744261  5.31534416
   8.08043705  2.67744261  5.53541066
   2.83015605  7.94140861  5.31534416
   8.08043705  7.94140861  5.53541066
   0.12178495  2.67744261  2.59141534
   5.37206595  2.67744261  2.81148184
   0.12178495  7.94140861  2.59141534
   5.37206595  7.94140861  2.81148184
 


--------------------------------------------------------------------------------------------------------


 k-point  1 :   0.0000 0.0000 0.0000  plane waves:   48289
 k-point  2 :   0.5000 0.0000 0.0000  plane waves:   48242
 k-point  3 :   0.0000 0.5000 0.0000  plane waves:   48290
 k-point  4 :   0.5000 0.5000 0.0000  plane waves:   48256
 k-point  5 :  -0.0000 0.0000 0.5000  plane waves:   48280
 k-point  6 :   0.5000 0.0000 0.5000  plane waves:   48244
 k-point  7 :  -0.0000 0.5000 0.5000  plane waves:   48180
 k-point  8 :   0.5000 0.5000 0.5000  plane waves:   48220

 maximum and minimum number of plane-waves per node :     48290    48180

 maximum number of plane-waves:     48290
 maximum index in each direction: 
   IXMAX=   22   IYMAX=   22   IZMAX=   22
   IXMIN=  -23   IYMIN=  -23   IZMIN=  -22


 serial   3D FFT for wavefunctions
 parallel 3D FFT for charge:
    minimum data exchange during FFTs selected (reduces bandwidth)


 total amount of memory used by VASP MPI-rank0   348353. kBytes
=======================================================================

   base      :      30000. kBytes
   nonl-proj :     216760. kBytes
   fftplans  :       4588. kBytes
   grid      :      69719. kBytes
   one-center:       1990. kBytes
   wavefun   :      25296. kBytes
 
     INWAV:  cpu time    0.0001: real time    0.0002
 Broyden mixing: mesh for mixing (old mesh)
   NGX = 45   NGY = 45   NGZ = 45
  (NGX  =192   NGY  =192   NGZ  =180)
  gives a total of  91125 points

 initial charge density was supplied:
 number of electron     687.9999838 magnetization      -0.0000000
 keeping initial charge density in first step


--------------------------------------------------------------------------------------------------------


 Maximum index for augmentation-charges          898 (set IRDMAX)


--------------------------------------------------------------------------------------------------------


 First call to EWALD:  gamma=   0.169
 Maximum number of real-space cells 3x 3x 3
 Maximum number of reciprocal cells 3x 3x 3

    FEWALD:  cpu time    0.0029: real time    0.0029


--------------------------------------- Iteration      1(   1)  ---------------------------------------


    POTLOK:  cpu time    0.3845: real time    0.4397
    SETDIJ:  cpu time    0.0158: real time    0.0159
     EDDAV:  cpu time   83.5935: real time   84.2984
 BZINTS: Fermi energy: 14.829758;688.000000 electrons
         Band energy:***********;  BLOECHL correction: -0.027316
       DOS:  cpu time    0.0415: real time    0.0418
    --------------------------------------------
      LOOP:  cpu time   84.0354: real time   84.7959

 eigenvalue-minimisations  : 16384
 total energy-change (2. order) : 0.6039192E+04  (-0.5171912E+05)
 number of electron     687.9999838 magnetization      -0.0000000
 augmentation part      687.9999838 magnetization      -0.0000000

 Free energy of the ion-electron system (eV)
  ---------------------------------------------------
  alpha Z        PSCENC =      2363.25546170
  Ewald energy   TEWEN  =    -62558.68734465
  -Hartree energ DENC   =    -42769.51697125
  -exchange      EXHF   =         0.00000000
  -V(xc)+E(xc)   XCENC  =      3282.20734167
  PAW double counting   =    112095.85910443  -115786.62766005
  entropy T*S    EENTRO =         0.00000000
  eigenvalues    EBANDS =     -4607.36259797
  atomic energy  EATOM  =    114020.06510763
  Solvation  Ediel_sol  =         0.00000000
  ---------------------------------------------------
  free energy    TOTEN  =      6039.19244151 eV

  energy without entropy =     6039.19244151  energy(sigma->0) =     6039.19244151


--------------------------------------------------------------------------------------------------------




--------------------------------------- Iteration      1(   2)  ---------------------------------------


     EDDAV:  cpu time  110.0461: real time  110.8772
 BZINTS: Fermi energy:  5.329337;688.000000 electrons
         Band energy:***********;  BLOECHL correction:  0.000000
       DOS:  cpu time    0.0054: real time    0.0055
    --------------------------------------------
      LOOP:  cpu time  110.0515: real time  110.8826

 eigenvalue-minimisations  : 19200
 total energy-change (2. order) :-0.6141491E+04  (-0.6032786E+04)
 number of electron     687.9999838 magnetization      -0.0000000
 augmentation part      687.9999838 magnetization      -0.0000000

 Free energy of the ion-electron system (eV)
  ---------------------------------------------------
  alpha Z        PSCENC =      2363.25546170
  Ewald energy   TEWEN  =    -62558.68734465
  -Hartree energ DENC   =    -42769.51697125
  -exchange      EXHF   =         0.00000000
  -V(xc)+E(xc)   XCENC  =      3282.20734167
  PAW double counting   =    112095.85910443  -115786.62766005
  entropy T*S    EENTRO =         0.00000000
  eigenvalues    EBANDS =    -10748.85338939
  atomic energy  EATOM  =    114020.06510763
  Solvation  Ediel_sol  =         0.00000000
  ---------------------------------------------------
  free energy    TOTEN  =      -102.29834992 eV

  energy without entropy =     -102.29834992  energy(sigma->0) =     -102.29834992


--------------------------------------------------------------------------------------------------------




--------------------------------------- Iteration      1(   3)  ---------------------------------------


     EDDAV:  cpu time  140.7104: real time  141.7131
 BZINTS: Fermi energy:  4.978636;688.000000 electrons
         Band energy:***********;  BLOECHL correction:  0.000000
       DOS:  cpu time    0.0062: real time    0.0063
    --------------------------------------------
      LOOP:  cpu time  140.7166: real time  141.7193

 eigenvalue-minimisations  : 21760
 total energy-change (2. order) :-0.2362248E+03  (-0.2356106E+03)
 number of electron     687.9999838 magnetization      -0.0000000
 augmentation part      687.9999838 magnetization      -0.0000000

 Free energy of the ion-electron system (eV)
  ---------------------------------------------------
  alpha Z        PSCENC =      2363.25546170
  Ewald energy   TEWEN  =    -62558.68734465
  -Hartree energ DENC   =    -42769.51697125
  -exchange      EXHF   =         0.00000000
  -V(xc)+E(xc)   XCENC  =      3282.20734167
  PAW double counting   =    112095.85910443  -115786.62766005
  entropy T*S    EENTRO =         0.00000000
  eigenvalues    EBANDS =    -10985.07814208
  atomic energy  EATOM  =    114020.06510763
  Solvation  Ediel_sol  =         0.00000000
  ---------------------------------------------------
  free energy    TOTEN  =      -338.52310260 eV

  energy without entropy =     -338.52310260  energy(sigma->0) =     -338.52310260


--------------------------------------------------------------------------------------------------------




--------------------------------------- Iteration      1(   4)  ---------------------------------------


     EDDAV:  cpu time  144.8603: real time  145.8731
 BZINTS: Fermi energy:  4.932470;688.000000 electrons
         Band energy:***********;  BLOECHL correction:  0.000000
       DOS:  cpu time    0.0053: real time    0.0053
    --------------------------------------------
      LOOP:  cpu time  144.8656: real time  145.8783

 eigenvalue-minimisations  : 21504
 total energy-change (2. order) :-0.3305454E+01  (-0.3305311E+01)
 number of electron     687.9999838 magnetization      -0.0000000
 augmentation part      687.9999838 magnetization      -0.0000000

 Free energy of the ion-electron system (eV)
  ---------------------------------------------------
  alpha Z        PSCENC =      2363.25546170
  Ewald energy   TEWEN  =    -62558.68734465
  -Hartree energ DENC   =    -42769.51697125
  -exchange      EXHF   =         0.00000000
  -V(xc)+E(xc)   XCENC  =      3282.20734167
  PAW double counting   =    112095.85910443  -115786.62766005
  entropy T*S    EENTRO =         0.00000000
  eigenvalues    EBANDS =    -10988.38359609
  atomic energy  EATOM  =    114020.06510763
  Solvation  Ediel_sol  =         0.00000000
  ---------------------------------------------------
  free energy    TOTEN  =      -341.82855661 eV

  energy without entropy =     -341.82855661  energy(sigma->0) =     -341.82855661


--------------------------------------------------------------------------------------------------------




--------------------------------------- Iteration      1(   5)  ---------------------------------------


     EDDAV:  cpu time  125.4136: real time  126.3327
 BZINTS: Fermi energy:  4.901629;688.000000 electrons
         Band energy:***********;  BLOECHL correction:  0.000000
       DOS:  cpu time    0.0052: real time    0.0052
    CHARGE:  cpu time    1.3860: real time    1.3962
    MIXING:  cpu time    0.0024: real time    0.0025
    --------------------------------------------
      LOOP:  cpu time  126.8072: real time  127.7366

 eigenvalue-minimisations  : 19968
 total energy-change (2. order) :-0.1048441E+00  (-0.1048437E+00)
 number of electron     688.0000062 magnetization      -0.0000000
 augmentation part      284.1448225 magnetization      -0.0000000

 Broyden mixing:
  rms(total) = 0.29390E+01    rms(broyden)= 0.29386E+01
  rms(prec ) = 0.33001E+01
  weight for this iteration     100.00

 Free energy of the ion-electron system (eV)
  ---------------------------------------------------
  alpha Z        PSCENC =      2363.25546170
  Ewald energy   TEWEN  =    -62558.68734465
  -Hartree energ DENC   =    -42769.51697125
  -exchange      EXHF   =         0.00000000
  -V(xc)+E(xc)   XCENC  =      3282.20734167
  PAW double counting   =    112095.85910443  -115786.62766005
  entropy T*S    EENTRO =         0.00000000
  eigenvalues    EBANDS =    -10988.48844014
  atomic energy  EATOM  =    114020.06510763
  Solvation  Ediel_sol  =         0.00000000
  ---------------------------------------------------
  free energy    TOTEN  =      -341.93340066 eV

  energy without entropy =     -341.93340066  energy(sigma->0) =     -341.93340066


--------------------------------------------------------------------------------------------------------




--------------------------------------- Iteration      1(   6)  ---------------------------------------


    POTLOK:  cpu time    0.1235: real time    0.1244
    SETDIJ:  cpu time    0.0128: real time    0.0128
     EDDAV:  cpu time  199.9643: real time  201.3195
 BZINTS: Fermi energy:  5.041981;688.000000 electrons
         Band energy:***********;  BLOECHL correction:  0.000000
       DOS:  cpu time    0.0052: real time    0.0052
    CHARGE:  cpu time    1.3769: real time    1.3869
    MIXING:  cpu time    0.0025: real time    0.0131
    --------------------------------------------
      LOOP:  cpu time  201.4852: real time  202.8620

 eigenvalue-minimisations  : 27648
 total energy-change (2. order) : 0.1092325E+02  (-0.1288465E+01)
 number of electron     688.0000062 magnetization      -0.0000000
 augmentation part      280.9495959 magnetization      -0.0000000

 Broyden mixing:
  rms(total) = 0.16370E+01    rms(broyden)= 0.16370E+01
  rms(prec ) = 0.18271E+01
  weight for this iteration     100.00

 eigenvalues of (default mixing * dielectric matrix)
  average eigenvalue GAMMA=   0.7987
  0.7987

 Free energy of the ion-electron system (eV)
  ---------------------------------------------------
  alpha Z        PSCENC =      2363.25546170
  Ewald energy   TEWEN  =    -62558.68734465
  -Hartree energ DENC   =    -42959.92992540
  -exchange      EXHF   =         0.00000000
  -V(xc)+E(xc)   XCENC  =      3287.65912088
  PAW double counting   =    113399.20379701  -117112.93633516
  entropy T*S    EENTRO =         0.00000000
  eigenvalues    EBANDS =    -10769.64002792
  atomic energy  EATOM  =    114020.06510763
  Solvation  Ediel_sol  =         0.00000000
  ---------------------------------------------------
  free energy    TOTEN  =      -331.01014593 eV

  energy without entropy =     -331.01014593  energy(sigma->0) =     -331.01014593


--------------------------------------------------------------------------------------------------------




--------------------------------------- Iteration      1(   7)  ---------------------------------------


    POTLOK:  cpu time    0.1222: real time    0.1236
    SETDIJ:  cpu time    0.0128: real time    0.0128
     EDDAV:  cpu time  111.4469: real time  112.2911
 BZINTS: Fermi energy:  4.914335;688.000000 electrons
         Band energy:***********;  BLOECHL correction:  0.000000
       DOS:  cpu time    0.0059: real time    0.0059
    CHARGE:  cpu time    1.3811: real time    1.3911
    MIXING:  cpu time    0.0015: real time    0.0037
    --------------------------------------------
      LOOP:  cpu time  112.9704: real time  113.8282

 eigenvalue-minimisations  : 19200
 total energy-change (2. order) : 0.2954327E+01  (-0.8127334E+00)
 number of electron     688.0000062 magnetization      -0.0000000
 augmentation part      283.1030613 magnetization      -0.0000000

 Broyden mixing:
  rms(total) = 0.11273E+01    rms(broyden)= 0.11273E+01
  rms(prec ) = 0.12055E+01
  weight for this iteration     100.00

 eigenvalues of (default mixing * dielectric matrix)
  average eigenvalue GAMMA=   0.9836
  1.4331  0.5341

 Free energy of the ion-electron system (eV)
  ---------------------------------------------------
  alpha Z        PSCENC =      2363.25546170
  Ewald energy   TEWEN  =    -62558.68734465
  -Hartree energ DENC   =    -42827.14576125
  -exchange      EXHF   =         0.00000000
  -V(xc)+E(xc)   XCENC  =      3284.83562008
  PAW double counting   =    112980.47936711  -116665.15504715
  entropy T*S    EENTRO =         0.00000000
  eigenvalues    EBANDS =    -10925.70322209
  atomic energy  EATOM  =    114020.06510763
  Solvation  Ediel_sol  =         0.00000000
  ---------------------------------------------------
  free energy    TOTEN  =      -328.05581862 eV

  energy without entropy =     -328.05581862  energy(sigma->0) =     -328.05581862


--------------------------------------------------------------------------------------------------------




--------------------------------------- Iteration      1(   8)  ---------------------------------------


    POTLOK:  cpu time    0.1211: real time    0.1224
    SETDIJ:  cpu time    0.0127: real time    0.0128
     EDDAV:  cpu time  202.6509: real time  204.0241
 BZINTS: Fermi energy:  4.981401;688.000000 electrons
         Band energy:***********;  BLOECHL correction:  0.000000
       DOS:  cpu time    0.0059: real time    0.0060
    CHARGE:  cpu time    1.4701: real time    1.4808
    MIXING:  cpu time    0.0017: real time    0.0028
    --------------------------------------------
      LOOP:  cpu time  204.2625: real time  205.6489

 eigenvalue-minimisations  : 27904
 total energy-change (2. order) : 0.5510405E+00  (-0.5537156E+00)
 number of electron     688.0000062 magnetization      -0.0000000
 augmentation part      282.7462271 magnetization      -0.0000000

 Broyden mixing:
  rms(total) = 0.65770E+00    rms(broyden)= 0.65768E+00
  rms(prec ) = 0.77277E+00
  weight for this iteration     100.00

 eigenvalues of (default mixing * dielectric matrix)
  average eigenvalue GAMMA=   0.9402
  1.6542  0.5833  0.5833

 Free energy of the ion-electron system (eV)
  ---------------------------------------------------
  alpha Z        PSCENC =      2363.25546170
  Ewald energy   TEWEN  =    -62558.68734465
  -Hartree energ DENC   =    -42888.90684448
  -exchange      EXHF   =         0.00000000
  -V(xc)+E(xc)   XCENC  =      3287.03466004
  PAW double counting   =    112729.79565539  -116422.41529628
  entropy T*S    EENTRO =         0.00000000
  eigenvalues    EBANDS =    -10857.64617749
  atomic energy  EATOM  =    114020.06510763
  Solvation  Ediel_sol  =         0.00000000
  ---------------------------------------------------
  free energy    TOTEN  =      -327.50477814 eV

  energy without entropy =     -327.50477814  energy(sigma->0) =     -327.50477814


--------------------------------------------------------------------------------------------------------




--------------------------------------- Iteration      1(   9)  ---------------------------------------


    POTLOK:  cpu time    0.1331: real time    0.1342
    SETDIJ:  cpu time    0.0167: real time    0.0168
     EDDAV:  cpu time  142.0838: real time  143.0837
 BZINTS: Fermi energy:  4.942957;688.000000 electrons
         Band energy:***********;  BLOECHL correction:  0.000000
       DOS:  cpu time    0.0059: real time    0.0059
    CHARGE:  cpu time    1.3813: real time    1.3918
    MIXING:  cpu time    0.0014: real time    0.0014
    --------------------------------------------
      LOOP:  cpu time  143.6222: real time  144.6337

 eigenvalue-minimisations  : 21760
 total energy-change (2. order) : 0.1117920E+00  (-0.3571785E+00)
 number of electron     688.0000062 magnetization      -0.0000000
 augmentation part      282.3013432 magnetization      -0.0000000

 Broyden mixing:
  rms(total) = 0.48340E+00    rms(broyden)= 0.48338E+00
  rms(prec ) = 0.52844E+00
  weight for this iteration     100.00

 eigenvalues of (default mixing * dielectric matrix)
  average eigenvalue GAMMA=   0.8750
  1.9185  0.7198  0.4309  0.4309

 Free energy of the ion-electron system (eV)
  ---------------------------------------------------
  alpha Z        PSCENC =      2363.25546170
  Ewald energy   TEWEN  =    -62558.68734465
  -Hartree energ DENC   =    -42887.65257604
  -exchange      EXHF   =         0.00000000
  -V(xc)+E(xc)   XCENC  =      3286.11768374
  PAW double counting   =    112689.23463816  -116383.20944447
  entropy T*S    EENTRO =         0.00000000
  eigenvalues    EBANDS =    -10856.51651222
  atomic energy  EATOM  =    114020.06510763
  Solvation  Ediel_sol  =         0.00000000
  ---------------------------------------------------
  free energy    TOTEN  =      -327.39298615 eV

  energy without entropy =     -327.39298615  energy(sigma->0) =     -327.39298615


--------------------------------------------------------------------------------------------------------




--------------------------------------- Iteration      1(  10)  ---------------------------------------


    POTLOK:  cpu time    0.1216: real time    0.1225
    SETDIJ:  cpu time    0.0127: real time    0.0128
     EDDAV:  cpu time  143.8391: real time  144.8448
 BZINTS: Fermi energy:  4.963425;688.000000 electrons
         Band energy:***********;  BLOECHL correction:  0.000000
       DOS:  cpu time    0.0059: real time    0.0059
    CHARGE:  cpu time    1.3803: real time    1.3900
    MIXING:  cpu time    0.0015: real time    0.0015
    --------------------------------------------
      LOOP:  cpu time  145.3610: real time  146.3774

 eigenvalue-minimisations  : 21504
 total energy-change (2. order) : 0.4295047E-01  (-0.6394489E-01)
 number of electron     688.0000062 magnetization       0.0000000
 augmentation part      282.1228296 magnetization       0.0000000

 Broyden mixing:
  rms(total) = 0.18287E+00    rms(broyden)= 0.18287E+00
  rms(prec ) = 0.19101E+00
  weight for this iteration     100.00

 eigenvalues of (default mixing * dielectric matrix)
  average eigenvalue GAMMA=   0.9747
  1.7808  1.5689  0.6337  0.5352  0.3550

 Free energy of the ion-electron system (eV)
  ---------------------------------------------------
  alpha Z        PSCENC =      2363.25546170
  Ewald energy   TEWEN  =    -62558.68734465
  -Hartree energ DENC   =    -42906.53567286
  -exchange      EXHF   =         0.00000000
  -V(xc)+E(xc)   XCENC  =      3286.85542855
  PAW double counting   =    112622.97081855  -116317.83599651
  entropy T*S    EENTRO =         0.00000000
  eigenvalues    EBANDS =    -10837.43783809
  atomic energy  EATOM  =    114020.06510763
  Solvation  Ediel_sol  =         0.00000000
  ---------------------------------------------------
  free energy    TOTEN  =      -327.35003569 eV

  energy without entropy =     -327.35003569  energy(sigma->0) =     -327.35003569


--------------------------------------------------------------------------------------------------------




--------------------------------------- Iteration      1(  11)  ---------------------------------------


    POTLOK:  cpu time    0.1200: real time    0.1235
    SETDIJ:  cpu time    0.0127: real time    0.0127
     EDDAV:  cpu time  158.2333: real time  159.3352
 BZINTS: Fermi energy:  4.954593;688.000000 electrons
         Band energy:***********;  BLOECHL correction:  0.000000
       DOS:  cpu time    0.0059: real time    0.0060
    CHARGE:  cpu time    1.3840: real time    1.3938
    MIXING:  cpu time    0.0015: real time    0.0015
    --------------------------------------------
      LOOP:  cpu time  159.7574: real time  160.8728

 eigenvalue-minimisations  : 23808
 total energy-change (2. order) :-0.1027096E-01  (-0.1091857E-01)
 number of electron     688.0000062 magnetization       0.0000000
 augmentation part      282.2540486 magnetization       0.0000000

 Broyden mixing:
  rms(total) = 0.84833E-01    rms(broyden)= 0.84832E-01
  rms(prec ) = 0.88331E-01
  weight for this iteration     100.00

 eigenvalues of (default mixing * dielectric matrix)
  average eigenvalue GAMMA=   1.0938
  2.0918  2.0918  0.8094  0.6152  0.6152  0.3395

 Free energy of the ion-electron system (eV)
  ---------------------------------------------------
  alpha Z        PSCENC =      2363.25546170
  Ewald energy   TEWEN  =    -62558.68734465
  -Hartree energ DENC   =    -42895.31188055
  -exchange      EXHF   =         0.00000000
  -V(xc)+E(xc)   XCENC  =      3286.47716752
  PAW double counting   =    112417.93055076  -116110.46180397
  entropy T*S    EENTRO =         0.00000000
  eigenvalues    EBANDS =    -10850.62756508
  atomic energy  EATOM  =    114020.06510763
  Solvation  Ediel_sol  =         0.00000000
  ---------------------------------------------------
  free energy    TOTEN  =      -327.36030665 eV

  energy without entropy =     -327.36030665  energy(sigma->0) =     -327.36030665


--------------------------------------------------------------------------------------------------------




--------------------------------------- Iteration      1(  12)  ---------------------------------------


    POTLOK:  cpu time    0.1196: real time    0.1229
    SETDIJ:  cpu time    0.0128: real time    0.0129
     EDDAV:  cpu time  170.1671: real time  171.3174
 BZINTS: Fermi energy:  4.956905;688.000000 electrons
         Band energy:***********;  BLOECHL correction:  0.000000
       DOS:  cpu time    0.0059: real time    0.0059
    CHARGE:  cpu time    1.3802: real time    1.3903
    MIXING:  cpu time    0.0017: real time    0.0017
    --------------------------------------------
      LOOP:  cpu time  171.6872: real time  172.8509

 eigenvalue-minimisations  : 23552
 total energy-change (2. order) :-0.7372802E-02  (-0.2821351E-02)
 number of electron     688.0000062 magnetization       0.0000000
 augmentation part      282.2254572 magnetization       0.0000000

 Broyden mixing:
  rms(total) = 0.33562E-01    rms(broyden)= 0.33561E-01
  rms(prec ) = 0.35201E-01
  weight for this iteration     100.00

 eigenvalues of (default mixing * dielectric matrix)
  average eigenvalue GAMMA=   1.1018
  2.2380  2.2380  1.0333  0.3385  0.5962  0.5962  0.6722

 Free energy of the ion-electron system (eV)
  ---------------------------------------------------
  alpha Z        PSCENC =      2363.25546170
  Ewald energy   TEWEN  =    -62558.68734465
  -Hartree energ DENC   =    -42898.47090008
  -exchange      EXHF   =         0.00000000
  -V(xc)+E(xc)   XCENC  =      3286.56350026
  PAW double counting   =    112300.32590034  -115993.36869945
  entropy T*S    EENTRO =         0.00000000
  eigenvalues    EBANDS =    -10847.05070520
  atomic energy  EATOM  =    114020.06510763
  Solvation  Ediel_sol  =         0.00000000
  ---------------------------------------------------
  free energy    TOTEN  =      -327.36767945 eV

  energy without entropy =     -327.36767945  energy(sigma->0) =     -327.36767945


--------------------------------------------------------------------------------------------------------




--------------------------------------- Iteration      1(  13)  ---------------------------------------


    POTLOK:  cpu time    0.1199: real time    0.1223
    SETDIJ:  cpu time    0.0129: real time    0.0129
     EDDAV:  cpu time  109.8129: real time  110.6244
 BZINTS: Fermi energy:  4.955882;688.000000 electrons
         Band energy:***********;  BLOECHL correction:  0.000000
       DOS:  cpu time    0.0059: real time    0.0059
    CHARGE:  cpu time    1.3829: real time    1.3933
    MIXING:  cpu time    0.0017: real time    0.0017
    --------------------------------------------
      LOOP:  cpu time  111.3362: real time  112.1604

 eigenvalue-minimisations  : 18432
 total energy-change (2. order) :-0.1453163E-02  (-0.3543110E-03)
 number of electron     688.0000062 magnetization       0.0000000
 augmentation part      282.2399598 magnetization       0.0000000

 Broyden mixing:
  rms(total) = 0.17377E-01    rms(broyden)= 0.17377E-01
  rms(prec ) = 0.18427E-01
  weight for this iteration     100.00

 eigenvalues of (default mixing * dielectric matrix)
  average eigenvalue GAMMA=   1.0994
  2.2661  2.2661  1.0345  1.0345  0.3384  0.5933  0.5933  0.6688

 Free energy of the ion-electron system (eV)
  ---------------------------------------------------
  alpha Z        PSCENC =      2363.25546170
  Ewald energy   TEWEN  =    -62558.68734465
  -Hartree energ DENC   =    -42897.36902818
  -exchange      EXHF   =         0.00000000
  -V(xc)+E(xc)   XCENC  =      3286.54747651
  PAW double counting   =    112258.40379662  -115951.20891127
  entropy T*S    EENTRO =         0.00000000
  eigenvalues    EBANDS =    -10848.37569097
  atomic energy  EATOM  =    114020.06510763
  Solvation  Ediel_sol  =         0.00000000
  ---------------------------------------------------
  free energy    TOTEN  =      -327.36913261 eV

  energy without entropy =     -327.36913261  energy(sigma->0) =     -327.36913261


--------------------------------------------------------------------------------------------------------




--------------------------------------- Iteration      1(  14)  ---------------------------------------


    POTLOK:  cpu time    0.1198: real time    0.1234
    SETDIJ:  cpu time    0.0128: real time    0.0128
     EDDAV:  cpu time  165.9087: real time  167.0294
 BZINTS: Fermi energy:  4.955800;688.000000 electrons
         Band energy:***********;  BLOECHL correction:  0.000000
       DOS:  cpu time    0.0059: real time    0.0059
    CHARGE:  cpu time    1.3802: real time    1.3903
    MIXING:  cpu time    0.0017: real time    0.0017
    --------------------------------------------
      LOOP:  cpu time  167.4292: real time  168.5635

 eigenvalue-minimisations  : 23040
 total energy-change (2. order) :-0.6084027E-03  (-0.1465754E-03)
 number of electron     688.0000062 magnetization       0.0000000
 augmentation part      282.2362184 magnetization       0.0000000

 Broyden mixing:
  rms(total) = 0.99588E-02    rms(broyden)= 0.99583E-02
  rms(prec ) = 0.10379E-01
  weight for this iteration     100.00

 eigenvalues of (default mixing * dielectric matrix)
  average eigenvalue GAMMA=   1.1889
  2.4370  2.4370  1.4526  1.4526  0.3384  0.5918  0.5918  0.7401  0.6593

 Free energy of the ion-electron system (eV)
  ---------------------------------------------------
  alpha Z        PSCENC =      2363.25546170
  Ewald energy   TEWEN  =    -62558.68734465
  -Hartree energ DENC   =    -42897.70651992
  -exchange      EXHF   =         0.00000000
  -V(xc)+E(xc)   XCENC  =      3286.56029333
  PAW double counting   =    112242.86547366  -115935.80929738
  entropy T*S    EENTRO =         0.00000000
  eigenvalues    EBANDS =    -10847.91291538
  atomic energy  EATOM  =    114020.06510763
  Solvation  Ediel_sol  =         0.00000000
  ---------------------------------------------------
  free energy    TOTEN  =      -327.36974101 eV

  energy without entropy =     -327.36974101  energy(sigma->0) =     -327.36974101


--------------------------------------------------------------------------------------------------------




--------------------------------------- Iteration      1(  15)  ---------------------------------------


    POTLOK:  cpu time    0.1213: real time    0.1228
    SETDIJ:  cpu time    0.0127: real time    0.0127
     EDDAV:  cpu time  120.1451: real time  121.0119
 BZINTS: Fermi energy:  4.955662;688.000000 electrons
         Band energy:***********;  BLOECHL correction:  0.000000
       DOS:  cpu time    0.0059: real time    0.0059
    CHARGE:  cpu time    1.3804: real time    1.3903
    MIXING:  cpu time    0.0017: real time    0.0017
    --------------------------------------------
      LOOP:  cpu time  121.6672: real time  122.5453

 eigenvalue-minimisations  : 19200
 total energy-change (2. order) :-0.3764267E-03  (-0.1020435E-03)
 number of electron     688.0000062 magnetization       0.0000000
 augmentation part      282.2347176 magnetization       0.0000000

 Broyden mixing:
  rms(total) = 0.46728E-02    rms(broyden)= 0.46721E-02
  rms(prec ) = 0.49684E-02
  weight for this iteration     100.00

 eigenvalues of (default mixing * dielectric matrix)
  average eigenvalue GAMMA=   1.1992
  2.6928  2.3392  1.8038  1.1483  1.1483  0.3384  0.5921  0.5921  0.7047  0.6321

 Free energy of the ion-electron system (eV)
  ---------------------------------------------------
  alpha Z        PSCENC =      2363.25546170
  Ewald energy   TEWEN  =    -62558.68734465
  -Hartree energ DENC   =    -42897.72636072
  -exchange      EXHF   =         0.00000000
  -V(xc)+E(xc)   XCENC  =      3286.55787683
  PAW double counting   =    112233.62150701  -115926.56789782
  entropy T*S    EENTRO =         0.00000000
  eigenvalues    EBANDS =    -10847.88846743
  atomic energy  EATOM  =    114020.06510763
  Solvation  Ediel_sol  =         0.00000000
  ---------------------------------------------------
  free energy    TOTEN  =      -327.37011744 eV

  energy without entropy =     -327.37011744  energy(sigma->0) =     -327.37011744


--------------------------------------------------------------------------------------------------------




--------------------------------------- Iteration      1(  16)  ---------------------------------------


    POTLOK:  cpu time    0.1191: real time    0.1228
    SETDIJ:  cpu time    0.0128: real time    0.0129
     EDDAV:  cpu time  149.4503: real time  150.4778
 BZINTS: Fermi energy:  4.955476;688.000000 electrons
         Band energy:***********;  BLOECHL correction:  0.000000
       DOS:  cpu time    0.0059: real time    0.0059
    CHARGE:  cpu time    1.3823: real time    1.3921
    MIXING:  cpu time    0.0019: real time    0.0027
    --------------------------------------------
      LOOP:  cpu time  150.9724: real time  152.0141

 eigenvalue-minimisations  : 21504
 total energy-change (2. order) :-0.1025952E-03  (-0.2617946E-04)
 number of electron     688.0000062 magnetization       0.0000000
 augmentation part      282.2383778 magnetization       0.0000000

 Broyden mixing:
  rms(total) = 0.30002E-02    rms(broyden)= 0.29999E-02
  rms(prec ) = 0.31731E-02
  weight for this iteration     100.00

 eigenvalues of (default mixing * dielectric matrix)
  average eigenvalue GAMMA=   1.2727
  3.0885  2.1881  2.1881  1.3852  1.3852  0.9156  0.3384  0.5913  0.5913  0.7045
  0.6232

 Free energy of the ion-electron system (eV)
  ---------------------------------------------------
  alpha Z        PSCENC =      2363.25546170
  Ewald energy   TEWEN  =    -62558.68734465
  -Hartree energ DENC   =    -42897.56332013
  -exchange      EXHF   =         0.00000000
  -V(xc)+E(xc)   XCENC  =      3286.55696715
  PAW double counting   =    112231.52608281  -115924.44371886
  entropy T*S    EENTRO =         0.00000000
  eigenvalues    EBANDS =    -10848.07945568
  atomic energy  EATOM  =    114020.06510763
  Solvation  Ediel_sol  =         0.00000000
  ---------------------------------------------------
  free energy    TOTEN  =      -327.37022004 eV

  energy without entropy =     -327.37022004  energy(sigma->0) =     -327.37022004


--------------------------------------------------------------------------------------------------------




--------------------------------------- Iteration      1(  17)  ---------------------------------------


    POTLOK:  cpu time    0.1194: real time    0.1233
    SETDIJ:  cpu time    0.0126: real time    0.0127
     EDDAV:  cpu time  113.3956: real time  114.2213
 BZINTS: Fermi energy:  4.955453;688.000000 electrons
         Band energy:***********;  BLOECHL correction:  0.000000
       DOS:  cpu time    0.0059: real time    0.0059
    CHARGE:  cpu time    1.3807: real time    1.3908
    MIXING:  cpu time    0.0019: real time    0.0019
    --------------------------------------------
      LOOP:  cpu time  114.9162: real time  115.7559

 eigenvalue-minimisations  : 18688
 total energy-change (2. order) :-0.6115998E-04  (-0.3004341E-04)
 number of electron     688.0000062 magnetization      -0.0000000
 augmentation part      282.2377314 magnetization      -0.0000000

 Broyden mixing:
  rms(total) = 0.15588E-02    rms(broyden)= 0.15582E-02
  rms(prec ) = 0.16633E-02
  weight for this iteration     100.00

 eigenvalues of (default mixing * dielectric matrix)
  average eigenvalue GAMMA=   1.3566
  3.9804  2.3457  2.3457  1.5102  1.5102  1.0173  0.3384  0.5924  0.5924  0.7458
  0.6851  0.6151

 Free energy of the ion-electron system (eV)
  ---------------------------------------------------
  alpha Z        PSCENC =      2363.25546170
  Ewald energy   TEWEN  =    -62558.68734465
  -Hartree energ DENC   =    -42897.61736593
  -exchange      EXHF   =         0.00000000
  -V(xc)+E(xc)   XCENC  =      3286.55915839
  PAW double counting   =    112232.56456628  -115925.50070581
  entropy T*S    EENTRO =         0.00000000
  eigenvalues    EBANDS =    -10848.00915880
  atomic energy  EATOM  =    114020.06510763
  Solvation  Ediel_sol  =         0.00000000
  ---------------------------------------------------
  free energy    TOTEN  =      -327.37028120 eV

  energy without entropy =     -327.37028120  energy(sigma->0) =     -327.37028120


--------------------------------------------------------------------------------------------------------




--------------------------------------- Iteration      1(  18)  ---------------------------------------


    POTLOK:  cpu time    0.1203: real time    0.1219
    SETDIJ:  cpu time    0.0127: real time    0.0127
     EDDAV:  cpu time  145.9837: real time  146.9960
 BZINTS: Fermi energy:  4.955360;688.000000 electrons
         Band energy:***********;  BLOECHL correction:  0.000000
       DOS:  cpu time    0.0059: real time    0.0059
    CHARGE:  cpu time    1.3817: real time    1.3914
    MIXING:  cpu time    0.0021: real time    0.0022
    --------------------------------------------
      LOOP:  cpu time  147.5064: real time  148.5301

 eigenvalue-minimisations  : 21248
 total energy-change (2. order) :-0.1079704E-04  (-0.7663853E-05)
 number of electron     688.0000062 magnetization      -0.0000000
 augmentation part      282.2372627 magnetization      -0.0000000

 Broyden mixing:
  rms(total) = 0.73319E-03    rms(broyden)= 0.73277E-03
  rms(prec ) = 0.77374E-03
  weight for this iteration     100.00

 eigenvalues of (default mixing * dielectric matrix)
  average eigenvalue GAMMA=   1.3393
  4.2058  2.3955  2.3955  1.7071  1.1827  1.1827  0.3384  0.8388  0.5921  0.5921
  0.7305  0.6247  0.6247

 Free energy of the ion-electron system (eV)
  ---------------------------------------------------
  alpha Z        PSCENC =      2363.25546170
  Ewald energy   TEWEN  =    -62558.68734465
  -Hartree energ DENC   =    -42897.60521967
  -exchange      EXHF   =         0.00000000
  -V(xc)+E(xc)   XCENC  =      3286.55778039
  PAW double counting   =    112233.84000387  -115926.77063457
  entropy T*S    EENTRO =         0.00000000
  eigenvalues    EBANDS =    -10848.02544669
  atomic energy  EATOM  =    114020.06510763
  Solvation  Ediel_sol  =         0.00000000
  ---------------------------------------------------
  free energy    TOTEN  =      -327.37029199 eV

  energy without entropy =     -327.37029199  energy(sigma->0) =     -327.37029199


--------------------------------------------------------------------------------------------------------




--------------------------------------- Iteration      1(  19)  ---------------------------------------


    POTLOK:  cpu time    0.1193: real time    0.1232
    SETDIJ:  cpu time    0.0126: real time    0.0127
     EDDAV:  cpu time  125.9189: real time  126.8184
 BZINTS: Fermi energy:  4.955309;688.000000 electrons
         Band energy:***********;  BLOECHL correction:  0.000000
       DOS:  cpu time    0.0059: real time    0.0059
    CHARGE:  cpu time    1.3804: real time    1.3903
    MIXING:  cpu time    0.0021: real time    0.0021
    --------------------------------------------
      LOOP:  cpu time  127.4393: real time  128.3526

 eigenvalue-minimisations  : 19456
 total energy-change (2. order) :-0.8187635E-06  (-0.3226499E-06)
 number of electron     688.0000062 magnetization      -0.0000000
 augmentation part      282.2373658 magnetization      -0.0000000

 Broyden mixing:
[...]
   -.408E+02 0.306E+02 -.194E+01   0.416E+02 -.308E+02 0.196E+01   -.828E+00 0.189E+00 -.240E-01   -.634E-06 0.883E-05 0.449E-07
   -.408E+02 0.306E+02 -.194E+01   0.416E+02 -.308E+02 0.196E+01   -.828E+00 0.189E+00 -.240E-01   -.624E-06 0.883E-05 0.432E-07
   -.408E+02 0.306E+02 -.194E+01   0.416E+02 -.308E+02 0.196E+01   -.828E+00 0.189E+00 -.240E-01   -.634E-06 0.885E-05 0.449E-07
   -.408E+02 0.306E+02 -.194E+01   0.416E+02 -.308E+02 0.196E+01   -.828E+00 0.189E+00 -.240E-01   -.624E-06 0.885E-05 0.432E-07
   0.408E+02 0.306E+02 0.194E+01   -.416E+02 -.308E+02 -.196E+01   0.828E+00 0.189E+00 0.240E-01   0.629E-06 0.884E-05 -.451E-07
   0.408E+02 0.306E+02 0.194E+01   -.416E+02 -.308E+02 -.196E+01   0.828E+00 0.189E+00 0.240E-01   0.629E-06 0.884E-05 -.451E-07
   0.408E+02 0.306E+02 0.194E+01   -.416E+02 -.308E+02 -.196E+01   0.828E+00 0.189E+00 0.240E-01   0.629E-06 0.884E-05 -.429E-07
   0.408E+02 0.306E+02 0.194E+01   -.416E+02 -.308E+02 -.196E+01   0.828E+00 0.189E+00 0.240E-01   0.629E-06 0.884E-05 -.429E-07
   -.246E-07 -.216E+02 -.227E-06   0.000E+00 0.223E+02 0.426E-13   -.207E-24 -.700E+00 0.145E-23   0.328E-09 0.754E-05 0.121E-08
   -.246E-07 -.216E+02 -.227E-06   -.178E-14 0.223E+02 -.338E-13   -.253E-23 -.700E+00 -.207E-24   -.347E-09 0.754E-05 -.121E-08
   -.246E-07 -.216E+02 -.227E-06   0.000E+00 0.223E+02 0.284E-13   0.517E-25 -.700E+00 0.620E-24   0.328E-09 0.756E-05 0.121E-08
   -.246E-07 -.216E+02 -.227E-06   0.284E-13 0.223E+02 0.711E-14   0.147E-23 -.700E+00 0.620E-24   -.347E-09 0.756E-05 -.121E-08
   0.128E-07 0.640E+02 0.240E-07   0.551E-13 -.650E+02 0.790E-13   0.155E-24 0.102E+01 -.724E-24   -.649E-08 0.159E-04 0.265E-09
   0.128E-07 0.640E+02 0.240E-07   0.497E-13 -.650E+02 0.888E-13   -.511E-24 0.102E+01 0.569E-24   0.651E-08 0.159E-04 -.265E-09
   0.128E-07 0.640E+02 0.240E-07   0.497E-13 -.650E+02 0.103E-12   0.326E-24 0.102E+01 0.362E-24   -.649E-08 0.159E-04 0.265E-09
   0.128E-07 0.640E+02 0.240E-07   0.568E-13 -.650E+02 0.114E-12   0.215E-24 0.102E+01 -.724E-24   0.651E-08 0.159E-04 -.265E-09
   0.477E+01 -.279E+02 0.349E+01   -.472E+01 0.268E+02 -.357E+01   -.468E-01 0.111E+01 0.672E-01   0.634E-06 0.870E-05 0.161E-05
   0.477E+01 -.279E+02 0.349E+01   -.472E+01 0.268E+02 -.357E+01   -.468E-01 0.111E+01 0.672E-01   0.659E-06 0.870E-05 0.161E-05
   0.477E+01 -.279E+02 0.349E+01   -.472E+01 0.268E+02 -.357E+01   -.468E-01 0.111E+01 0.672E-01   0.635E-06 0.872E-05 0.161E-05
   0.477E+01 -.279E+02 0.349E+01   -.472E+01 0.268E+02 -.357E+01   -.468E-01 0.111E+01 0.672E-01   0.659E-06 0.872E-05 0.161E-05
   -.477E+01 -.279E+02 -.349E+01   0.472E+01 0.268E+02 0.357E+01   0.468E-01 0.111E+01 -.672E-01   -.662E-06 0.870E-05 -.161E-05
   -.477E+01 -.279E+02 -.349E+01   0.472E+01 0.268E+02 0.357E+01   0.468E-01 0.111E+01 -.672E-01   -.631E-06 0.870E-05 -.161E-05
   -.477E+01 -.279E+02 -.349E+01   0.472E+01 0.268E+02 0.357E+01   0.468E-01 0.111E+01 -.672E-01   -.662E-06 0.872E-05 -.160E-05
   -.477E+01 -.279E+02 -.349E+01   0.472E+01 0.268E+02 0.357E+01   0.468E-01 0.111E+01 -.672E-01   -.632E-06 0.872E-05 -.161E-05
   0.477E+01 -.279E+02 0.349E+01   -.472E+01 0.268E+02 -.357E+01   -.468E-01 0.111E+01 0.672E-01   0.629E-06 0.870E-05 0.161E-05
   0.477E+01 -.279E+02 0.349E+01   -.472E+01 0.268E+02 -.357E+01   -.468E-01 0.111E+01 0.672E-01   0.664E-06 0.870E-05 0.161E-05
   0.477E+01 -.279E+02 0.349E+01   -.472E+01 0.268E+02 -.357E+01   -.468E-01 0.111E+01 0.672E-01   0.629E-06 0.873E-05 0.160E-05
   0.477E+01 -.279E+02 0.349E+01   -.472E+01 0.268E+02 -.357E+01   -.468E-01 0.111E+01 0.672E-01   0.664E-06 0.873E-05 0.161E-05
   -.477E+01 -.279E+02 -.349E+01   0.472E+01 0.268E+02 0.357E+01   0.468E-01 0.111E+01 -.672E-01   -.657E-06 0.870E-05 -.161E-05
   -.477E+01 -.279E+02 -.349E+01   0.472E+01 0.268E+02 0.357E+01   0.468E-01 0.111E+01 -.672E-01   -.636E-06 0.870E-05 -.161E-05
   -.477E+01 -.279E+02 -.349E+01   0.472E+01 0.268E+02 0.357E+01   0.468E-01 0.111E+01 -.672E-01   -.657E-06 0.873E-05 -.160E-05
   -.477E+01 -.279E+02 -.349E+01   0.472E+01 0.268E+02 0.357E+01   0.468E-01 0.111E+01 -.672E-01   -.636E-06 0.873E-05 -.161E-05
   -.762E+01 -.268E+02 0.429E+01   0.750E+01 0.254E+02 -.440E+01   0.127E+00 0.145E+01 0.818E-01   0.649E-05 0.133E-04 0.853E-05
   -.762E+01 -.268E+02 0.429E+01   0.750E+01 0.254E+02 -.440E+01   0.127E+00 0.145E+01 0.818E-01   0.651E-05 0.133E-04 0.853E-05
   -.762E+01 -.268E+02 0.429E+01   0.750E+01 0.254E+02 -.440E+01   0.127E+00 0.145E+01 0.818E-01   0.649E-05 0.133E-04 0.854E-05
   -.762E+01 -.268E+02 0.429E+01   0.750E+01 0.254E+02 -.440E+01   0.127E+00 0.145E+01 0.818E-01   0.651E-05 0.133E-04 0.853E-05
   0.762E+01 -.268E+02 -.429E+01   -.750E+01 0.254E+02 0.440E+01   -.127E+00 0.145E+01 -.818E-01   -.651E-05 0.133E-04 -.853E-05
   0.762E+01 -.268E+02 -.429E+01   -.750E+01 0.254E+02 0.440E+01   -.127E+00 0.145E+01 -.818E-01   -.649E-05 0.133E-04 -.853E-05
   0.762E+01 -.268E+02 -.429E+01   -.750E+01 0.254E+02 0.440E+01   -.127E+00 0.145E+01 -.818E-01   -.651E-05 0.133E-04 -.854E-05
   0.762E+01 -.268E+02 -.429E+01   -.750E+01 0.254E+02 0.440E+01   -.127E+00 0.145E+01 -.818E-01   -.649E-05 0.133E-04 -.853E-05
   -.762E+01 -.268E+02 0.429E+01   0.750E+01 0.254E+02 -.440E+01   0.127E+00 0.145E+01 0.818E-01   0.649E-05 0.133E-04 0.854E-05
   -.762E+01 -.268E+02 0.429E+01   0.750E+01 0.254E+02 -.440E+01   0.127E+00 0.145E+01 0.818E-01   0.651E-05 0.133E-04 0.853E-05
   -.762E+01 -.268E+02 0.429E+01   0.750E+01 0.254E+02 -.440E+01   0.127E+00 0.145E+01 0.818E-01   0.649E-05 0.133E-04 0.854E-05
   -.762E+01 -.268E+02 0.429E+01   0.750E+01 0.254E+02 -.440E+01   0.127E+00 0.145E+01 0.818E-01   0.651E-05 0.133E-04 0.853E-05
   0.762E+01 -.268E+02 -.429E+01   -.750E+01 0.254E+02 0.440E+01   -.127E+00 0.145E+01 -.818E-01   -.652E-05 0.133E-04 -.853E-05
   0.762E+01 -.268E+02 -.429E+01   -.750E+01 0.254E+02 0.440E+01   -.127E+00 0.145E+01 -.818E-01   -.649E-05 0.133E-04 -.853E-05
   0.762E+01 -.268E+02 -.429E+01   -.750E+01 0.254E+02 0.440E+01   -.127E+00 0.145E+01 -.818E-01   -.652E-05 0.133E-04 -.854E-05
   0.762E+01 -.268E+02 -.429E+01   -.750E+01 0.254E+02 0.440E+01   -.127E+00 0.145E+01 -.818E-01   -.649E-05 0.133E-04 -.853E-05
 -----------------------------------------------------------------------------------------------
   -.554E-05 -.465E+02 -.278E-03   0.311E-12 -.348E-12 -.817E-12   0.638E-15 0.465E+02 -.167E-15   0.294E-11 0.681E-03 0.903E-11
 
 
 POSITION                                       TOTAL-FORCE (eV/Angst)
 -----------------------------------------------------------------------------------
      1.38247      1.25877      1.36333         0.000729     -0.014747      0.002984
      6.63275      1.25877      1.58339         0.000729     -0.014747      0.002984
      1.38247      6.52274      1.36333         0.000729     -0.014747      0.002984
      6.63275      6.52274      1.58339         0.000729     -0.014747      0.002984
      3.97674      3.89076      1.45565        -0.000729     -0.014747     -0.002984
      9.22702      3.89076      1.67572        -0.000729     -0.014747     -0.002984
      3.97674      9.15472      1.45565        -0.000729     -0.014747     -0.002984
      9.22702      9.15472      1.67572        -0.000729     -0.014747     -0.002984
      1.69384      3.90495      9.15120         0.000000     -0.010354     -0.000000
      6.94412      3.90495      9.37126         0.000000     -0.010354     -0.000000
      1.69384      9.16891      9.15120         0.000000     -0.010354     -0.000000
      6.94412      9.16891      9.37126         0.000000     -0.010354     -0.000000
      4.31898      1.28971      9.26123         0.000000     -0.005706     -0.000000
      9.56926      1.28971      9.48130         0.000000     -0.005706     -0.000000
      4.31898      6.55368      9.26123         0.000000     -0.005706     -0.000000
      9.56926      6.55368      9.48130         0.000000     -0.005706     -0.000000
      1.56947      1.25877      6.54343        -0.000729     -0.014747     -0.002984
      6.81975      1.25877      6.76350        -0.000729     -0.014747     -0.002984
      1.56947      6.52274      6.54343        -0.000729     -0.014747     -0.002984
      6.81975      6.52274      6.76350        -0.000729     -0.014747     -0.002984
      4.22548      3.89076      6.67118         0.000729     -0.014747      0.002984
      9.47576      3.89076      6.89124         0.000729     -0.014747      0.002984
      4.22548      9.15472      6.67118         0.000729     -0.014747      0.002984
      9.47576      9.15472      6.89124         0.000729     -0.014747      0.002984
      4.10111      1.27296      4.06341         0.000000     -0.010354     -0.000000
      9.35139      1.27296      4.28348         0.000000     -0.010354     -0.000000
      4.10111      6.53693      4.06341         0.000000     -0.010354     -0.000000
      9.35139      6.53693      4.28348         0.000000     -0.010354     -0.000000
      1.47597      3.92170      3.95338         0.000000     -0.005706     -0.000000
      6.72625      3.92170      4.17345         0.000000     -0.005706     -0.000000
      1.47597      9.18566      3.95338         0.000000     -0.005706     -0.000000
      6.72625      9.18566      4.17345         0.000000     -0.005706     -0.000000
     10.69644      0.04642      5.63723         0.005807      0.011084     -0.009258
      5.44616      0.04642      5.41716         0.005807      0.011084     -0.009258
     10.69644      5.31038      5.63723         0.005807      0.011084     -0.009258
      5.44616      5.31038      5.41716         0.005807      0.011084     -0.009258
      2.75606      0.04642      2.70967        -0.005807      0.011084      0.009258
      8.00635      0.04642      2.92973        -0.005807      0.011084      0.009258
      2.75606      5.31038      2.70967        -0.005807      0.011084      0.009258
      8.00635      5.31038      2.92973        -0.005807      0.011084      0.009258
      2.60315      2.67840      0.10931         0.005807      0.011084     -0.009258
      7.85343      2.67840      0.32938         0.005807      0.011084     -0.009258
      2.60315      7.94237      0.10931         0.005807      0.011084     -0.009258
      7.85343      7.94237      0.32938         0.005807      0.011084     -0.009258
      0.34879      2.67840      7.79745        -0.005807      0.011084      0.009258
      5.59907      2.67840      8.01752        -0.005807      0.011084      0.009258
      0.34879      7.94237      7.79745        -0.005807      0.011084      0.009258
      5.59907      7.94237      8.01752        -0.005807      0.011084      0.009258
     10.48771      0.04546      0.44763         0.007419      0.011694     -0.021389
      5.23743      0.04546      0.22756         0.007419      0.011694     -0.021389
     10.48771      5.30943      0.44763         0.007419      0.011694     -0.021389
      5.23743      5.30943      0.22756         0.007419      0.011694     -0.021389
      2.96479      0.04546      7.89927        -0.007419      0.011694      0.021389
      8.21507      0.04546      8.11933        -0.007419      0.011694      0.021389
      2.96479      5.30943      7.89927        -0.007419      0.011694      0.021389
      8.21507      5.30943      8.11933        -0.007419      0.011694      0.021389
      2.83016      2.67744      5.31534         0.007419      0.011694     -0.021389
      8.08044      2.67744      5.53541         0.007419      0.011694     -0.021389
      2.83016      7.94141      5.31534         0.007419      0.011694     -0.021389
      8.08044      7.94141      5.53541         0.007419      0.011694     -0.021389
      0.12178      2.67744      2.59142        -0.007419      0.011694      0.021389
      5.37207      2.67744      2.81148        -0.007419      0.011694      0.021389
      0.12178      7.94141      2.59142        -0.007419      0.011694      0.021389
      5.37207      7.94141      2.81148        -0.007419      0.011694      0.021389
 -----------------------------------------------------------------------------------
    total drift:                               -0.000006      0.012469     -0.000278


--------------------------------------------------------------------------------------------------------



  FREE ENERGIE OF THE ION-ELECTRON SYSTEM (eV)
  ---------------------------------------------------
  free  energy   TOTEN  =      -327.37029360 eV

  energy  without entropy=     -327.37029360  energy(sigma->0) =     -327.37029360
 


--------------------------------------------------------------------------------------------------------


    POTLOK:  cpu time    0.1308: real time    0.1315


--------------------------------------------------------------------------------------------------------


 writing wavefunctions
     LOOP+:  cpu time 3624.2828: real time 3650.2331
    4ORBIT:  cpu time    0.0000: real time    0.0000
 


 total charge     
 
# of ion       s       p       d       tot
------------------------------------------
    1        1.314   2.408   0.000   3.723
    2        1.314   2.408   0.000   3.723
    3        1.314   2.408   0.000   3.723
    4        1.314   2.408   0.000   3.723
    5        1.314   2.408   0.000   3.723
    6        1.314   2.408   0.000   3.723
    7        1.314   2.408   0.000   3.723
    8        1.314   2.408   0.000   3.723
    9        1.316   2.403   0.000   3.719
   10        1.316   2.403   0.000   3.719
   11        1.316   2.403   0.000   3.719
   12        1.316   2.403   0.000   3.719
   13        1.313   2.412   0.000   3.724
   14        1.313   2.412   0.000   3.724
   15        1.313   2.412   0.000   3.724
   16        1.313   2.412   0.000   3.724
   17        1.314   2.408   0.000   3.723
   18        1.314   2.408   0.000   3.723
   19        1.314   2.408   0.000   3.723
   20        1.314   2.408   0.000   3.723
   21        1.314   2.408   0.000   3.723
   22        1.314   2.408   0.000   3.723
   23        1.314   2.408   0.000   3.723
   24        1.314   2.408   0.000   3.723
   25        1.316   2.403   0.000   3.719
   26        1.316   2.403   0.000   3.719
   27        1.316   2.403   0.000   3.719
   28        1.316   2.403   0.000   3.719
   29        1.313   2.412   0.000   3.724
   30        1.313   2.412   0.000   3.724
   31        1.313   2.412   0.000   3.724
   32        1.313   2.412   0.000   3.724
   33        0.259   6.201   8.917  15.377
   34        0.259   6.201   8.917  15.377
   35        0.259   6.201   8.917  15.377
   36        0.259   6.201   8.917  15.377
   37        0.259   6.201   8.917  15.377
   38        0.259   6.201   8.917  15.377
   39        0.259   6.201   8.917  15.377
   40        0.259   6.201   8.917  15.377
   41        0.259   6.201   8.917  15.377
   42        0.259   6.201   8.917  15.377
   43        0.259   6.201   8.917  15.377
   44        0.259   6.201   8.917  15.377
   45        0.259   6.201   8.917  15.377
   46        0.259   6.201   8.917  15.377
   47        0.259   6.201   8.917  15.377
   48        0.259   6.201   8.917  15.377
   49        0.349   6.349   5.823  12.521
   50        0.349   6.349   5.823  12.521
   51        0.349   6.349   5.823  12.521
   52        0.349   6.349   5.823  12.521
   53        0.349   6.349   5.823  12.521
   54        0.349   6.349   5.823  12.521
   55        0.349   6.349   5.823  12.521
   56        0.349   6.349   5.823  12.521
   57        0.349   6.349   5.823  12.521
   58        0.349   6.349   5.823  12.521
   59        0.349   6.349   5.823  12.521
   60        0.349   6.349   5.823  12.521
   61        0.349   6.349   5.823  12.521
   62        0.349   6.349   5.823  12.521
   63        0.349   6.349   5.823  12.521
   64        0.349   6.349   5.823  12.521
--------------------------------------------------
tot         51.779 277.860 235.831 565.470
 


 magnetization (x)
 
# of ion       s       p       d       tot
------------------------------------------
    1       -0.000  -0.020   0.000  -0.020
    2       -0.000  -0.020   0.000  -0.020
    3       -0.000  -0.020   0.000  -0.020
    4       -0.000  -0.020   0.000  -0.020
    5        0.000   0.020   0.000   0.020
    6        0.000   0.020   0.000   0.020
    7        0.000   0.020   0.000   0.020
    8        0.000   0.020   0.000   0.020
    9       -0.000  -0.000   0.000  -0.000
   10       -0.000  -0.000   0.000  -0.000
   11       -0.000  -0.000   0.000  -0.000
   12       -0.000  -0.000   0.000  -0.000
   13        0.000   0.000   0.000   0.000
   14        0.000   0.000   0.000   0.000
   15        0.000   0.000   0.000   0.000
   16       -0.000   0.000   0.000   0.000
   17        0.000   0.020   0.000   0.020
   18        0.000   0.020   0.000   0.020
   19        0.000   0.020   0.000   0.020
   20        0.000   0.020   0.000   0.020
   21       -0.000  -0.020   0.000  -0.020
   22       -0.000  -0.020   0.000  -0.020
   23       -0.000  -0.020   0.000  -0.020
   24       -0.000  -0.020   0.000  -0.020
   25       -0.000  -0.000   0.000  -0.000
   26       -0.000  -0.000   0.000  -0.000
   27       -0.000  -0.000   0.000  -0.000
   28       -0.000  -0.000   0.000  -0.000
   29        0.000   0.000   0.000   0.000
   30        0.000   0.000   0.000   0.000
   31       -0.000   0.000   0.000   0.000
   32        0.000  -0.000   0.000  -0.000
   33        0.000   0.001  -0.003  -0.002
   34        0.000   0.001  -0.003  -0.002
   35        0.000   0.001  -0.003  -0.002
   36        0.000   0.001  -0.003  -0.002
   37       -0.000  -0.001   0.003   0.002
   38       -0.000  -0.001   0.003   0.002
   39       -0.000  -0.001   0.003   0.002
   40       -0.000  -0.001   0.003   0.002
   41        0.000   0.001  -0.003  -0.002
   42        0.000   0.001  -0.003  -0.002
   43        0.000   0.001  -0.003  -0.002
   44        0.000   0.001  -0.003  -0.002
   45       -0.000  -0.001   0.003   0.002
   46       -0.000  -0.001   0.003   0.002
   47       -0.000  -0.001   0.003   0.002
   48       -0.000  -0.001   0.003   0.002
   49        0.020   0.054   3.666   3.740
   50        0.020   0.054   3.666   3.740
   51        0.020   0.054   3.666   3.740
   52        0.020   0.054   3.666   3.740
   53       -0.020  -0.054  -3.666  -3.740
   54       -0.020  -0.054  -3.666  -3.740
   55       -0.020  -0.054  -3.666  -3.740
   56       -0.020  -0.054  -3.666  -3.740
   57        0.020   0.054   3.666   3.740
   58        0.020   0.054   3.666   3.740
   59        0.020   0.054   3.666   3.740
   60        0.020   0.054   3.666   3.740
   61       -0.020  -0.054  -3.666  -3.740
   62       -0.020  -0.054  -3.666  -3.740
   63       -0.020  -0.054  -3.666  -3.740
   64       -0.020  -0.054  -3.666  -3.740
--------------------------------------------------
tot         -0.000  -0.000  -0.000  -0.000
 
 BZINTS: Fermi energy:  4.955207;688.000000 electrons
         Band energy:***********;  BLOECHL correction:  0.000000

 total amount of memory used by VASP MPI-rank0   348353. kBytes
=======================================================================

   base      :      30000. kBytes
   nonl-proj :     216760. kBytes
   fftplans  :       4588. kBytes
   grid      :      69719. kBytes
   one-center:       1990. kBytes
   wavefun   :      25296. kBytes
 
  
  
 General timing and accounting informations for this job:
 ========================================================
  
                  Total CPU time used (sec):     3683.881
                            User time (sec):     3673.038
                          System time (sec):       10.843
                         Elapsed time (sec):     3711.115
  
                   Maximum memory used (kb):      728504.
                   Average memory used (kb):           0.
  
                          Minor page faults:       262268
                          Major page faults:         5645
                 Voluntary context switches:         7140
