 vasp.5.4.4.18Apr17-6-g9f103f2a35 (build Sep 28 2018 10:11:46) complex          
  
 executed on             LinuxIFC date 2022.10.06  20:53:55
 running on  256 total cores
 distrk:  each k-point on   64 cores,    4 groups
 distr:  one band on NCORES_PER_BAND=  32 cores,    2 groups


--------------------------------------------------------------------------------------------------------


 INCAR:
 POTCAR:    PAW_PBE S 06Sep2000                   
 POTCAR:     PAW_PBE Cu_pv 06Sep2000              
 POTCAR:     PAW_PBE Fe_pv 02Aug2007              

 ----------------------------------------------------------------------------- 
|                                                                             |
|           W    W    AA    RRRRR   N    N  II  N    N   GGGG   !!!           |
|           W    W   A  A   R    R  NN   N  II  NN   N  G    G  !!!           |
|           W    W  A    A  R    R  N N  N  II  N N  N  G       !!!           |
|           W WW W  AAAAAA  RRRRR   N  N N  II  N  N N  G  GGG   !            |
|           WW  WW  A    A  R   R   N   NN  II  N   NN  G    G                |
|           W    W  A    A  R    R  N    N  II  N    N   GGGG   !!!           |
|                                                                             |
|      You have enabled k-point parallelism (KPAR>1).                         |
|      This developmental code was originally  written by Paul Kent at ORNL,  |
|      and carefully double checked in Vienna.                                |
|      GW as well as linear response parallelism added by Martijn Marsman     |
|      and Georg Kresse.                                                      |
|      Carefully verify results versus KPAR=1.                                |
|      Report problems to Paul Kent and Vienna.                               |
|                                                                             |
 ----------------------------------------------------------------------------- 

 POTCAR:    PAW_PBE S 06Sep2000                   
   SHA256 =  0fc7481fb0695f01bdc6462160264c5c84044ae9ec85a907d398b887a2bc3132 S/
   COPYR  = (c) Copyright 06Sep2000 Georg Kresse                                
   COPYR  = This file is part of the software VASP. Any use, copying, and all ot
   COPYR  = If you do not have a valid VASP license, you may not use, copy or di
   VRHFIN =S : s2p4                                                             
   LEXCH  = PE                                                                  
   EATOM  =   276.8230 eV,   20.3459 Ry                                         
                                                                                
   TITEL  = PAW_PBE S 06Sep2000                                                 
   LULTRA =        F    use ultrasoft PP ?                                      
   IUNSCR =        1    unscreen: 0-lin 1-nonlin 2-no                           
   RPACOR =    1.500    partial core radius                                     
   POMASS =   32.066; ZVAL   =    6.000    mass and valenz                      
   RCORE  =    1.900    outmost cutoff radius                                   
   RWIGS  =    2.200; RWIGS  =    1.164    wigner-seitz radius (au A)           
   ENMAX  =  258.689; ENMIN  =  194.016 eV                                      
   ICORE  =        2    local potential                                         
   LCOR   =        T    correct aug charges                                     
   LPAW   =        T    paw PP                                                  
   EAUG   =  335.092                                                            
   DEXC   =    0.000                                                            
   RMAX   =    1.942    core radius for proj-oper                               
   RAUG   =    1.300    factor for augmentation sphere                          
   RDEP   =    1.954    radius for radial grids                                 
   RDEPT  =    1.744    core radius for aug-charge                              
                                                                                
   Atomic configuration                                                         
    6 entries                                                                   
     n  l   j            E        occ.                                          
     1  0  0.50     -2405.8406   2.0000                                         
     2  0  0.50      -211.7007   2.0000                                         
     2  1  1.50      -156.4958   6.0000                                         
     3  0  0.50       -17.2562   2.0000                                         
     3  1  0.50        -7.0085   4.0000                                         
     3  2  1.50        -6.8029   0.0000                                         
   Description                                                                  
     l       E           TYP  RCUT    TYP  RCUT                                 
     0    -17.2561641     23  1.900                                             
     0    -15.8743224     23  1.900                                             
     1     -7.0085400     23  1.900                                             
     1     -2.7779785     23  1.900                                             
     2     -6.8029130     23  1.900                                             
  local pseudopotential read in
  partial core-charges read in
  partial kinetic energy density read in
  atomic valenz-charges read in
  non local Contribution for L=           0  read in
    real space projection operators read in
  non local Contribution for L=           0  read in
    real space projection operators read in
  non local Contribution for L=           1  read in
    real space projection operators read in
  non local Contribution for L=           1  read in
    real space projection operators read in
    PAW grid and wavefunctions read in
 
   number of l-projection  operators is LMAX  =           4
   number of lm-projection operators is LMMAX =           8
 
 POTCAR:     PAW_PBE Cu_pv 06Sep2000              
   SHA256 =  cb7b504e2ea725fe1f25c85a9ac77d4012ce94cd394135b722c4e25ec297f1cb Cu
   COPYR  = (c) Copyright 06Sep2000 Georg Kresse                                
   COPYR  = This file is part of the software VASP. Any use, copying, and all ot
   COPYR  = If you do not have a valid VASP license, you may not use, copy or di
   VRHFIN =Cu: d10 p1                                                           
   LEXCH  = PE                                                                  
   EATOM  =  4120.1201 eV,  302.8203 Ry                                         
                                                                                
   TITEL  = PAW_PBE Cu_pv 06Sep2000                                             
   LULTRA =        F    use ultrasoft PP ?                                      
   IUNSCR =        1    unscreen: 0-lin 1-nonlin 2-no                           
   RPACOR =    1.500    partial core radius                                     
   POMASS =   63.546; ZVAL   =   17.000    mass and valenz                      
   RCORE  =    2.000    outmost cutoff radius                                   
   RWIGS  =    2.000; RWIGS  =    1.058    wigner-seitz radius (au A)           
   ENMAX  =  368.648; ENMIN  =  276.486 eV                                      
   RCLOC  =    1.304    cutoff for local pot                                    
   LCOR   =        T    correct aug charges                                     
   LPAW   =        T    paw PP                                                  
   EAUG   =  758.233                                                            
   DEXC   =    0.000                                                            
   RMAX   =    2.046    core radius for proj-oper                               
   RAUG   =    1.300    factor for augmentation sphere                          
   RDEP   =    2.025    radius for radial grids                                 
   RDEPT  =    1.558    core radius for aug-charge                              
                                                                                
   Atomic configuration                                                         
    8 entries                                                                   
     n  l   j            E        occ.                                          
     1  0  0.50     -8850.2467   2.0000                                         
     2  0  0.50     -1062.3498   2.0000                                         
     2  1  1.50      -916.8226   6.0000                                         
     3  0  0.50      -114.6929   2.0000                                         
     3  1  1.50       -72.1325   6.0000                                         
     3  2  2.50        -5.0394  10.0000                                         
     4  0  0.50        -4.6097   1.0000                                         
     4  3  2.50        -1.3606   0.0000                                         
   Description                                                                  
     l       E           TYP  RCUT    TYP  RCUT                                 
     1    -72.1324777     23  1.700                                             
     1     -1.3605826     23  1.700                                             
     2     -5.0393776     23  2.000                                             
     2     -6.3999602     23  2.000                                             
     0     -4.6097062     23  1.800                                             
     0     14.1620818     23  1.800                                             
  local pseudopotential read in
  partial core-charges read in
  partial kinetic energy density read in
  atomic valenz-charges read in
  non local Contribution for L=           1  read in
    real space projection operators read in
  non local Contribution for L=           1  read in
    real space projection operators read in
  non local Contribution for L=           2  read in
    real space projection operators read in
  non local Contribution for L=           2  read in
    real space projection operators read in
  non local Contribution for L=           0  read in
    real space projection operators read in
  non local Contribution for L=           0  read in
    real space projection operators read in
    PAW grid and wavefunctions read in
 
   number of l-projection  operators is LMAX  =           6
   number of lm-projection operators is LMMAX =          18
 
 POTCAR:     PAW_PBE Fe_pv 02Aug2007              
   SHA256 =  5d22e414b1f82158bf2c7ecb8b97b28fd0923e48cadc1c3bf74d524558f5dd32 Fe
   COPYR  = (c) Copyright 02Aug2007 Georg Kresse                                
   COPYR  = This file is part of the software VASP. Any use, copying, and all ot
   COPYR  = If you do not have a valid VASP license, you may not use, copy or di
   VRHFIN =Fe:  3pd7s1                                                          
   LEXCH  = PE                                                                  
   EATOM  =  2457.4239 eV,  180.6156 Ry                                         
                                                                                
   TITEL  = PAW_PBE Fe_pv 02Aug2007                                             
   LULTRA =        F    use ultrasoft PP ?                                      
   IUNSCR =        1    unscreen: 0-lin 1-nonlin 2-no                           
   RPACOR =    1.750    partial core radius                                     
   POMASS =   55.847; ZVAL   =   14.000    mass and valenz                      
   RCORE  =    2.200    outmost cutoff radius                                   
   RWIGS  =    2.200; RWIGS  =    1.164    wigner-seitz radius (au A)           
   ENMAX  =  293.238; ENMIN  =  219.928 eV                                      
   ICORE  =        3    local potential                                         
   LCOR   =        T    correct aug charges                                     
   LPAW   =        T    paw PP                                                  
   EAUG   =  578.342                                                            
   DEXC   =    0.000                                                            
   RMAX   =    2.249    core radius for proj-oper                               
   RAUG   =    1.300    factor for augmentation sphere                          
   RDEP   =    2.296    radius for radial grids                                 
   RDEPT  =    1.766    core radius for aug-charge                              
                                                                                
   Atomic configuration                                                         
    8 entries                                                                   
     n  l   j            E        occ.                                          
     1  0  0.50     -6993.8440   2.0000                                         
     2  0  0.50      -814.6047   2.0000                                         
     2  1  1.50      -693.3689   6.0000                                         
     3  0  0.50       -89.4732   2.0000                                         
     3  1  1.50       -55.6373   6.0000                                         
     3  2  2.50        -3.8151   7.0000                                         
     4  0  0.50        -4.2551   1.0000                                         
     4  3  2.50        -1.3606   0.0000                                         
   Description                                                                  
     l       E           TYP  RCUT    TYP  RCUT                                 
     1    -55.6372668     23  2.000                                             
     1     -5.4423304     23  2.000                                             
     2     -3.8151096     23  2.200                                             
     2     -5.1756922     23  2.200                                             
     0     -4.2550951     23  2.200                                             
     0     27.2116520     23  2.200                                             
     3     -1.3605826     23  2.200                                             
  local pseudopotential read in
  partial core-charges read in
  partial kinetic energy density read in
  atomic valenz-charges read in
  non local Contribution for L=           1  read in
    real space projection operators read in
  non local Contribution for L=           1  read in
    real space projection operators read in
  non local Contribution for L=           2  read in
    real space projection operators read in
  non local Contribution for L=           2  read in
    real space projection operators read in
  non local Contribution for L=           0  read in
    real space projection operators read in
  non local Contribution for L=           0  read in
    real space projection operators read in
    PAW grid and wavefunctions read in
 
   number of l-projection  operators is LMAX  =           6
   number of lm-projection operators is LMMAX =          18
 

 ----------------------------------------------------------------------------- 
|                                                                             |
|  ADVICE TO THIS USER RUNNING 'VASP/VAMP'   (HEAR YOUR MASTER'S VOICE ...):  |
|                                                                             |
|      You enforced a specific xc-type in the INCAR file,                     |
|      a different type was found on the POTCAR file                          |
|          I HOPE YOU KNOW, WHAT YOU ARE  DOING                               |
|                                                                             |
 ----------------------------------------------------------------------------- 

  PAW_PBE S 06Sep2000                   :
 energy of atom  1       EATOM= -276.8230
 kinetic energy error for atom=    0.0007 (will be added to EATOM!!)
   PAW_PBE Cu_pv 06Sep2000              :
 energy of atom  2       EATOM=-4120.1201
 kinetic energy error for atom=    0.0094 (will be added to EATOM!!)
   PAW_PBE Fe_pv 02Aug2007              :
 energy of atom  3       EATOM=-2457.4239
 kinetic energy error for atom=    0.0025 (will be added to EATOM!!)
 
 
 POSCAR: sm_isp_SD0310437-standardized_unitcell  
  positions in direct lattice
  velocities in cartesian coordinates
 exchange correlation table for  LEXCH =       14
   RHO(1)=    0.500       N(1)  =     2000
   RHO(2)=  100.500       N(2)  =     4000
 


--------------------------------------------------------------------------------------------------------


 ion  position               nearest neighbor table
   1  0.252  0.250  0.125-  10 2.26  11 2.26  13 2.28  16 2.28
   2  0.748  0.750  0.125-  10 2.26  11 2.26  13 2.28  16 2.28
   3  0.250  0.748  0.875-  11 2.26  12 2.26  13 2.28  14 2.28
   4  0.750  0.252  0.875-  11 2.26  12 2.26  13 2.28  14 2.28
   5  0.248  0.250  0.625-   9 2.26  12 2.26  14 2.28  15 2.28
   6  0.752  0.750  0.625-   9 2.26  12 2.26  14 2.28  15 2.28
   7  0.750  0.248  0.375-   9 2.26  10 2.26  15 2.28  16 2.28
   8  0.250  0.752  0.375-   9 2.26  10 2.26  15 2.28  16 2.28
   9  0.000  0.000  0.500-   5 2.26   7 2.26   6 2.26   8 2.26
  10  0.500  0.000  0.250-   7 2.26   1 2.26   2 2.26   8 2.26
  11  0.500  0.500  0.000-   1 2.26   4 2.26   3 2.26   2 2.26
  12  0.000  0.500  0.750-   5 2.26   4 2.26   3 2.26   6 2.26
  13  0.000  0.000  0.000-   2 2.28   3 2.28   1 2.28   4 2.28
  14  0.500  0.000  0.750-   3 2.28   6 2.28   4 2.28   5 2.28
  15  0.500  0.500  0.500-   6 2.28   8 2.28   7 2.28   5 2.28
  16  0.000  0.500  0.250-   2 2.28   8 2.28   1 2.28   7 2.28
 
  LATTYP: Found a simple tetragonal cell.
 ALAT       =     5.2587856555
 C/A-ratio  =     1.9792277963
  
  Lattice vectors:
  
 A1 = (   5.2587856555,   0.0000000000,   0.0000000000)
 A2 = (   0.0000000000,   5.2587856555,   0.0000000000)
 A3 = (   0.0000000000,   0.0000000000,  10.4083347443)


Analysis of symmetry for initial positions (statically):
=====================================================================
 Subroutine PRICEL returns following result:
 
  LATTYP: Found a body centered tetragonal cell.
 ALAT       =     5.2587856555
 C/A-ratio  =     1.9792277963
  
  Lattice vectors:
  
 A1 = (   2.6293928278,  -2.6293928278,   5.2041673722)
 A2 = (  -2.6293928278,   2.6293928278,   5.2041673722)
 A3 = (  -2.6293928278,  -2.6293928278,  -5.2041673722)
 
   2 primitive cells build up your supercell.
 

 Routine SETGRP: Setting up the symmetry group for a 
 simple tetragonal supercell.


 Subroutine GETGRP returns: Found  8 space group operations
 (whereof  4 operations were pure point group operations)
 out of a pool of 16 trial point group operations.


The static configuration has the point symmetry S_4 .
 The point group associated with its full space group is D_2d.


Analysis of symmetry for dynamics (positions and initial velocities):
=====================================================================
 Subroutine PRICEL returns following result:
 
  LATTYP: Found a body centered tetragonal cell.
 ALAT       =     5.2587856555
 C/A-ratio  =     1.9792277963
  
  Lattice vectors:
  
 A1 = (   2.6293928278,  -2.6293928278,   5.2041673722)
 A2 = (  -2.6293928278,   2.6293928278,   5.2041673722)
 A3 = (  -2.6293928278,  -2.6293928278,  -5.2041673722)
 
   2 primitive cells build up your supercell.
 

 Routine SETGRP: Setting up the symmetry group for a 
 simple tetragonal supercell.


 Subroutine GETGRP returns: Found  8 space group operations
 (whereof  4 operations were pure point group operations)
 out of a pool of 16 trial point group operations.


The dynamic configuration has the point symmetry S_4 .
 The point group associated with its full space group is D_2d.


Analysis of structural, dynamic, and magnetic symmetry:
=====================================================================
 Subroutine PRICEL returns following result:
 
  LATTYP: Found a body centered tetragonal cell.
 ALAT       =     5.2587856555
 C/A-ratio  =     1.9792277963
  
  Lattice vectors:
  
 A1 = (   2.6293928278,  -2.6293928278,   5.2041673722)
 A2 = (  -2.6293928278,   2.6293928278,   5.2041673722)
 A3 = (  -2.6293928278,  -2.6293928278,  -5.2041673722)
 
   2 primitive cells build up your supercell.
 

 Routine SETGRP: Setting up the symmetry group for a 
 simple tetragonal supercell.


 Subroutine GETGRP returns: Found  8 space group operations
 (whereof  4 operations were pure point group operations)
 out of a pool of 16 trial point group operations.


The (compounded) configuration has the point symmetry S_4 .
 The point group associated with its full space group is D_2d.


 Subroutine INISYM returns: Found  8 space group operations
 (whereof  4 operations are pure point group operations),
 and found     2 'primitive' translations

 
 
 KPOINTS: Automatic mesh                          

Automatic generation of k-mesh.
Space group operators:
 irot       det(A)        alpha          n_x          n_y          n_z        tau_x        tau_y        tau_z
    1     1.000000     0.000001     1.000000     0.000000     0.000000     0.000000     0.000000     0.000000
    2    -1.000000    90.000000     0.000000     0.000000    -1.000000     0.000000     0.000000     0.000000
    3     1.000000   180.000000     0.000000     0.000000     1.000000     0.000000     0.000000     0.000000
    4    -1.000000    90.000000     0.000000     0.000000     1.000000     0.000000     0.000000     0.000000
    5     1.000000   179.999999     0.000000     1.000000     0.000000     0.000000    -0.500000     0.250000
    6    -1.000000   179.999999     0.707107     0.707107     0.000000     0.000000    -0.500000     0.250000
    7     1.000000   179.999999     1.000000     0.000000     0.000000     0.000000    -0.500000     0.250000
    8    -1.000000   179.999999     0.707107    -0.707107     0.000000     0.000000    -0.500000     0.250000
 
 Subroutine IBZKPT returns following result:
 ===========================================
 
 Found     23 irreducible k-points:
 
 Following reciprocal coordinates:
            Coordinates               Weight
  0.000000  0.000000  0.000000      1.000000
  0.166667  0.000000  0.000000      4.000000
  0.333333  0.000000  0.000000      4.000000
  0.500000  0.000000  0.000000      2.000000
  0.166667  0.166667  0.000000      4.000000
  0.333333  0.166667  0.000000      8.000000
  0.500000  0.166667  0.000000      4.000000
  0.333333  0.333333  0.000000      4.000000
  0.500000  0.333333  0.000000      4.000000
  0.500000  0.500000  0.000000      1.000000
  0.000000  0.000000  0.333333      2.000000
  0.166667  0.000000  0.333333      8.000000
  0.333333  0.000000  0.333333      8.000000
  0.500000  0.000000  0.333333      4.000000
  0.166667  0.166667  0.333333      4.000000
  0.333333  0.166667  0.333333      8.000000
  0.500000  0.166667  0.333333      8.000000
 -0.333333  0.166667  0.333333      8.000000
 -0.166667  0.166667  0.333333      4.000000
  0.333333  0.333333  0.333333      4.000000
  0.500000  0.333333  0.333333      8.000000
 -0.333333  0.333333  0.333333      4.000000
  0.500000  0.500000  0.333333      2.000000
 
 Following cartesian coordinates:
            Coordinates               Weight
  0.000000  0.000000  0.000000      1.000000
  0.031693  0.000000  0.000000      4.000000
  0.063386  0.000000  0.000000      4.000000
  0.095079  0.000000  0.000000      2.000000
  0.031693  0.031693  0.000000      4.000000
  0.063386  0.031693  0.000000      8.000000
  0.095079  0.031693  0.000000      4.000000
  0.063386  0.063386  0.000000      4.000000
  0.095079  0.063386  0.000000      4.000000
  0.095079  0.095079  0.000000      1.000000
  0.000000  0.000000  0.032026      2.000000
  0.031693  0.000000  0.032026      8.000000
  0.063386  0.000000  0.032026      8.000000
  0.095079  0.000000  0.032026      4.000000
  0.031693  0.031693  0.032026      4.000000
  0.063386  0.031693  0.032026      8.000000
  0.095079  0.031693  0.032026      8.000000
 -0.063386  0.031693  0.032026      8.000000
 -0.031693  0.031693  0.032026      4.000000
  0.063386  0.063386  0.032026      4.000000
  0.095079  0.063386  0.032026      8.000000
 -0.063386  0.063386  0.032026      4.000000
  0.095079  0.095079  0.032026      2.000000
 
 TETIRR: Found    274 inequivalent tetrahedra from      648


--------------------------------------------------------------------------------------------------------




 Dimension of arrays:
   k-points           NKPTS =     23   k-points in BZ     NKDIM =     23   number of bands    NBANDS=    206
   number of dos      NEDOS =    301   number of ions     NIONS =     16
   non local maximal  LDIM  =      6   non local SUM 2l+1 LMDIM =     18
   total plane-waves  NPLWV = 207360
   max r-space proj   IRMAX =      1   max aug-charges    IRDMAX=  22893
   dimension x,y,z NGX =    48 NGY =   48 NGZ =   90
   dimension x,y,z NGXF=    96 NGYF=   96 NGZF=  180
   support grid    NGXF=    96 NGYF=   96 NGZF=  180
   ions per type =               8   4   4
   NGX,Y,Z   is equivalent  to a cutoff of  15.17, 15.17, 14.38 a.u.
   NGXF,Y,Z  is equivalent  to a cutoff of  30.35, 30.35, 28.75 a.u.

 SYSTEM =  CuFeS2                                  
 POSCAR =  sm_isp_SD0310437-standardized_unitcell  

 Startparameter for this run:
   NWRITE =      2    write-flag & timer
   PREC   = accura    normal or accurate (medium, high low for compatibility)
   ISTART =      1    job   : 0-new  1-cont  2-samecut
   ICHARG =      1    charge: 1-file 2-atom 10-const
   ISPIN  =      1    spin polarized calculation?
   LNONCOLLINEAR =      T non collinear calculations
   LSORBIT =      F    spin-orbit coupling
   INIWAV =      1    electr: 0-lowe 1-rand  2-diag
   LASPH  =      T    aspherical Exc in radial PAW
   METAGGA=      F    non-selfconsistent MetaGGA calc.

 Electronic Relaxation 1
   ENCUT  =  700.0 eV  51.45 Ry    7.17 a.u.  11.34 11.34 22.45*2*pi/ulx,y,z
   ENINI  =  700.0     initial cutoff
   ENAUG  =  758.2 eV  augmentation charge cutoff
   NELM   =    200;   NELMIN=  2; NELMDL=  0     # of ELM steps 
   EDIFF  = 0.1E-07   stopping-criterion for ELM
   LREAL  =      F    real-space projection
   NLSPLINE    = F    spline interpolate recip. space projectors
   LCOMPAT=      F    compatible to vasp.4.4
   GGA_COMPAT  = T    GGA compatible to vasp.4.4-vasp.4.6
   LMAXPAW     = -100 max onsite density
   LMAXMIX     =    4 max onsite mixed and CHGCAR
   VOSKOWN=      0    Vosko Wilk Nusair interpolation
   ROPT   =    0.00000   0.00000   0.00000
 Ionic relaxation
   EDIFFG = -.1E-04   stopping-criterion for IOM
   NSW    =      0    number of steps for IOM
   NBLOCK =      1;   KBLOCK =      1    inner block; outer block 
   IBRION =     -1    ionic relax: 0-MD 1-quasi-New 2-CG
   NFREE  =      0    steps in history (QN), initial steepest desc. (CG)
   ISIF   =      2    stress and relaxation
   IWAVPR =     10    prediction:  0-non 1-charg 2-wave 3-comb
   ISYM   =      2    0-nonsym 1-usesym 2-fastsym
   LCORR  =      T    Harris-Foulkes like correction to forces

   POTIM  = 0.2000    time-step for ionic-motion
   TEIN   =    0.0    initial temperature
   TEBEG  =    0.0;   TEEND  =   0.0 temperature during run
   SMASS  =  -3.00    Nose mass-parameter (am)
   estimated Nose-frequenzy (Omega)   =  0.10E-29 period in steps =****** mass=  -0.632E-27a.u.
   SCALEE = 1.0000    scale energy and forces
   NPACO  =    256;   APACO  = 16.0  distance and # of slots for P.C.
   PSTRESS=    0.0 pullay stress

  Mass of Ions in am
   POMASS =  32.07 63.55 55.85
  Ionic Valenz
   ZVAL   =   6.00 17.00 14.00
  Atomic Wigner-Seitz radii
   RWIGS  =  -1.00 -1.00 -1.00
  virtual crystal weights 
   VCA    =   1.00  1.00  1.00
   NELECT =     172.0000    total number of electrons
   NUPDOWN=      -1.0000    fix difference up-down

 DOS related values:
   EMIN   =  10.00;   EMAX   =-10.00  energy-range for DOS
   EFERMI =   0.00
   ISMEAR =    -5;   SIGMA  =   0.03  broadening in eV -4-tet -1-fermi 0-gaus

 Electronic relaxation 2 (details)
   IALGO  =     38    algorithm
   LDIAG  =      T    sub-space diagonalisation (order eigenvalues)
   LSUBROT=      F    optimize rotation matrix (better conditioning)
   TURBO    =      0    0=normal 1=particle mesh
   IRESTART =      0    0=no restart 2=restart with 2 vectors
   NREBOOT  =      0    no. of reboots
   NMIN     =      0    reboot dimension
   EREF     =   0.00    reference energy to select bands
   IMIX   =      4    mixing-type and parameters
     AMIX     =   0.40;   BMIX     =  1.00
     AMIX_MAG =   1.60;   BMIX_MAG =  1.00
     AMIN     =   0.10
     WC   =   100.;   INIMIX=   1;  MIXPRE=   1;  MAXMIX= -45

 Intra band minimization:
   WEIMIN = 0.0000     energy-eigenvalue tresh-hold
   EBREAK =  0.12E-10  absolut break condition
   DEPER  =   0.30     relativ break condition  

   TIME   =   0.40     timestep for ELM

  volume/ion in A,a.u.               =      17.99       121.40
  Fermi-wavevector in a.u.,A,eV,Ry     =   1.378903  2.605748 25.869741  1.901372
  Thomas-Fermi vector in A             =   2.503921
 
 Write flags
   LWAVE        =      T    write WAVECAR
   LDOWNSAMPLE  =      F    k-point downsampling of WAVECAR
   LCHARG       =      T    write CHGCAR
   LVTOT        =      F    write LOCPOT, total local potential
   LVHAR        =      F    write LOCPOT, Hartree potential only
   LELF         =      F    write electronic localiz. function (ELF)
   LORBIT       =     11    0 simple, 1 ext, 2 COOP (PROOUT), +10 PAW based schemes


 Dipole corrections
   LMONO  =      F    monopole corrections only (constant potential shift)
   LDIPOL =      F    correct potential (dipole corrections)
   IDIPOL =      0    1-x, 2-y, 3-z, 4-all directions 
   EPSILON=  1.0000000 bulk dielectric constant

 LDA+U is selected, type is set to LDAUTYPE =  2
   angular momentum for each species LDAUL =     2    2    2
   U (eV)           for each species LDAUU =   0.0  0.1  4.7
   J (eV)           for each species LDAUJ =   0.0  0.0  0.0
 Exchange correlation treatment:
   GGA     =    PS    GGA type
   LEXCH   =    14    internal setting for exchange type
   VOSKOWN=      0    Vosko Wilk Nusair interpolation
   LHFCALC =     F    Hartree Fock is set to
   LHFONE  =     F    Hartree Fock one center treatment
   AEXX    =    0.0000 exact exchange contribution

 Linear response parameters
   LEPSILON=     F    determine dielectric tensor
   LRPA    =     F    only Hartree local field effects (RPA)
   LNABLA  =     F    use nabla operator in PAW spheres
   LVEL    =     F    velocity operator in full k-point grid
   LINTERFAST=   F  fast interpolation
   KINTER  =     0    interpolate to denser k-point grid
   CSHIFT  =0.1000    complex shift for real part using Kramers Kronig
   OMEGAMAX=  -1.0    maximum frequency
   DEG_THRESHOLD= 0.2000000E-02 threshold for treating states as degnerate
   RTIME   =   -0.100 relaxation time in fs
  (WPLASMAI=    0.000 imaginary part of plasma frequency in eV, 0.658/RTIME)
   DFIELD  = 0.0000000 0.0000000 0.0000000 field for delta impulse in time
 
 Orbital magnetization related:
   ORBITALMAG=     F  switch on orbital magnetization
   LCHIMAG   =     F  perturbation theory with respect to B field
   DQ        =  0.001000  dq finite difference perturbation B field
   LLRAUG    =     F  two centre corrections for induced B field



--------------------------------------------------------------------------------------------------------


 Static calculation
 charge density and potential will be updated during run
 non collinear spin polarized calculation
 Variant of blocked Davidson
 Davidson routine will perform the subspace rotation
 perform sub-space diagonalisation
    after iterative eigenvector-optimisation
 modified Broyden-mixing scheme, WC =      100.0
 initial mixing is a Kerker type mixing with AMIX =  0.4000 and BMIX =      1.0000
 Hartree-type preconditioning will be used
 using additional bands          120
 reciprocal scheme for non local part
 use partial core corrections
 calculate Harris-corrections to forces 
   (improved forces if not selfconsistent)
 use gradient corrections 
 use of overlap-Matrix (Vanderbilt PP)
 Fermi weights with tetrahedron method with Bloechl corrections


--------------------------------------------------------------------------------------------------------


  energy-cutoff  :      700.00
  volume of cell :      287.84
      direct lattice vectors                 reciprocal lattice vectors
     5.258785656  0.000000000  0.000000000     0.190157969  0.000000000  0.000000000
     0.000000000  5.258785656  0.000000000     0.000000000  0.190157969  0.000000000
     0.000000000  0.000000000 10.408334744     0.000000000  0.000000000  0.096076848

  length of vectors
     5.258785656  5.258785656 10.408334744     0.190157969  0.190157969  0.096076848


 
 old parameters found on file WAVECAR:
  energy-cutoff  :      700.00
  volume of cell :      287.84
      direct lattice vectors                 reciprocal lattice vectors
     5.258802266  0.000000000  0.000000000     0.190157368  0.000000000  0.000000000
     0.000000000  5.258802266  0.000000000     0.000000000  0.190157368  0.000000000
     0.000000000  0.000000000 10.408164879     0.000000000  0.000000000  0.096078416

  length of vectors

 
 k-points in units of 2pi/SCALE and weight: Automatic mesh                          
   0.00000000  0.00000000  0.00000000       0.009
   0.03169299  0.00000000  0.00000000       0.037
   0.06338599  0.00000000  0.00000000       0.037
   0.09507898  0.00000000  0.00000000       0.019
   0.03169299  0.03169299  0.00000000       0.037
   0.06338599  0.03169299  0.00000000       0.074
   0.09507898  0.03169299  0.00000000       0.037
   0.06338599  0.06338599  0.00000000       0.037
   0.09507898  0.06338599  0.00000000       0.037
   0.09507898  0.09507898  0.00000000       0.009
   0.00000000  0.00000000  0.03202562       0.019
   0.03169299  0.00000000  0.03202562       0.074
   0.06338599  0.00000000  0.03202562       0.074
   0.09507898  0.00000000  0.03202562       0.037
   0.03169299  0.03169299  0.03202562       0.037
   0.06338599  0.03169299  0.03202562       0.074
   0.09507898  0.03169299  0.03202562       0.074
  -0.06338599  0.03169299  0.03202562       0.074
  -0.03169299  0.03169299  0.03202562       0.037
   0.06338599  0.06338599  0.03202562       0.037
   0.09507898  0.06338599  0.03202562       0.074
  -0.06338599  0.06338599  0.03202562       0.037
   0.09507898  0.09507898  0.03202562       0.019
 
 k-points in reciprocal lattice and weights: Automatic mesh                          
   0.00000000  0.00000000  0.00000000       0.009
   0.16666667  0.00000000  0.00000000       0.037
   0.33333333  0.00000000  0.00000000       0.037
   0.50000000  0.00000000  0.00000000       0.019
   0.16666667  0.16666667  0.00000000       0.037
   0.33333333  0.16666667  0.00000000       0.074
   0.50000000  0.16666667  0.00000000       0.037
   0.33333333  0.33333333  0.00000000       0.037
   0.50000000  0.33333333  0.00000000       0.037
   0.50000000  0.50000000  0.00000000       0.009
   0.00000000  0.00000000  0.33333333       0.019
   0.16666667  0.00000000  0.33333333       0.074
   0.33333333  0.00000000  0.33333333       0.074
   0.50000000  0.00000000  0.33333333       0.037
   0.16666667  0.16666667  0.33333333       0.037
   0.33333333  0.16666667  0.33333333       0.074
   0.50000000  0.16666667  0.33333333       0.074
  -0.33333333  0.16666667  0.33333333       0.074
  -0.16666667  0.16666667  0.33333333       0.037
   0.33333333  0.33333333  0.33333333       0.037
   0.50000000  0.33333333  0.33333333       0.074
  -0.33333333  0.33333333  0.33333333       0.037
   0.50000000  0.50000000  0.33333333       0.019
 
 position of ions in fractional coordinates (direct lattice) 
   0.25239099  0.25000000  0.12500000
   0.74760904  0.75000000  0.12500000
   0.25000000  0.74760904  0.87500000
   0.75000000  0.25239099  0.87500000
   0.24760901  0.25000000  0.62500000
   0.75239096  0.75000000  0.62500000
   0.75000000  0.24760901  0.37500000
   0.25000000  0.75239096  0.37500000
   0.00000000  0.00000000  0.50000000
   0.50000000  0.00000000  0.25000000
   0.50000000  0.50000000  0.00000000
   0.00000000  0.50000000  0.75000000
   0.00000000  0.00000000  0.00000000
   0.50000000  0.00000000  0.75000000
   0.50000000  0.50000000  0.50000000
   0.00000000  0.50000000  0.25000000
 
 position of ions in cartesian coordinates  (Angst):
   1.32727013  1.31469641  1.30104184
   3.93151568  3.94408924  1.30104184
   1.31469641  3.93151568  9.10729290
   3.94408924  1.32727013  9.10729290
   1.30212269  1.31469641  6.50520922
   3.95666280  3.94408924  6.50520922
   3.94408924  1.30212269  3.90312553
   1.31469641  3.95666280  3.90312553
   0.00000000  0.00000000  5.20416737
   2.62939283  0.00000000  2.60208369
   2.62939283  2.62939283  0.00000000
   0.00000000  2.62939283  7.80625106
   0.00000000  0.00000000  0.00000000
   2.62939283  0.00000000  7.80625106
   2.62939283  2.62939283  5.20416737
   0.00000000  2.62939283  2.60208369
 
 Euler angles ALPHA=     0.0000000  BETA=     0.0000000

 transformation matrix from SAXIS to cartesian coordinates
 ---------------------------------------------------------
     1.0000000 m_x     0.0000000 m_y     0.0000000 m_z
     0.0000000 m_x     1.0000000 m_y     0.0000000 m_z
     0.0000000 m_x     0.0000000 m_y     1.0000000 m_z

 transformation matrix from cartesian coordinates to SAXIS
 ---------------------------------------------------------
     1.0000000 m_x     0.0000000 m_y     0.0000000 m_z
     0.0000000 m_x     1.0000000 m_y     0.0000000 m_z
     0.0000000 m_x     0.0000000 m_y     1.0000000 m_z




--------------------------------------------------------------------------------------------------------


 k-point  1 :   0.0000 0.0000 0.0000  plane waves:   24210
 k-point  2 :   0.1667 0.0000 0.0000  plane waves:   24242
 k-point  3 :   0.3333 0.0000 0.0000  plane waves:   24274
 k-point  4 :   0.5000 0.0000 0.0000  plane waves:   24228
 k-point  5 :   0.1667 0.1667 0.0000  plane waves:   24192
 k-point  6 :   0.3333 0.1667 0.0000  plane waves:   24238
 k-point  7 :   0.5000 0.1667 0.0000  plane waves:   24204
 k-point  8 :   0.3333 0.3333 0.0000  plane waves:   24164
 k-point  9 :   0.5000 0.3333 0.0000  plane waves:   24192
 k-point 10 :   0.5000 0.5000 0.0000  plane waves:   24176
 k-point 11 :   0.0000 0.0000 0.3333  plane waves:   24210
 k-point 12 :   0.1667 0.0000 0.3333  plane waves:   24222
 k-point 13 :   0.3333 0.0000 0.3333  plane waves:   24218
 k-point 14 :   0.5000 0.0000 0.3333  plane waves:   24256
 k-point 15 :   0.1667 0.1667 0.3333  plane waves:   24206
 k-point 16 :   0.3333 0.1667 0.3333  plane waves:   24200
 k-point 17 :   0.5000 0.1667 0.3333  plane waves:   24244
 k-point 18 :  -0.3333 0.1667 0.3333  plane waves:   24200
 k-point 19 :  -0.1667 0.1667 0.3333  plane waves:   24206
 k-point 20 :   0.3333 0.3333 0.3333  plane waves:   24176
 k-point 21 :   0.5000 0.3333 0.3333  plane waves:   24136
 k-point 22 :  -0.3333 0.3333 0.3333  plane waves:   24176
 k-point 23 :   0.5000 0.5000 0.3333  plane waves:   24176

 maximum and minimum number of plane-waves per node :       800      712

 maximum number of plane-waves:     24274
 maximum index in each direction: 
   IXMAX=   11   IYMAX=   11   IZMAX=   22
   IXMIN=  -11   IYMIN=  -11   IZMIN=  -22


 parallel 3D FFT for wavefunctions:
    minimum data exchange during FFTs selected (reduces bandwidth)
 parallel 3D FFT for charge:
    minimum data exchange during FFTs selected (reduces bandwidth)


 total amount of memory used by VASP MPI-rank0    76176. kBytes
=======================================================================

   base      :      30000. kBytes
   nonl-proj :       3832. kBytes
   fftplans  :       2461. kBytes
   grid      :       9953. kBytes
   one-center:         62. kBytes
   wavefun   :      29868. kBytes
 
     INWAV:  cpu time   12.4287: real time   12.8008
 Broyden mixing: mesh for mixing (old mesh)
   NGX = 23   NGY = 23   NGZ = 45
  (NGX  = 96   NGY  = 96   NGZ  =180)
  gives a total of  23805 points

 initial charge density was supplied:
 number of electron     172.0000107 magnetization      -0.0000000      0.0000000      0.0000000
 keeping initial charge density in first step


--------------------------------------------------------------------------------------------------------


 Maximum index for augmentation-charges          899 (set IRDMAX)


--------------------------------------------------------------------------------------------------------


 First call to EWALD:  gamma=   0.268
 Maximum number of real-space cells 3x 3x 2
 Maximum number of reciprocal cells 2x 2x 4

    FEWALD:  cpu time    0.0046: real time    0.0046


--------------------------------------- Iteration      1(   1)  ---------------------------------------


    POTLOK:  cpu time    0.1135: real time    0.1191
    SETDIJ:  cpu time    0.6413: real time    0.6414
     EDDAV:  cpu time    2.5786: real time    2.5821
 BZINTS: Fermi energy:  4.852580;172.000000 electrons
         Band energy:***********;  BLOECHL correction:  0.000000
       DOS:  cpu time    0.0119: real time    0.0119
    CHARGE:  cpu time    0.2919: real time    0.2920
    MIXING:  cpu time    0.0197: real time    0.0198
    --------------------------------------------
      LOOP:  cpu time    3.6569: real time    3.6662

 eigenvalue-minimisations  :  8396
 total energy-change (2. order) :-0.8206500E+02  (-0.7943078E-08)
 number of electron     172.0000107 magnetization      -0.0000000      0.0000000     -0.0000000
 augmentation part       70.5571271 magnetization      -0.0000000      0.0000000     -0.0000000

 Broyden mixing:
  rms(total) = 0.86298E-05    rms(broyden)= 0.86288E-05
  rms(prec ) = 0.89843E-05
  weight for this iteration     100.00

 Free energy of the ion-electron system (eV)
  ---------------------------------------------------
  alpha Z        PSCENC =       588.68295422
  Ewald energy   TEWEN  =    -15613.51431849
  -Hartree energ DENC   =    -10741.13191227
  -exchange      EXHF   =         0.00000000
  -V(xc)+E(xc)   XCENC  =       821.62058525
  PAW double counting   =     28066.91195593   -28990.37590259
  entropy T*S    EENTRO =         0.00000000
  eigenvalues    EBANDS =     -2719.27463787
  atomic energy  EATOM  =     28505.01627691
  Solvation  Ediel_sol  =         0.00000000
  ---------------------------------------------------
  free energy    TOTEN  =       -82.06499891 eV

  energy without entropy =      -82.06499891  energy(sigma->0) =      -82.06499891


--------------------------------------------------------------------------------------------------------




--------------------------------------- Iteration      1(   2)  ---------------------------------------


    POTLOK:  cpu time    0.1098: real time    0.1108
    SETDIJ:  cpu time    0.6323: real time    0.6324
     EDDAV:  cpu time    2.5303: real time    2.5306
 BZINTS: Fermi energy:  4.852580;172.000000 electrons
         Band energy:***********;  BLOECHL correction:  0.000000
       DOS:  cpu time    0.0118: real time    0.0118
    CHARGE:  cpu time    0.2880: real time    0.2880
    MIXING:  cpu time    0.0181: real time    0.0181
    --------------------------------------------
      LOOP:  cpu time    3.5903: real time    3.5917

 eigenvalue-minimisations  :  8390
 total energy-change (2. order) : 0.2720084E-05  (-0.1891796E-06)
 number of electron     172.0000107 magnetization      -0.0000000      0.0000000     -0.0000000
 augmentation part       70.5571335 magnetization      -0.0000000      0.0000000     -0.0000000

 Broyden mixing:
  rms(total) = 0.71767E-04    rms(broyden)= 0.71766E-04
  rms(prec ) = 0.71786E-04
  weight for this iteration     100.00

 eigenvalues of (default mixing * dielectric matrix)
  average eigenvalue GAMMA=   0.0877
  0.0877

 Free energy of the ion-electron system (eV)
  ---------------------------------------------------
  alpha Z        PSCENC =       588.68295422
  Ewald energy   TEWEN  =    -15613.51431849
  -Hartree energ DENC   =    -10741.13164142
  -exchange      EXHF   =         0.00000000
  -V(xc)+E(xc)   XCENC  =       821.62058406
  PAW double counting   =     28066.91162254   -28990.37542149
  entropy T*S    EENTRO =         0.00000000
  eigenvalues    EBANDS =     -2719.27505251
  atomic energy  EATOM  =     28505.01627691
  Solvation  Ediel_sol  =         0.00000000
  ---------------------------------------------------
  free energy    TOTEN  =       -82.06499619 eV

  energy without entropy =      -82.06499619  energy(sigma->0) =      -82.06499619


--------------------------------------------------------------------------------------------------------




--------------------------------------- Iteration      1(   3)  ---------------------------------------


    POTLOK:  cpu time    0.1050: real time    0.1084
    SETDIJ:  cpu time    0.6322: real time    0.6322
     EDDAV:  cpu time    2.5296: real time    2.5299
 BZINTS: Fermi energy:  4.852584;172.000000 electrons
         Band energy:***********;  BLOECHL correction:  0.000000
       DOS:  cpu time    0.0119: real time    0.0119
    CHARGE:  cpu time    0.2851: real time    0.2851
    MIXING:  cpu time    0.0168: real time    0.0169
    --------------------------------------------
      LOOP:  cpu time    3.5805: real time    3.5843

 eigenvalue-minimisations  :  8390
 total energy-change (2. order) :-0.7089948E-06  (-0.1920199E-06)
 number of electron     172.0000107 magnetization      -0.0000000      0.0000000     -0.0000000
 augmentation part       70.5571333 magnetization      -0.0000000      0.0000000     -0.0000000

 Broyden mixing:
  rms(total) = 0.21355E-04    rms(broyden)= 0.21354E-04
  rms(prec ) = 0.21410E-04
  weight for this iteration     100.00

 eigenvalues of (default mixing * dielectric matrix)
  average eigenvalue GAMMA=   0.0702
  0.0858  0.0547

 Free energy of the ion-electron system (eV)
  ---------------------------------------------------
  alpha Z        PSCENC =       588.68295422
  Ewald energy   TEWEN  =    -15613.51431849
  -Hartree energ DENC   =    -10741.13167176
  -exchange      EXHF   =         0.00000000
  -V(xc)+E(xc)   XCENC  =       821.62058302
  PAW double counting   =     28066.91165336   -28990.37545365
  entropy T*S    EENTRO =         0.00000000
  eigenvalues    EBANDS =     -2719.27502052
  atomic energy  EATOM  =     28505.01627691
  Solvation  Ediel_sol  =         0.00000000
  ---------------------------------------------------
  free energy    TOTEN  =       -82.06499690 eV

  energy without entropy =      -82.06499690  energy(sigma->0) =      -82.06499690


--------------------------------------------------------------------------------------------------------




--------------------------------------- Iteration      1(   4)  ---------------------------------------


    POTLOK:  cpu time    0.1045: real time    0.1079
    SETDIJ:  cpu time    0.6322: real time    0.6322
     EDDAV:  cpu time    2.5269: real time    2.5271
 BZINTS: Fermi energy:  4.852581;172.000000 electrons
         Band energy:***********;  BLOECHL correction:  0.000000
       DOS:  cpu time    0.0118: real time    0.0117
    CHARGE:  cpu time    0.2861: real time    0.2861
    MIXING:  cpu time    0.0185: real time    0.0186
    --------------------------------------------
      LOOP:  cpu time    3.5800: real time    3.5837

 eigenvalue-minimisations  :  8384
 total energy-change (2. order) :-0.9794094E-06  (-0.1300271E-06)
 number of electron     172.0000107 magnetization      -0.0000000      0.0000000     -0.0000000
 augmentation part       70.5571331 magnetization      -0.0000000      0.0000000     -0.0000000

 Broyden mixing:
  rms(total) = 0.16537E-04    rms(broyden)= 0.16534E-04
  rms(prec ) = 0.16593E-04
  weight for this iteration     100.00

 eigenvalues of (default mixing * dielectric matrix)
  average eigenvalue GAMMA=   0.0878
  0.1023  0.0805  0.0805

 Free energy of the ion-electron system (eV)
  ---------------------------------------------------
  alpha Z        PSCENC =       588.68295422
  Ewald energy   TEWEN  =    -15613.51431849
  -Hartree energ DENC   =    -10741.13169762
  -exchange      EXHF   =         0.00000000
  -V(xc)+E(xc)   XCENC  =       821.62058141
  PAW double counting   =     28066.91171079   -28990.37551160
  entropy T*S    EENTRO =         0.00000000
  eigenvalues    EBANDS =     -2719.27499350
  atomic energy  EATOM  =     28505.01627691
  Solvation  Ediel_sol  =         0.00000000
  ---------------------------------------------------
  free energy    TOTEN  =       -82.06499788 eV

  energy without entropy =      -82.06499788  energy(sigma->0) =      -82.06499788


--------------------------------------------------------------------------------------------------------




--------------------------------------- Iteration      1(   5)  ---------------------------------------


    POTLOK:  cpu time    0.1049: real time    0.1093
    SETDIJ:  cpu time    0.6325: real time    0.6325
     EDDAV:  cpu time    2.5229: real time    2.5232
 BZINTS: Fermi energy:  4.852581;172.000000 electrons
         Band energy:***********;  BLOECHL correction:  0.000000
       DOS:  cpu time    0.0116: real time    0.0116
 


 total charge     
 
# of ion       s       p       d       tot
------------------------------------------
    1        1.313   2.411   0.000   3.724
    2        1.313   2.410   0.000   3.723
    3        1.314   2.410   0.000   3.723
    4        1.314   2.409   0.000   3.723
    5        1.313   2.410   0.000   3.723
    6        1.313   2.411   0.000   3.724
    7        1.314   2.410   0.000   3.723
    8        1.314   2.409   0.000   3.723
    9        0.260   6.202   8.916  15.378
   10        0.260   6.202   8.916  15.378
   11        0.260   6.202   8.916  15.378
   12        0.260   6.202   8.916  15.378
   13        0.350   6.351   5.821  12.522
   14        0.350   6.351   5.821  12.521
   15        0.350   6.351   5.821  12.522
   16        0.350   6.351   5.821  12.521
--------------------------------------------------
tot         12.946  69.492  58.949 141.387
 


 magnetization (x)
 
# of ion       s       p       d       tot
------------------------------------------
    1        0.000  -0.000   0.000   0.000
    2       -0.000   0.000   0.000   0.000
    3        0.000  -0.000   0.000  -0.000
    4        0.000  -0.000   0.000  -0.000
    5       -0.000   0.000   0.000   0.000
    6        0.000  -0.000   0.000   0.000
    7        0.000  -0.000   0.000  -0.000
    8        0.000  -0.000   0.000  -0.000
    9        0.000  -0.000   0.000   0.000
   10        0.000   0.000   0.000   0.000
   11        0.000  -0.000   0.000   0.000
   12        0.000   0.000   0.000   0.000
   13        0.000   0.000   0.000   0.000
   14       -0.000   0.000   0.000   0.000
   15        0.000   0.000   0.000   0.000
   16       -0.000   0.000   0.000   0.000
--------------------------------------------------
tot          0.000   0.000   0.000   0.000
 


 magnetization (y)
 
# of ion       s       p       d       tot
------------------------------------------
    1        0.000  -0.000   0.000  -0.000
    2        0.000  -0.000   0.000  -0.000
    3        0.000   0.000   0.000   0.000
    4       -0.000  -0.000   0.000  -0.000
    5        0.000  -0.000   0.000  -0.000
    6        0.000  -0.000   0.000  -0.000
    7        0.000   0.000   0.000   0.000
    8       -0.000  -0.000   0.000  -0.000
    9        0.000  -0.000   0.000   0.000
   10        0.000  -0.000  -0.000  -0.000
   11        0.000  -0.000   0.000   0.000
   12        0.000  -0.000  -0.000  -0.000
   13        0.000  -0.000  -0.000  -0.000
   14       -0.000  -0.000  -0.000  -0.000
   15        0.000  -0.000  -0.000  -0.000
   16       -0.000  -0.000  -0.000  -0.000
--------------------------------------------------
tot          0.000  -0.000  -0.000  -0.000
 


 magnetization (z)
 
# of ion       s       p       d       tot
------------------------------------------
    1        0.000  -0.003   0.000  -0.002
    2        0.000  -0.004   0.000  -0.003
    3       -0.000   0.003   0.000   0.003
    4       -0.000   0.003   0.000   0.003
    5        0.000  -0.004   0.000  -0.003
    6        0.000  -0.003   0.000  -0.002
    7       -0.000   0.003   0.000   0.003
    8       -0.000   0.003   0.000   0.003
    9        0.000   0.001  -0.001   0.000
   10       -0.000  -0.000   0.001  -0.000
   11        0.000   0.001  -0.001   0.000
   12       -0.000  -0.000   0.001  -0.000
   13        0.020   0.054   3.669   3.743
   14       -0.020  -0.054  -3.669  -3.743
   15        0.020   0.054   3.669   3.743
   16       -0.020  -0.054  -3.669  -3.743
--------------------------------------------------
tot         -0.000   0.000  -0.000  -0.000
 
    CHARGE:  cpu time    0.2888: real time    0.2888
    MIXING:  cpu time    0.0172: real time    0.0173
    --------------------------------------------
      LOOP:  cpu time    3.5779: real time    3.5827

 eigenvalue-minimisations  :  8384
 total energy-change (2. order) : 0.7108647E-06  (-0.1491967E-06)
 number of electron     172.0000107 magnetization      -0.0000000      0.0000000     -0.0000000
 augmentation part       70.5571327 magnetization      -0.0000000      0.0000000     -0.0000000

 Broyden mixing:
  rms(total) = 0.27727E-04    rms(broyden)= 0.27725E-04
  rms(prec ) = 0.27748E-04
  weight for this iteration     100.00

 eigenvalues of (default mixing * dielectric matrix)
  average eigenvalue GAMMA=   0.1234
  0.2378  0.1208  0.0924  0.0425

 Free energy of the ion-electron system (eV)
  ---------------------------------------------------
  alpha Z        PSCENC =       588.68295422
  Ewald energy   TEWEN  =    -15613.51431849
  -Hartree energ DENC   =    -10741.13174200
  -exchange      EXHF   =         0.00000000
  -V(xc)+E(xc)   XCENC  =       821.62058426
  PAW double counting   =     28066.91183496   -28990.37563628
  entropy T*S    EENTRO =         0.00000000
  eigenvalues    EBANDS =     -2719.27495076
  atomic energy  EATOM  =     28505.01627691
  Solvation  Ediel_sol  =         0.00000000
  ---------------------------------------------------
  free energy    TOTEN  =       -82.06499717 eV

  energy without entropy =      -82.06499717  energy(sigma->0) =      -82.06499717


--------------------------------------------------------------------------------------------------------




--------------------------------------- Iteration      1(   6)  ---------------------------------------


    POTLOK:  cpu time    0.1047: real time    0.1089
    SETDIJ:  cpu time    0.6316: real time    0.6317
     EDDAV:  cpu time    2.5232: real time    2.5235
 BZINTS: Fermi energy:  4.852587;172.000000 electrons
         Band energy:***********;  BLOECHL correction:  0.000000
       DOS:  cpu time    0.0118: real time    0.0118
    CHARGE:  cpu time    0.2847: real time    0.2848
    MIXING:  cpu time    0.0179: real time    0.0180
    --------------------------------------------
      LOOP:  cpu time    3.5740: real time    3.5786

 eigenvalue-minimisations  :  8384
 total energy-change (2. order) : 0.2888555E-08  (-0.4080445E-07)
 number of electron     172.0000107 magnetization      -0.0000000      0.0000000     -0.0000000
 augmentation part       70.5571319 magnetization      -0.0000000      0.0000000     -0.0000000

 Broyden mixing:
  rms(total) = 0.23669E-04    rms(broyden)= 0.23669E-04
  rms(prec ) = 0.23681E-04
  weight for this iteration     100.00

 eigenvalues of (default mixing * dielectric matrix)
  average eigenvalue GAMMA=   0.1322
  0.2402  0.2402  0.0748  0.0529  0.0529

 Free energy of the ion-electron system (eV)
  ---------------------------------------------------
  alpha Z        PSCENC =       588.68295422
  Ewald energy   TEWEN  =    -15613.51431849
  -Hartree energ DENC   =    -10741.13180723
  -exchange      EXHF   =         0.00000000
  -V(xc)+E(xc)   XCENC  =       821.62058583
  PAW double counting   =     28066.91201700   -28990.37581795
  entropy T*S    EENTRO =         0.00000000
  eigenvalues    EBANDS =     -2719.27488746
  atomic energy  EATOM  =     28505.01627691
  Solvation  Ediel_sol  =         0.00000000
  ---------------------------------------------------
  free energy    TOTEN  =       -82.06499717 eV

  energy without entropy =      -82.06499717  energy(sigma->0) =      -82.06499717


--------------------------------------------------------------------------------------------------------




--------------------------------------- Iteration      1(   7)  ---------------------------------------


    POTLOK:  cpu time    0.1039: real time    0.1077
    SETDIJ:  cpu time    0.6329: real time    0.6330
     EDDAV:  cpu time    2.5247: real time    2.5250
 BZINTS: Fermi energy:  4.852583;172.000000 electrons
         Band energy:***********;  BLOECHL correction:  0.000000
       DOS:  cpu time    0.0119: real time    0.0119
    CHARGE:  cpu time    0.2862: real time    0.2862
    MIXING:  cpu time    0.0206: real time    0.0206
    --------------------------------------------
      LOOP:  cpu time    3.5802: real time    3.5844

 eigenvalue-minimisations  :  8384
 total energy-change (2. order) :-0.2956549E-06  (-0.1004291E-06)
 number of electron     172.0000107 magnetization      -0.0000000      0.0000000     -0.0000000
 augmentation part       70.5571317 magnetization      -0.0000000      0.0000000     -0.0000000

 Broyden mixing:
  rms(total) = 0.27445E-04    rms(broyden)= 0.27444E-04
  rms(prec ) = 0.27452E-04
  weight for this iteration     100.00

 eigenvalues of (default mixing * dielectric matrix)
  average eigenvalue GAMMA=   0.1313
  0.2801  0.2801  0.0702  0.0702  0.0436  0.0436

 Free energy of the ion-electron system (eV)
  ---------------------------------------------------
  alpha Z        PSCENC =       588.68295422
  Ewald energy   TEWEN  =    -15613.51431849
  -Hartree energ DENC   =    -10741.13182638
  -exchange      EXHF   =         0.00000000
  -V(xc)+E(xc)   XCENC  =       821.62058556
  PAW double counting   =     28066.91207586   -28990.37587493
  entropy T*S    EENTRO =         0.00000000
  eigenvalues    EBANDS =     -2719.27487021
  atomic energy  EATOM  =     28505.01627691
  Solvation  Ediel_sol  =         0.00000000
  ---------------------------------------------------
  free energy    TOTEN  =       -82.06499746 eV

  energy without entropy =      -82.06499746  energy(sigma->0) =      -82.06499746


--------------------------------------------------------------------------------------------------------




--------------------------------------- Iteration      1(   8)  ---------------------------------------


    POTLOK:  cpu time    0.1047: real time    0.1080
    SETDIJ:  cpu time    0.6319: real time    0.6320
     EDDAV:  cpu time    2.5242: real time    2.5244
 BZINTS: Fermi energy:  4.852579;172.000000 electrons
         Band energy:***********;  BLOECHL correction:  0.000000
       DOS:  cpu time    0.0120: real time    0.0121
    CHARGE:  cpu time    0.2850: real time    0.2851
    MIXING:  cpu time    0.0223: real time    0.0224
    --------------------------------------------
      LOOP:  cpu time    3.5802: real time    3.5839

 eigenvalue-minimisations  :  8384
 total energy-change (2. order) :-0.3202294E-06  (-0.6754172E-07)
 number of electron     172.0000107 magnetization      -0.0000000      0.0000000      0.0000000
 augmentation part       70.5571318 magnetization      -0.0000000      0.0000000      0.0000000

 Broyden mixing:
  rms(total) = 0.18081E-04    rms(broyden)= 0.18080E-04
  rms(prec ) = 0.18093E-04
  weight for this iteration     100.00

 eigenvalues of (default mixing * dielectric matrix)
  average eigenvalue GAMMA=   0.1482
  0.3648  0.3648  0.0876  0.0876  0.0514  0.0514  0.0299

 Free energy of the ion-electron system (eV)
  ---------------------------------------------------
  alpha Z        PSCENC =       588.68295422
  Ewald energy   TEWEN  =    -15613.51431849
  -Hartree energ DENC   =    -10741.13182093
  -exchange      EXHF   =         0.00000000
  -V(xc)+E(xc)   XCENC  =       821.62058458
  PAW double counting   =     28066.91205997   -28990.37585764
  entropy T*S    EENTRO =         0.00000000
  eigenvalues    EBANDS =     -2719.27487640
  atomic energy  EATOM  =     28505.01627691
  Solvation  Ediel_sol  =         0.00000000
  ---------------------------------------------------
  free energy    TOTEN  =       -82.06499778 eV

  energy without entropy =      -82.06499778  energy(sigma->0) =      -82.06499778


--------------------------------------------------------------------------------------------------------




--------------------------------------- Iteration      1(   9)  ---------------------------------------


    POTLOK:  cpu time    0.1047: real time    0.1080
    SETDIJ:  cpu time    0.6318: real time    0.6318
     EDDAV:  cpu time    2.5228: real time    2.5230
 BZINTS: Fermi energy:  4.852584;172.000000 electrons
         Band energy:***********;  BLOECHL correction:  0.000000
       DOS:  cpu time    0.0118: real time    0.0118
    CHARGE:  cpu time    0.2850: real time    0.2850
    MIXING:  cpu time    0.0179: real time    0.0180
    --------------------------------------------
      LOOP:  cpu time    3.5740: real time    3.5776

 eigenvalue-minimisations  :  8384
 total energy-change (2. order) : 0.3366404E-06  (-0.8423730E-07)
 number of electron     172.0000107 magnetization      -0.0000000      0.0000000      0.0000000
 augmentation part       70.5571317 magnetization      -0.0000000      0.0000000      0.0000000

 Broyden mixing:
  rms(total) = 0.20399E-04    rms(broyden)= 0.20396E-04
  rms(prec ) = 0.20405E-04
  weight for this iteration     100.00

 eigenvalues of (default mixing * dielectric matrix)
  average eigenvalue GAMMA=   0.1459
  0.4012  0.4012  0.0818  0.0818  0.0734  0.0495  0.0495  0.0291

 Free energy of the ion-electron system (eV)
  ---------------------------------------------------
  alpha Z        PSCENC =       588.68295422
  Ewald energy   TEWEN  =    -15613.51431849
  -Hartree energ DENC   =    -10741.13183417
  -exchange      EXHF   =         0.00000000
  -V(xc)+E(xc)   XCENC  =       821.62058555
  PAW double counting   =     28066.91208997   -28990.37588401
  entropy T*S    EENTRO =         0.00000000
  eigenvalues    EBANDS =     -2719.27486743
  atomic energy  EATOM  =     28505.01627691
  Solvation  Ediel_sol  =         0.00000000
  ---------------------------------------------------
  free energy    TOTEN  =       -82.06499744 eV

  energy without entropy =      -82.06499744  energy(sigma->0) =      -82.06499744


--------------------------------------------------------------------------------------------------------




--------------------------------------- Iteration      1(  10)  ---------------------------------------


    POTLOK:  cpu time    0.1045: real time    0.1077
    SETDIJ:  cpu time    0.6317: real time    0.6317
     EDDAV:  cpu time    2.5245: real time    2.5247
 BZINTS: Fermi energy:  4.852585;172.000000 electrons
         Band energy:***********;  BLOECHL correction:  0.000000
       DOS:  cpu time    0.0121: real time    0.0121
 


 total charge     
 
# of ion       s       p       d       tot
------------------------------------------
    1        1.313   2.411   0.000   3.724
    2        1.313   2.410   0.000   3.723
    3        1.314   2.410   0.000   3.723
    4        1.314   2.409   0.000   3.723
    5        1.313   2.410   0.000   3.723
    6        1.313   2.411   0.000   3.724
    7        1.314   2.410   0.000   3.723
    8        1.314   2.409   0.000   3.723
    9        0.260   6.202   8.916  15.378
   10        0.260   6.202   8.916  15.378
   11        0.260   6.202   8.916  15.378
   12        0.260   6.202   8.916  15.378
   13        0.350   6.351   5.821  12.522
   14        0.350   6.351   5.821  12.521
   15        0.350   6.351   5.821  12.522
   16        0.350   6.351   5.821  12.521
--------------------------------------------------
tot         12.946  69.492  58.949 141.387
 


 magnetization (x)
 
# of ion       s       p       d       tot
------------------------------------------
    1       -0.000  -0.000   0.000  -0.000
    2        0.000   0.000   0.000   0.000
    3        0.000  -0.000   0.000  -0.000
    4        0.000  -0.000   0.000  -0.000
    5        0.000   0.000   0.000   0.000
    6       -0.000  -0.000   0.000  -0.000
    7        0.000  -0.000   0.000  -0.000
    8        0.000  -0.000   0.000  -0.000
    9        0.000   0.000   0.000   0.000
   10        0.000  -0.000   0.000   0.000
   11        0.000   0.000   0.000   0.000
   12        0.000  -0.000   0.000   0.000
   13       -0.000   0.000  -0.000  -0.000
   14        0.000   0.000  -0.000  -0.000
   15       -0.000   0.000  -0.000  -0.000
   16        0.000   0.000  -0.000  -0.000
--------------------------------------------------
tot          0.000   0.000   0.000   0.000
 


 magnetization (y)
 
# of ion       s       p       d       tot
------------------------------------------
    1       -0.000   0.000   0.000   0.000
    2       -0.000   0.000   0.000   0.000
    3       -0.000  -0.000   0.000  -0.000
    4        0.000   0.000   0.000   0.000
    5       -0.000   0.000   0.000   0.000
    6       -0.000   0.000   0.000   0.000
    7       -0.000  -0.000   0.000  -0.000
    8        0.000   0.000   0.000   0.000
    9       -0.000   0.000   0.000   0.000
   10       -0.000   0.000  -0.000  -0.000
   11       -0.000   0.000   0.000   0.000
   12       -0.000   0.000  -0.000  -0.000
   13       -0.000   0.000   0.000   0.000
   14       -0.000  -0.000   0.000   0.000
   15       -0.000   0.000   0.000   0.000
   16       -0.000  -0.000   0.000   0.000
--------------------------------------------------
tot         -0.000   0.000   0.000   0.000
 


 magnetization (z)
 
# of ion       s       p       d       tot
------------------------------------------
    1        0.000  -0.003   0.000  -0.002
    2        0.000  -0.004   0.000  -0.003
    3       -0.000   0.003   0.000   0.003
    4       -0.000   0.003   0.000   0.003
    5        0.000  -0.004   0.000  -0.003
    6        0.000  -0.003   0.000  -0.002
    7       -0.000   0.003   0.000   0.003
    8       -0.000   0.003   0.000   0.003
    9        0.000   0.001  -0.001   0.000
   10       -0.000  -0.000   0.001  -0.000
   11        0.000   0.001  -0.001   0.000
   12       -0.000  -0.000   0.001  -0.000
   13        0.020   0.054   3.669   3.743
   14       -0.020  -0.054  -3.669  -3.743
   15        0.020   0.054   3.669   3.743
   16       -0.020  -0.054  -3.669  -3.743
--------------------------------------------------
tot         -0.000   0.000  -0.000  -0.000
 
    CHARGE:  cpu time    0.2877: real time    0.2877
    MIXING:  cpu time    0.0204: real time    0.0204
    --------------------------------------------
      LOOP:  cpu time    3.5808: real time    3.5845

 eigenvalue-minimisations  :  8384
 total energy-change (2. order) :-0.2813467E-06  (-0.5273464E-07)
 number of electron     172.0000107 magnetization      -0.0000000      0.0000000     -0.0000000
 augmentation part       70.5571315 magnetization      -0.0000000      0.0000000     -0.0000000

 Broyden mixing:
  rms(total) = 0.19322E-04    rms(broyden)= 0.19321E-04
  rms(prec ) = 0.19328E-04
  weight for this iteration     100.00

 eigenvalues of (default mixing * dielectric matrix)
  average eigenvalue GAMMA=   0.1525
  0.4435  0.4435  0.1437  0.0857  0.0857  0.0507  0.0507  0.0394  0.0291

 Free energy of the ion-electron system (eV)
  ---------------------------------------------------
  alpha Z        PSCENC =       588.68295422
  Ewald energy   TEWEN  =    -15613.51431849
  -Hartree energ DENC   =    -10741.13185574
  -exchange      EXHF   =         0.00000000
  -V(xc)+E(xc)   XCENC  =       821.62058541
  PAW double counting   =     28066.91212571   -28990.37591705
  entropy T*S    EENTRO =         0.00000000
  eigenvalues    EBANDS =     -2719.27484870
  atomic energy  EATOM  =     28505.01627691
  Solvation  Ediel_sol  =         0.00000000
  ---------------------------------------------------
  free energy    TOTEN  =       -82.06499773 eV

  energy without entropy =      -82.06499773  energy(sigma->0) =      -82.06499773


--------------------------------------------------------------------------------------------------------




--------------------------------------- Iteration      1(  11)  ---------------------------------------


    POTLOK:  cpu time    0.1046: real time    0.1079
    SETDIJ:  cpu time    0.6320: real time    0.6320
     EDDAV:  cpu time    2.5157: real time    2.5159
 BZINTS: Fermi energy:  4.852580;172.000000 electrons
         Band energy:***********;  BLOECHL correction:  0.000000
       DOS:  cpu time    0.0117: real time    0.0117
    CHARGE:  cpu time    0.2840: real time    0.2840
    MIXING:  cpu time    0.0193: real time    0.0194
    --------------------------------------------
      LOOP:  cpu time    3.5672: real time    3.5709

 eigenvalue-minimisations  :  8384
 total energy-change (2. order) : 0.8004645E-07  (-0.7704142E-07)
 number of electron     172.0000107 magnetization      -0.0000000      0.0000000     -0.0000000
 augmentation part       70.5571313 magnetization      -0.0000000      0.0000000     -0.0000000

 Broyden mixing:
  rms(total) = 0.21335E-04    rms(broyden)= 0.21332E-04
  rms(prec ) = 0.21338E-04
  weight for this iteration     100.00

 eigenvalues of (default mixing * dielectric matrix)
  average eigenvalue GAMMA=   0.1497
  0.4684  0.4684  0.1426  0.0896  0.0807  0.0807  0.0495  0.0495  0.0386  0.0291

 Free energy of the ion-electron system (eV)
  ---------------------------------------------------
  alpha Z        PSCENC =       588.68295422
  Ewald energy   TEWEN  =    -15613.51431849
  -Hartree energ DENC   =    -10741.13187122
  -exchange      EXHF   =         0.00000000
  -V(xc)+E(xc)   XCENC  =       821.62058594
  PAW double counting   =     28066.91210417   -28990.37589138
  entropy T*S    EENTRO =         0.00000000
  eigenvalues    EBANDS =     -2719.27483778
  atomic energy  EATOM  =     28505.01627691
  Solvation  Ediel_sol  =         0.00000000
  ---------------------------------------------------
  free energy    TOTEN  =       -82.06499765 eV

  energy without entropy =      -82.06499765  energy(sigma->0) =      -82.06499765


--------------------------------------------------------------------------------------------------------




--------------------------------------- Iteration      1(  12)  ---------------------------------------


    POTLOK:  cpu time    0.1042: real time    0.1077
    SETDIJ:  cpu time    0.6330: real time    0.6330
     EDDAV:  cpu time    2.5387: real time    2.5390
 BZINTS: Fermi energy:  4.852580;172.000000 electrons
         Band energy:***********;  BLOECHL correction:  0.000000
       DOS:  cpu time    0.0119: real time    0.0119
    CHARGE:  cpu time    0.2859: real time    0.2859
    MIXING:  cpu time    0.0184: real time    0.0184
    --------------------------------------------
      LOOP:  cpu time    3.5920: real time    3.5960

 eigenvalue-minimisations  :  8384
 total energy-change (2. order) :-0.9573087E-06  (-0.1485602E-07)
 number of electron     172.0000107 magnetization      -0.0000000      0.0000000     -0.0000000
 augmentation part       70.5571312 magnetization      -0.0000000      0.0000000     -0.0000000

 Broyden mixing:
  rms(total) = 0.11970E-04    rms(broyden)= 0.11970E-04
  rms(prec ) = 0.11977E-04
  weight for this iteration     100.00

 eigenvalues of (default mixing * dielectric matrix)
  average eigenvalue GAMMA=   0.1453
  0.4725  0.4725  0.1411  0.1411  0.0713  0.0713  0.0609  0.0498  0.0498  0.0389
  0.0290

 Free energy of the ion-electron system (eV)
  ---------------------------------------------------
  alpha Z        PSCENC =       588.68295422
  Ewald energy   TEWEN  =    -15613.51431849
  -Hartree energ DENC   =    -10741.13188354
  -exchange      EXHF   =         0.00000000
  -V(xc)+E(xc)   XCENC  =       821.62058406
  PAW double counting   =     28066.91211105   -28990.37589584
  entropy T*S    EENTRO =         0.00000000
  eigenvalues    EBANDS =     -2719.27482696
  atomic energy  EATOM  =     28505.01627691
  Solvation  Ediel_sol  =         0.00000000
  ---------------------------------------------------
  free energy    TOTEN  =       -82.06499860 eV

  energy without entropy =      -82.06499860  energy(sigma->0) =      -82.06499860


--------------------------------------------------------------------------------------------------------




--------------------------------------- Iteration      1(  13)  ---------------------------------------


    POTLOK:  cpu time    0.1045: real time    0.1086
    SETDIJ:  cpu time    0.6318: real time    0.6319
     EDDAV:  cpu time    2.5167: real time    2.5169
 BZINTS: Fermi energy:  4.852580;172.000000 electrons
         Band energy:***********;  BLOECHL correction:  0.000000
       DOS:  cpu time    0.0117: real time    0.0117
    CHARGE:  cpu time    0.2832: real time    0.2832
    MIXING:  cpu time    0.0188: real time    0.0188
    --------------------------------------------
      LOOP:  cpu time    3.5666: real time    3.5711

 eigenvalue-minimisations  :  8384
 total energy-change (2. order) : 0.2315719E-06  (-0.6348034E-08)
 number of electron     172.0000107 magnetization      -0.0000000      0.0000000     -0.0000000
 augmentation part       70.5571313 magnetization      -0.0000000      0.0000000     -0.0000000

 Broyden mixing:
  rms(total) = 0.12672E-04    rms(broyden)= 0.12672E-04
  rms(prec ) = 0.12678E-04
  weight for this iteration     100.00

 eigenvalues of (default mixing * dielectric matrix)
  average eigenvalue GAMMA=   0.1495
  0.5191  0.5191  0.1699  0.1699  0.0712  0.0712  0.0630  0.0525  0.0525  0.0384
  0.0384  0.0289

 Free energy of the ion-electron system (eV)
  ---------------------------------------------------
  alpha Z        PSCENC =       588.68295422
  Ewald energy   TEWEN  =    -15613.51431849
  -Hartree energ DENC   =    -10741.13188521
  -exchange      EXHF   =         0.00000000
  -V(xc)+E(xc)   XCENC  =       821.62058466
  PAW double counting   =     28066.91210224   -28990.37588614
  entropy T*S    EENTRO =         0.00000000
  eigenvalues    EBANDS =     -2719.27482656
  atomic energy  EATOM  =     28505.01627691
  Solvation  Ediel_sol  =         0.00000000
  ---------------------------------------------------
  free energy    TOTEN  =       -82.06499837 eV

  energy without entropy =      -82.06499837  energy(sigma->0) =      -82.06499837


--------------------------------------------------------------------------------------------------------




--------------------------------------- Iteration      1(  14)  ---------------------------------------


    POTLOK:  cpu time    0.1042: real time    0.1081
    SETDIJ:  cpu time    0.6326: real time    0.6326
     EDDAV:  cpu time    2.5255: real time    2.5258
 BZINTS: Fermi energy:  4.852581;172.000000 electrons
         Band energy:***********;  BLOECHL correction:  0.000000
       DOS:  cpu time    0.0116: real time    0.0116
    CHARGE:  cpu time    0.2875: real time    0.2875
    MIXING:  cpu time    0.0190: real time    0.0191
    --------------------------------------------
      LOOP:  cpu time    3.5804: real time    3.5847

 eigenvalue-minimisations  :  8384
 total energy-change (2. order) :-0.4254725E-06  (-0.1685729E-07)
 number of electron     172.0000107 magnetization      -0.0000000      0.0000000     -0.0000000
 augmentation part       70.5571312 magnetization      -0.0000000      0.0000000     -0.0000000

 Broyden mixing:
  rms(total) = 0.10848E-04    rms(broyden)= 0.10847E-04
  rms(prec ) = 0.10854E-04
  weight for this iteration     100.00

 eigenvalues of (default mixing * dielectric matrix)
  average eigenvalue GAMMA=   0.1544
  0.5525  0.5525  0.2557  0.1520  0.0728  0.0728  0.0758  0.0758  0.0509  0.0509
  0.0393  0.0297  0.0269

 Free energy of the ion-electron system (eV)
  ---------------------------------------------------
  alpha Z        PSCENC =       588.68295422
  Ewald energy   TEWEN  =    -15613.51431849
  -Hartree energ DENC   =    -10741.13188697
  -exchange      EXHF   =         0.00000000
  -V(xc)+E(xc)   XCENC  =       821.62058377
  PAW double counting   =     28066.91207544   -28990.37585738
  entropy T*S    EENTRO =         0.00000000
  eigenvalues    EBANDS =     -2719.27482629
  atomic energy  EATOM  =     28505.01627691
  Solvation  Ediel_sol  =         0.00000000
  ---------------------------------------------------
  free energy    TOTEN  =       -82.06499880 eV

  energy without entropy =      -82.06499880  energy(sigma->0) =      -82.06499880


--------------------------------------------------------------------------------------------------------




--------------------------------------- Iteration      1(  15)  ---------------------------------------


    POTLOK:  cpu time    0.1041: real time    0.1078
    SETDIJ:  cpu time    0.6328: real time    0.6329
     EDDAV:  cpu time    2.5183: real time    2.5185
 BZINTS: Fermi energy:  4.852581;172.000000 electrons
         Band energy:***********;  BLOECHL correction:  0.000000
       DOS:  cpu time    0.0118: real time    0.0118
 


 total charge     
 
# of ion       s       p       d       tot
------------------------------------------
    1        1.313   2.411   0.000   3.724
    2        1.313   2.410   0.000   3.723
    3        1.314   2.410   0.000   3.723
    4        1.314   2.409   0.000   3.723
    5        1.313   2.410   0.000   3.723
    6        1.313   2.411   0.000   3.724
    7        1.314   2.410   0.000   3.723
    8        1.314   2.409   0.000   3.723
    9        0.260   6.202   8.916  15.378
   10        0.260   6.202   8.916  15.378
   11        0.260   6.202   8.916  15.378
   12        0.260   6.202   8.916  15.378
   13        0.350   6.351   5.821  12.522
   14        0.350   6.351   5.821  12.521
   15        0.350   6.351   5.821  12.522
   16        0.350   6.351   5.821  12.521
--------------------------------------------------
tot         12.946  69.492  58.949 141.387
 


 magnetization (x)
 
# of ion       s       p       d       tot
------------------------------------------
    1        0.000   0.000   0.000   0.000
    2       -0.000  -0.000   0.000  -0.000
    3       -0.000   0.000   0.000   0.000
    4       -0.000   0.000   0.000   0.000
    5       -0.000  -0.000   0.000  -0.000
    6        0.000   0.000   0.000   0.000
    7       -0.000   0.000   0.000   0.000
    8       -0.000   0.000   0.000   0.000
    9        0.000  -0.000  -0.000  -0.000
   10       -0.000   0.000   0.000   0.000
   11        0.000  -0.000  -0.000  -0.000
   12       -0.000   0.000   0.000   0.000
   13        0.000   0.000   0.000   0.000
   14       -0.000   0.000   0.000   0.000
   15        0.000   0.000   0.000   0.000
   16       -0.000   0.000   0.000   0.000
--------------------------------------------------
tot         -0.000   0.000   0.000   0.000
 


 magnetization (y)
 
# of ion       s       p       d       tot
------------------------------------------
    1        0.000  -0.000   0.000  -0.000
    2        0.000  -0.000   0.000  -0.000
    3        0.000   0.000   0.000   0.000
[...]
 -0.000   0.000  -0.000   0.000   0.000   0.000  -0.000  -0.000   0.000   0.000   0.000   0.000  -0.000  -0.000   0.000   0.000
  0.000  -0.000   0.000  -0.000   0.000   0.000  -0.000  -0.000   0.000   0.000   0.000   0.000  -0.000  -0.000   0.000   0.000
 -0.000   0.000  -0.000   0.000  -0.000  -0.000   0.000   0.000  -0.000  -0.000  -0.000  -0.000   0.000   0.000  -0.000  -0.000
 -0.000   0.000  -0.000   0.000   0.000   0.000  -0.000  -0.000   0.000   0.000   0.000   0.000  -0.000  -0.000   0.000   0.000
 pseudopotential strength for first ion, spin component:           4
 39.518   0.000  45.384   0.000  -0.001   0.000  -0.001   0.000  -0.003   0.000  -0.001   0.000  -0.001   0.000  -0.004   0.000
 45.384   0.000  52.123   0.000  -0.001   0.000  -0.001   0.000  -0.003   0.000  -0.001   0.000  -0.001   0.000  -0.005   0.000
 -0.001   0.000  -0.001   0.000   8.205   0.000   0.002   0.000  -0.000   0.000  11.122   0.000   0.002   0.000  -0.001   0.000
 -0.001   0.000  -0.001   0.000   0.002   0.000   8.205   0.000  -0.001   0.000   0.002   0.000  11.122   0.000  -0.001   0.000
 -0.003   0.000  -0.003   0.000  -0.000   0.000  -0.001   0.000   8.205   0.000  -0.001   0.000  -0.001   0.000  11.122   0.000
 -0.001   0.000  -0.001   0.000  11.122   0.000   0.002   0.000  -0.001   0.000  15.094   0.000   0.003   0.000  -0.001   0.000
 -0.001   0.000  -0.001   0.000   0.002   0.000  11.122   0.000  -0.001   0.000   0.003   0.000  15.095   0.000  -0.001   0.000
 -0.004   0.000  -0.005   0.000  -0.001   0.000  -0.001   0.000  11.122   0.000  -0.001   0.000  -0.001   0.000  15.095   0.000
 total augmentation occupancy for first ion, spin component:           1
 10.860  -6.728  -0.000   0.000  -0.555   0.000   0.000   0.148
 -6.728   4.869   0.000   0.000   0.456  -0.000   0.000  -0.091
 -0.000   0.000   3.637   0.082   0.000  -1.028  -0.043   0.000
  0.000   0.000   0.082   3.611   0.000  -0.043  -1.017   0.000
 -0.555   0.456  -0.000   0.000   3.636   0.000   0.000  -1.030
  0.000  -0.000  -1.028  -0.043   0.000   0.344   0.015   0.000
  0.000   0.000  -0.043  -1.017   0.000   0.015   0.340   0.000
  0.148  -0.091  -0.000   0.000  -1.030   0.000   0.000   0.346
 total augmentation occupancy for first ion, spin component:           2
 -0.000   0.000   0.000   0.000   0.000   0.000  -0.000  -0.000
  0.000  -0.000   0.000   0.000  -0.000  -0.000   0.000   0.000
  0.000   0.000  -0.000  -0.000  -0.000   0.000   0.000   0.000
  0.000  -0.000  -0.000  -0.000   0.000   0.000   0.000   0.000
  0.000  -0.000  -0.000  -0.000  -0.000  -0.000  -0.000   0.000
  0.000  -0.000   0.000   0.000  -0.000  -0.000  -0.000  -0.000
 -0.000   0.000   0.000   0.000  -0.000  -0.000  -0.000  -0.000
 -0.000   0.000   0.000   0.000   0.000  -0.000  -0.000  -0.000
 total augmentation occupancy for first ion, spin component:           3
  0.000   0.000   0.000  -0.000   0.000  -0.000   0.000   0.000
 -0.000  -0.000  -0.000   0.000  -0.000   0.000  -0.000  -0.000
  0.000  -0.000  -0.000   0.000   0.000   0.000  -0.000  -0.000
 -0.000   0.000  -0.000   0.000   0.000   0.000  -0.000  -0.000
  0.000  -0.000   0.000   0.000   0.000  -0.000  -0.000  -0.000
 -0.000   0.000  -0.000  -0.000  -0.000  -0.000  -0.000   0.000
  0.000  -0.000  -0.000  -0.000  -0.000  -0.000   0.000   0.000
  0.000  -0.000  -0.000  -0.000  -0.000   0.000   0.000   0.000
 total augmentation occupancy for first ion, spin component:           4
  0.000   0.000   0.113   0.098  -0.000   0.080   0.079  -0.000
  0.000   0.000  -0.090  -0.077   0.000  -0.088  -0.086   0.000
  0.113  -0.090  -0.000   0.000   0.006   0.000   0.000  -0.005
  0.098  -0.077   0.000  -0.000   0.008  -0.000  -0.000  -0.004
  0.000   0.000   0.006   0.008  -0.000  -0.005  -0.004  -0.000
  0.080  -0.088  -0.000  -0.000  -0.005   0.000   0.000   0.015
  0.079  -0.086  -0.000  -0.000  -0.004  -0.000   0.000   0.014
 -0.000   0.000  -0.005  -0.004  -0.000   0.015   0.014   0.000


------------------------ aborting loop because EDIFF is reached ----------------------------------------


 


 total charge     
 
# of ion       s       p       d       tot
------------------------------------------
    1        1.313   2.411   0.000   3.724
    2        1.313   2.410   0.000   3.723
    3        1.314   2.410   0.000   3.723
    4        1.314   2.409   0.000   3.723
    5        1.313   2.410   0.000   3.723
    6        1.313   2.411   0.000   3.724
    7        1.314   2.410   0.000   3.723
    8        1.314   2.409   0.000   3.723
    9        0.260   6.202   8.916  15.378
   10        0.260   6.202   8.916  15.378
   11        0.260   6.202   8.916  15.378
   12        0.260   6.202   8.916  15.378
   13        0.350   6.351   5.821  12.522
   14        0.350   6.351   5.821  12.521
   15        0.350   6.351   5.821  12.522
   16        0.350   6.351   5.821  12.521
--------------------------------------------------
tot         12.946  69.492  58.949 141.387
 


 magnetization (x)
 
# of ion       s       p       d       tot
------------------------------------------
    1        0.000   0.000   0.000   0.000
    2       -0.000  -0.000   0.000  -0.000
    3        0.000   0.000   0.000   0.000
    4        0.000  -0.000   0.000  -0.000
    5       -0.000  -0.000   0.000  -0.000
    6        0.000   0.000   0.000   0.000
    7        0.000   0.000   0.000   0.000
    8        0.000  -0.000   0.000  -0.000
    9        0.000  -0.000   0.000   0.000
   10       -0.000   0.000   0.000   0.000
   11        0.000  -0.000   0.000   0.000
   12       -0.000   0.000   0.000   0.000
   13       -0.000   0.000  -0.000  -0.000
   14        0.000  -0.000  -0.000  -0.000
   15       -0.000   0.000  -0.000  -0.000
   16        0.000  -0.000  -0.000  -0.000
--------------------------------------------------
tot          0.000   0.000   0.000   0.000
 


 magnetization (y)
 
# of ion       s       p       d       tot
------------------------------------------
    1       -0.000  -0.000   0.000  -0.000
    2       -0.000  -0.000   0.000  -0.000
    3        0.000   0.000   0.000   0.000
    4       -0.000  -0.000   0.000  -0.000
    5       -0.000  -0.000   0.000  -0.000
    6       -0.000  -0.000   0.000  -0.000
    7        0.000   0.000   0.000   0.000
    8       -0.000  -0.000   0.000  -0.000
    9       -0.000  -0.000  -0.000  -0.000
   10       -0.000   0.000  -0.000  -0.000
   11       -0.000  -0.000  -0.000  -0.000
   12       -0.000   0.000  -0.000  -0.000
   13       -0.000  -0.000  -0.000  -0.000
   14        0.000  -0.000   0.000   0.000
   15       -0.000  -0.000  -0.000  -0.000
   16        0.000  -0.000   0.000   0.000
--------------------------------------------------
tot         -0.000  -0.000  -0.000  -0.000
 


 magnetization (z)
 
# of ion       s       p       d       tot
------------------------------------------
    1        0.000  -0.003   0.000  -0.002
    2        0.000  -0.004   0.000  -0.003
    3       -0.000   0.003   0.000   0.003
    4       -0.000   0.003   0.000   0.003
    5        0.000  -0.004   0.000  -0.003
    6        0.000  -0.003   0.000  -0.002
    7       -0.000   0.003   0.000   0.003
    8       -0.000   0.003   0.000   0.003
    9        0.000   0.001  -0.001   0.000
   10       -0.000  -0.000   0.001  -0.000
   11        0.000   0.001  -0.001   0.000
   12       -0.000  -0.000   0.001  -0.000
   13        0.020   0.054   3.669   3.743
   14       -0.020  -0.054  -3.669  -3.743
   15        0.020   0.054   3.669   3.743
   16       -0.020  -0.054  -3.669  -3.743
--------------------------------------------------
tot         -0.000   0.000  -0.000  -0.000
 
    CHARGE:  cpu time    0.2899: real time    0.2899
    FORLOC:  cpu time    0.0056: real time    0.0056
    FORNL :  cpu time    0.7752: real time    0.7752
    STRESS:  cpu time    0.7267: real time    0.7268
    FORCOR:  cpu time    0.1014: real time    0.1016
    FORHAR:  cpu time    0.0139: real time    0.0139
    MIXING:  cpu time    0.0301: real time    0.0302
    OFIELD:  cpu time    0.0004: real time    0.0004

  FORCE on cell =-STRESS in cart. coord.  units (eV):
  Direction    XX          YY          ZZ          XY          YZ          ZX
  --------------------------------------------------------------------------------------
  Alpha Z   588.68295   588.68295   588.68295
  Ewald   -5196.21819 -5196.21819 -5221.11808    -0.00000    -0.00000    -0.00000
  Hartree  3580.24410  3580.24410  3580.64375    -0.00000    -0.00000    -0.00000
  E(xc)   -1050.67047 -1050.67047 -1050.66850    -0.00000    -0.00000    -0.00000
  Local   -1265.97800 -1265.97800 -1238.44913    -0.00000    -0.00000    -0.00000
  n-local   120.78976   122.41379   121.63046    -0.24089    -0.01865    -0.02414
  augment  1181.41948  1181.41948  1179.21098     0.00000     0.00000    -0.00000
  Kinetic  2035.42884  2046.40761  2040.06770    -0.86873     0.11937    -0.03684
  Fock        0.00000     0.00000     0.00000     0.00000     0.00000     0.00000
  -------------------------------------------------------------------------------------
  Total      -0.00013    -0.00013     0.00014     0.00000     0.00000     0.00000
  in kB      -0.00074    -0.00074     0.00077     0.00000     0.00000     0.00000
  external pressure =       -0.00 kB  Pullay stress =        0.00 kB


 VOLUME and BASIS-vectors are now :
 -----------------------------------------------------------------------------
  energy-cutoff  :      700.00
  volume of cell :      287.84
      direct lattice vectors                 reciprocal lattice vectors
     5.258785656  0.000000000  0.000000000     0.190157969  0.000000000  0.000000000
     0.000000000  5.258785656  0.000000000     0.000000000  0.190157969  0.000000000
     0.000000000  0.000000000 10.408334744     0.000000000  0.000000000  0.096076848

  length of vectors
     5.258785656  5.258785656 10.408334744     0.190157969  0.190157969  0.096076848


 FORCES acting on ions
    electron-ion (+dipol)            ewald-force                    non-local-force                 convergence-correction
 -----------------------------------------------------------------------------------------------
   0.423E+02 -.121E-12 -.524E-13   -.431E+02 -.142E-13 0.000E+00   0.824E+00 0.729E-18 0.304E-18   0.145E-05 -.852E-13 0.361E-12
   -.423E+02 0.351E-12 0.773E-12   0.431E+02 -.142E-13 -.568E-13   -.824E+00 0.257E-18 0.239E-19   -.477E-06 0.201E-12 0.390E-12
   0.424E-12 -.423E+02 0.685E-12   0.302E-13 0.431E+02 0.142E-12   0.298E-18 -.824E+00 0.191E-18   -.688E-13 -.476E-06 -.334E-12
   0.591E-12 0.423E+02 0.153E-12   -.266E-13 -.431E+02 0.426E-13   -.161E-18 0.824E+00 0.224E-18   0.950E-13 0.145E-05 -.351E-12
   -.423E+02 -.425E-12 0.317E-13   0.431E+02 0.409E-13 -.426E-13   -.824E+00 0.199E-18 -.726E-19   -.145E-05 -.330E-13 -.274E-12
   0.423E+02 -.190E-12 0.312E-12   -.431E+02 -.311E-13 -.426E-13   0.824E+00 0.589E-18 -.556E-18   0.477E-06 0.868E-13 -.298E-12
   0.374E-12 -.423E+02 0.625E-12   0.426E-13 0.431E+02 -.284E-13   -.133E-18 -.824E+00 -.271E-18   -.181E-13 -.145E-05 0.286E-12
   0.169E-12 0.423E+02 0.384E-12   -.426E-13 -.431E+02 0.000E+00   -.161E-18 0.824E+00 0.128E-18   0.335E-13 0.476E-06 0.340E-12
   0.143E-05 -.318E-05 0.227E-12   0.104E-04 -.234E-04 0.000E+00   -.479E-18 0.537E-18 0.854E-18   -.798E-06 0.123E-05 -.143E-12
   -.143E-05 -.318E-05 -.860E-11   -.104E-04 -.234E-04 0.171E-12   0.338E-18 0.267E-18 -.156E-17   0.798E-06 0.123E-05 0.145E-11
   -.143E-05 0.318E-05 -.321E-13   -.104E-04 0.234E-04 -.171E-12   -.326E-18 0.209E-18 0.271E-17   0.798E-06 -.123E-05 -.231E-12
   0.143E-05 0.318E-05 0.533E-12   0.104E-04 0.234E-04 0.135E-13   0.480E-18 0.572E-18 -.106E-17   -.798E-06 -.123E-05 -.190E-11
   -.105E-05 0.266E-05 0.183E-12   -.783E-05 0.195E-04 0.000E+00   0.748E-18 -.581E-19 -.329E-17   0.543E-06 -.101E-05 -.276E-12
   0.105E-05 0.266E-05 -.343E-10   0.783E-05 0.195E-04 -.157E-12   -.551E-18 0.363E-18 0.332E-17   -.543E-06 -.101E-05 -.173E-11
   0.105E-05 -.266E-05 -.113E-10   0.783E-05 -.195E-04 0.114E-12   0.498E-18 0.528E-18 -.276E-17   -.543E-06 0.101E-05 -.578E-12
   -.105E-05 -.266E-05 0.301E-12   -.783E-05 -.195E-04 0.273E-17   -.749E-18 -.393E-19 0.383E-17   0.543E-06 0.101E-05 0.666E-12
 -----------------------------------------------------------------------------------------------
   0.266E-10 0.140E-10 -.500E-10   0.362E-13 -.102E-13 -.154E-13   -.222E-15 0.224E-15 0.201E-17   0.106E-11 -.874E-12 -.262E-11
 
 
 POSITION                                       TOTAL-FORCE (eV/Angst)
 -----------------------------------------------------------------------------------
      1.32727      1.31470      1.30104        -0.000007      0.000000      0.000000
      3.93152      3.94409      1.30104         0.000007      0.000000      0.000000
      1.31470      3.93152      9.10729         0.000000      0.000007     -0.000000
      3.94409      1.32727      9.10729         0.000000     -0.000007     -0.000000
      1.30212      1.31470      6.50521         0.000007      0.000000      0.000000
      3.95666      3.94409      6.50521        -0.000007      0.000000     -0.000000
      3.94409      1.30212      3.90313         0.000000      0.000007     -0.000000
      1.31470      3.95666      3.90313         0.000000     -0.000007     -0.000000
      0.00000      0.00000      5.20417        -0.000000      0.000000     -0.000000
      2.62939      0.00000      2.60208         0.000000      0.000000      0.000000
      2.62939      2.62939      0.00000        -0.000000      0.000000     -0.000000
      0.00000      2.62939      7.80625         0.000000      0.000000      0.000000
      0.00000      0.00000      0.00000         0.000000      0.000000      0.000000
      2.62939      0.00000      7.80625        -0.000000      0.000000     -0.000000
      2.62939      2.62939      5.20417         0.000000      0.000000      0.000000
      0.00000      2.62939      2.60208        -0.000000      0.000000     -0.000000
 -----------------------------------------------------------------------------------
    total drift:                                0.000000      0.000000     -0.000000


--------------------------------------------------------------------------------------------------------



  FREE ENERGIE OF THE ION-ELECTRON SYSTEM (eV)
  ---------------------------------------------------
  free  energy   TOTEN  =       -82.06499758 eV

  energy  without entropy=      -82.06499758  energy(sigma->0) =      -82.06499758
 


--------------------------------------------------------------------------------------------------------


    POTLOK:  cpu time    0.7473: real time    0.7475


--------------------------------------------------------------------------------------------------------


 writing wavefunctions
     LOOP+:  cpu time  247.7101: real time  254.7309
    4ORBIT:  cpu time    0.0000: real time    0.0000
 


 total charge     
 
# of ion       s       p       d       tot
------------------------------------------
    1        1.313   2.411   0.000   3.724
    2        1.313   2.410   0.000   3.723
    3        1.314   2.410   0.000   3.723
    4        1.314   2.409   0.000   3.723
    5        1.313   2.410   0.000   3.723
    6        1.313   2.411   0.000   3.724
    7        1.314   2.410   0.000   3.723
    8        1.314   2.409   0.000   3.723
    9        0.260   6.202   8.916  15.378
   10        0.260   6.202   8.916  15.378
   11        0.260   6.202   8.916  15.378
   12        0.260   6.202   8.916  15.378
   13        0.350   6.351   5.821  12.522
   14        0.350   6.351   5.821  12.521
   15        0.350   6.351   5.821  12.522
   16        0.350   6.351   5.821  12.521
--------------------------------------------------
tot         12.946  69.492  58.949 141.387
 


 magnetization (x)
 
# of ion       s       p       d       tot
------------------------------------------
    1        0.000   0.000   0.000   0.000
    2       -0.000  -0.000   0.000  -0.000
    3        0.000   0.000   0.000   0.000
    4        0.000  -0.000   0.000  -0.000
    5       -0.000  -0.000   0.000  -0.000
    6        0.000   0.000   0.000   0.000
    7        0.000   0.000   0.000   0.000
    8        0.000  -0.000   0.000  -0.000
    9        0.000  -0.000   0.000   0.000
   10       -0.000   0.000   0.000   0.000
   11        0.000  -0.000   0.000   0.000
   12       -0.000   0.000   0.000   0.000
   13       -0.000   0.000  -0.000  -0.000
   14        0.000  -0.000  -0.000  -0.000
   15       -0.000   0.000  -0.000  -0.000
   16        0.000  -0.000  -0.000  -0.000
--------------------------------------------------
tot          0.000   0.000   0.000   0.000
 


 magnetization (y)
 
# of ion       s       p       d       tot
------------------------------------------
    1       -0.000  -0.000   0.000  -0.000
    2       -0.000  -0.000   0.000  -0.000
    3        0.000   0.000   0.000   0.000
    4       -0.000  -0.000   0.000  -0.000
    5       -0.000  -0.000   0.000  -0.000
    6       -0.000  -0.000   0.000  -0.000
    7        0.000   0.000   0.000   0.000
    8       -0.000  -0.000   0.000  -0.000
    9       -0.000  -0.000  -0.000  -0.000
   10       -0.000   0.000  -0.000  -0.000
   11       -0.000  -0.000  -0.000  -0.000
   12       -0.000   0.000  -0.000  -0.000
   13       -0.000  -0.000  -0.000  -0.000
   14        0.000  -0.000   0.000   0.000
   15       -0.000  -0.000  -0.000  -0.000
   16        0.000  -0.000   0.000   0.000
--------------------------------------------------
tot         -0.000  -0.000  -0.000  -0.000
 


 magnetization (z)
 
# of ion       s       p       d       tot
------------------------------------------
    1        0.000  -0.003   0.000  -0.002
    2        0.000  -0.004   0.000  -0.003
    3       -0.000   0.003   0.000   0.003
    4       -0.000   0.003   0.000   0.003
    5        0.000  -0.004   0.000  -0.003
    6        0.000  -0.003   0.000  -0.002
    7       -0.000   0.003   0.000   0.003
    8       -0.000   0.003   0.000   0.003
    9        0.000   0.001  -0.001   0.000
   10       -0.000  -0.000   0.001  -0.000
   11        0.000   0.001  -0.001   0.000
   12       -0.000  -0.000   0.001  -0.000
   13        0.020   0.054   3.669   3.743
   14       -0.020  -0.054  -3.669  -3.743
   15        0.020   0.054   3.669   3.743
   16       -0.020  -0.054  -3.669  -3.743
--------------------------------------------------
tot         -0.000   0.000  -0.000  -0.000
 
 BZINTS: Fermi energy:  4.852580;172.000000 electrons
         Band energy:***********;  BLOECHL correction:  0.000000
 BZINTS: Fermi energy:  4.852580;172.000000 electrons
         Band energy:***********;  BLOECHL correction:  0.000000
 BZINTS: Fermi energy:  4.852580;172.000000 electrons
         Band energy:***********;  BLOECHL correction:  0.000000
 BZINTS: Fermi energy:  4.852580;172.000000 electrons
         Band energy:***********;  BLOECHL correction:  0.000000

 total amount of memory used by VASP MPI-rank0    76176. kBytes
=======================================================================

   base      :      30000. kBytes
   nonl-proj :       3832. kBytes
   fftplans  :       2461. kBytes
   grid      :       9953. kBytes
   one-center:         62. kBytes
   wavefun   :      29868. kBytes
 
  
  
 General timing and accounting informations for this job:
 ========================================================
  
                  Total CPU time used (sec):      277.715
                            User time (sec):      268.030
                          System time (sec):        9.684
                         Elapsed time (sec):      285.801
  
                   Maximum memory used (kb):      177620.
                   Average memory used (kb):           0.
  
                          Minor page faults:        32004
                          Major page faults:           46
                 Voluntary context switches:        32517
