       N       E                     dE             d eps       ncg     rms          ort
SDA:   1    -0.820510268424E+02   -0.82051E+02    0.00000E+00  4784   0.420E-05 0.000E+00
CGA:   2    -0.820510287013E+02   -0.18589E-05   -0.41763E-07  4784   0.320E-05 0.366E-05
CGA:   3    -0.820510301197E+02   -0.14183E-05   -0.31050E-07  4784   0.253E-05 0.283E-05
CGA:   4    -0.820510312440E+02   -0.11244E-05   -0.25237E-07  4784   0.213E-05 0.231E-05
CGA:   5    -0.820510322012E+02   -0.95720E-06   -0.23890E-07  4784   0.176E-05 0.192E-05
CGA:   6    -0.820510330932E+02   -0.89201E-06   -0.25519E-07  4784   0.146E-05 0.159E-05
CGA:   7    -0.820510340032E+02   -0.90993E-06   -0.33198E-07  4784   0.114E-05 0.127E-05
CGA:   8    -0.820510353114E+02   -0.13082E-05   -0.81184E-07  4784   0.599E-06 0.656E-06
CGA:   9    -0.820510355269E+02   -0.21554E-06   -0.96747E-08  4784   0.516E-06 0.544E-06
CGA:  10    -0.820510355930E+02   -0.66080E-07   -0.27069E-07  4784   0.367E-06 0.397E-06
CGA:  11    -0.820510360589E+02   -0.46590E-06   -0.76514E-08  4784   0.360E-06 0.294E-06
CGA:  12    -0.820510358840E+02    0.17494E-06   -0.33250E-08  4784   0.321E-06 0.258E-06
CGA:  13    -0.820510359000E+02   -0.16058E-07   -0.42565E-08  4784   0.325E-06 0.228E-06
CGA:  14    -0.820510359593E+02   -0.59241E-07   -0.31525E-08  4784   0.286E-06 0.198E-06
CGA:  15    -0.820510361934E+02   -0.23409E-06   -0.22579E-08  4784   0.258E-06 0.195E-06
CGA:  16    -0.820510363119E+02   -0.11855E-06   -0.11996E-08  4784   0.248E-06 0.202E-06
CGA:  17    -0.820510363185E+02   -0.65902E-08   -0.93369E-09  4784   0.246E-06 0.188E-06
   1 F= -.82051036E+02 E0= -.82051036E+02  d E =0.000000E+00  mag=     0.0000    -0.0000     0.0000
