 vasp.5.4.4.18Apr17-6-g9f103f2a35 (build Oct 04 2018 15:53:47) complex          
  
 executed on             LinuxIFC date 2022.10.07  15:46:26
 running on  256 total cores
 distrk:  each k-point on  256 cores,    1 groups
 distr:  one band on NCORES_PER_BAND=  32 cores,    8 groups


--------------------------------------------------------------------------------------------------------


 INCAR:
 POTCAR:    PAW_PBE S 06Sep2000                   
 POTCAR:     PAW_PBE Cu_pv 06Sep2000              
 POTCAR:     PAW_PBE Fe_pv 02Aug2007              
 POTCAR:    PAW_PBE S 06Sep2000                   
   SHA256 =  0fc7481fb0695f01bdc6462160264c5c84044ae9ec85a907d398b887a2bc3132 S/
   COPYR  = (c) Copyright 06Sep2000 Georg Kresse                                
   COPYR  = This file is part of the software VASP. Any use, copying, and all ot
   COPYR  = If you do not have a valid VASP license, you may not use, copy or di
   VRHFIN =S : s2p4                                                             
   LEXCH  = PE                                                                  
   EATOM  =   276.8230 eV,   20.3459 Ry                                         
                                                                                
   TITEL  = PAW_PBE S 06Sep2000                                                 
   LULTRA =        F    use ultrasoft PP ?                                      
   IUNSCR =        1    unscreen: 0-lin 1-nonlin 2-no                           
   RPACOR =    1.500    partial core radius                                     
   POMASS =   32.066; ZVAL   =    6.000    mass and valenz                      
   RCORE  =    1.900    outmost cutoff radius                                   
   RWIGS  =    2.200; RWIGS  =    1.164    wigner-seitz radius (au A)           
   ENMAX  =  258.689; ENMIN  =  194.016 eV                                      
   ICORE  =        2    local potential                                         
   LCOR   =        T    correct aug charges                                     
   LPAW   =        T    paw PP                                                  
   EAUG   =  335.092                                                            
   DEXC   =    0.000                                                            
   RMAX   =    1.942    core radius for proj-oper                               
   RAUG   =    1.300    factor for augmentation sphere                          
   RDEP   =    1.954    radius for radial grids                                 
   RDEPT  =    1.744    core radius for aug-charge                              
                                                                                
   Atomic configuration                                                         
    6 entries                                                                   
     n  l   j            E        occ.                                          
     1  0  0.50     -2405.8406   2.0000                                         
     2  0  0.50      -211.7007   2.0000                                         
     2  1  1.50      -156.4958   6.0000                                         
     3  0  0.50       -17.2562   2.0000                                         
     3  1  0.50        -7.0085   4.0000                                         
     3  2  1.50        -6.8029   0.0000                                         
   Description                                                                  
     l       E           TYP  RCUT    TYP  RCUT                                 
     0    -17.2561641     23  1.900                                             
     0    -15.8743224     23  1.900                                             
     1     -7.0085400     23  1.900                                             
     1     -2.7779785     23  1.900                                             
     2     -6.8029130     23  1.900                                             
  local pseudopotential read in
  partial core-charges read in
  partial kinetic energy density read in
  atomic valenz-charges read in
  non local Contribution for L=           0  read in
    real space projection operators read in
  non local Contribution for L=           0  read in
    real space projection operators read in
  non local Contribution for L=           1  read in
    real space projection operators read in
  non local Contribution for L=           1  read in
    real space projection operators read in
    PAW grid and wavefunctions read in
 
   number of l-projection  operators is LMAX  =           4
   number of lm-projection operators is LMMAX =           8
 
 POTCAR:     PAW_PBE Cu_pv 06Sep2000              
   SHA256 =  cb7b504e2ea725fe1f25c85a9ac77d4012ce94cd394135b722c4e25ec297f1cb Cu
   COPYR  = (c) Copyright 06Sep2000 Georg Kresse                                
   COPYR  = This file is part of the software VASP. Any use, copying, and all ot
   COPYR  = If you do not have a valid VASP license, you may not use, copy or di
   VRHFIN =Cu: d10 p1                                                           
   LEXCH  = PE                                                                  
   EATOM  =  4120.1201 eV,  302.8203 Ry                                         
                                                                                
   TITEL  = PAW_PBE Cu_pv 06Sep2000                                             
   LULTRA =        F    use ultrasoft PP ?                                      
   IUNSCR =        1    unscreen: 0-lin 1-nonlin 2-no                           
   RPACOR =    1.500    partial core radius                                     
   POMASS =   63.546; ZVAL   =   17.000    mass and valenz                      
   RCORE  =    2.000    outmost cutoff radius                                   
   RWIGS  =    2.000; RWIGS  =    1.058    wigner-seitz radius (au A)           
   ENMAX  =  368.648; ENMIN  =  276.486 eV                                      
   RCLOC  =    1.304    cutoff for local pot                                    
   LCOR   =        T    correct aug charges                                     
   LPAW   =        T    paw PP                                                  
   EAUG   =  758.233                                                            
   DEXC   =    0.000                                                            
   RMAX   =    2.046    core radius for proj-oper                               
   RAUG   =    1.300    factor for augmentation sphere                          
   RDEP   =    2.025    radius for radial grids                                 
   RDEPT  =    1.558    core radius for aug-charge                              
                                                                                
   Atomic configuration                                                         
    8 entries                                                                   
     n  l   j            E        occ.                                          
     1  0  0.50     -8850.2467   2.0000                                         
     2  0  0.50     -1062.3498   2.0000                                         
     2  1  1.50      -916.8226   6.0000                                         
     3  0  0.50      -114.6929   2.0000                                         
     3  1  1.50       -72.1325   6.0000                                         
     3  2  2.50        -5.0394  10.0000                                         
     4  0  0.50        -4.6097   1.0000                                         
     4  3  2.50        -1.3606   0.0000                                         
   Description                                                                  
     l       E           TYP  RCUT    TYP  RCUT                                 
     1    -72.1324777     23  1.700                                             
     1     -1.3605826     23  1.700                                             
     2     -5.0393776     23  2.000                                             
     2     -6.3999602     23  2.000                                             
     0     -4.6097062     23  1.800                                             
     0     14.1620818     23  1.800                                             
  local pseudopotential read in
  partial core-charges read in
  partial kinetic energy density read in
  atomic valenz-charges read in
  non local Contribution for L=           1  read in
    real space projection operators read in
  non local Contribution for L=           1  read in
    real space projection operators read in
  non local Contribution for L=           2  read in
    real space projection operators read in
  non local Contribution for L=           2  read in
    real space projection operators read in
  non local Contribution for L=           0  read in
    real space projection operators read in
  non local Contribution for L=           0  read in
    real space projection operators read in
    PAW grid and wavefunctions read in
 
   number of l-projection  operators is LMAX  =           6
   number of lm-projection operators is LMMAX =          18
 
 POTCAR:     PAW_PBE Fe_pv 02Aug2007              
   SHA256 =  5d22e414b1f82158bf2c7ecb8b97b28fd0923e48cadc1c3bf74d524558f5dd32 Fe
   COPYR  = (c) Copyright 02Aug2007 Georg Kresse                                
   COPYR  = This file is part of the software VASP. Any use, copying, and all ot
   COPYR  = If you do not have a valid VASP license, you may not use, copy or di
   VRHFIN =Fe:  3pd7s1                                                          
   LEXCH  = PE                                                                  
   EATOM  =  2457.4239 eV,  180.6156 Ry                                         
                                                                                
   TITEL  = PAW_PBE Fe_pv 02Aug2007                                             
   LULTRA =        F    use ultrasoft PP ?                                      
   IUNSCR =        1    unscreen: 0-lin 1-nonlin 2-no                           
   RPACOR =    1.750    partial core radius                                     
   POMASS =   55.847; ZVAL   =   14.000    mass and valenz                      
   RCORE  =    2.200    outmost cutoff radius                                   
   RWIGS  =    2.200; RWIGS  =    1.164    wigner-seitz radius (au A)           
   ENMAX  =  293.238; ENMIN  =  219.928 eV                                      
   ICORE  =        3    local potential                                         
   LCOR   =        T    correct aug charges                                     
   LPAW   =        T    paw PP                                                  
   EAUG   =  578.342                                                            
   DEXC   =    0.000                                                            
   RMAX   =    2.249    core radius for proj-oper                               
   RAUG   =    1.300    factor for augmentation sphere                          
   RDEP   =    2.296    radius for radial grids                                 
   RDEPT  =    1.766    core radius for aug-charge                              
                                                                                
   Atomic configuration                                                         
    8 entries                                                                   
     n  l   j            E        occ.                                          
     1  0  0.50     -6993.8440   2.0000                                         
     2  0  0.50      -814.6047   2.0000                                         
     2  1  1.50      -693.3689   6.0000                                         
     3  0  0.50       -89.4732   2.0000                                         
     3  1  1.50       -55.6373   6.0000                                         
     3  2  2.50        -3.8151   7.0000                                         
     4  0  0.50        -4.2551   1.0000                                         
     4  3  2.50        -1.3606   0.0000                                         
   Description                                                                  
     l       E           TYP  RCUT    TYP  RCUT                                 
     1    -55.6372668     23  2.000                                             
     1     -5.4423304     23  2.000                                             
     2     -3.8151096     23  2.200                                             
     2     -5.1756922     23  2.200                                             
     0     -4.2550951     23  2.200                                             
     0     27.2116520     23  2.200                                             
     3     -1.3605826     23  2.200                                             
  local pseudopotential read in
  partial core-charges read in
  partial kinetic energy density read in
  atomic valenz-charges read in
  non local Contribution for L=           1  read in
    real space projection operators read in
  non local Contribution for L=           1  read in
    real space projection operators read in
  non local Contribution for L=           2  read in
    real space projection operators read in
  non local Contribution for L=           2  read in
    real space projection operators read in
  non local Contribution for L=           0  read in
    real space projection operators read in
  non local Contribution for L=           0  read in
    real space projection operators read in
    PAW grid and wavefunctions read in
 
   number of l-projection  operators is LMAX  =           6
   number of lm-projection operators is LMMAX =          18
 

 ----------------------------------------------------------------------------- 
|                                                                             |
|  ADVICE TO THIS USER RUNNING 'VASP/VAMP'   (HEAR YOUR MASTER'S VOICE ...):  |
|                                                                             |
|      You enforced a specific xc-type in the INCAR file,                     |
|      a different type was found on the POTCAR file                          |
|          I HOPE YOU KNOW, WHAT YOU ARE  DOING                               |
|                                                                             |
 ----------------------------------------------------------------------------- 

  PAW_PBE S 06Sep2000                   :
 energy of atom  1       EATOM= -276.8230
 kinetic energy error for atom=    0.0007 (will be added to EATOM!!)
   PAW_PBE Cu_pv 06Sep2000              :
 energy of atom  2       EATOM=-4120.1201
 kinetic energy error for atom=    0.0094 (will be added to EATOM!!)
   PAW_PBE Fe_pv 02Aug2007              :
 energy of atom  3       EATOM=-2457.4239
 kinetic energy error for atom=    0.0025 (will be added to EATOM!!)
 
 
 POSCAR: sm_isp_SD0310437-standardized_unitcell  
  positions in direct lattice
  velocities in cartesian coordinates
 exchange correlation table for  LEXCH =       14
   RHO(1)=    0.500       N(1)  =     2000
   RHO(2)=  100.500       N(2)  =     4000
 


--------------------------------------------------------------------------------------------------------


 ion  position               nearest neighbor table
   1  0.253  0.250  0.125-  10 2.26  11 2.26  13 2.27  16 2.27
   2  0.747  0.750  0.125-  10 2.26  11 2.26  13 2.27  16 2.27
   3  0.250  0.747  0.875-  11 2.26  12 2.26  13 2.27  14 2.27
   4  0.750  0.253  0.875-  11 2.26  12 2.26  13 2.27  14 2.27
   5  0.247  0.250  0.625-   9 2.26  12 2.26  14 2.27  15 2.27
   6  0.753  0.750  0.625-   9 2.26  12 2.26  14 2.27  15 2.27
   7  0.750  0.247  0.375-   9 2.26  10 2.26  15 2.27  16 2.27
   8  0.250  0.753  0.375-   9 2.26  10 2.26  15 2.27  16 2.27
   9  0.000  0.000  0.500-   5 2.26   7 2.26   6 2.26   8 2.26
  10  0.500  0.000  0.250-   7 2.26   1 2.26   2 2.26   8 2.26
  11  0.500  0.500  0.000-   1 2.26   4 2.26   3 2.26   2 2.26
  12  0.000  0.500  0.750-   5 2.26   4 2.26   3 2.26   6 2.26
  13  0.000  0.000  0.000-   2 2.27   3 2.27   1 2.27   4 2.27
  14  0.500  0.000  0.750-   3 2.27   6 2.27   4 2.27   5 2.27
  15  0.500  0.500  0.500-   6 2.27   8 2.27   7 2.27   5 2.27
  16  0.000  0.500  0.250-   2 2.27   8 2.27   1 2.27   7 2.27
 
  LATTYP: Found a simple tetragonal cell.
 ALAT       =     5.2061977990
 C/A-ratio  =     2.0285985167
  
  Lattice vectors:
  
 A1 = (   5.2061977990,   0.0000000000,   0.0000000000)
 A2 = (   0.0000000000,   5.2061977990,   0.0000000000)
 A3 = (   0.0000000000,   0.0000000000,  10.5612851325)


Analysis of symmetry for initial positions (statically):
=====================================================================
 Subroutine PRICEL returns following result:
 
  LATTYP: Found a body centered tetragonal cell.
 ALAT       =     5.2061977990
 C/A-ratio  =     2.0285985167
  
  Lattice vectors:
  
 A1 = (   2.6030988995,  -2.6030988995,   5.2806425662)
 A2 = (  -2.6030988995,   2.6030988995,   5.2806425662)
 A3 = (  -2.6030988995,  -2.6030988995,  -5.2806425662)
 
   2 primitive cells build up your supercell.
 

 Routine SETGRP: Setting up the symmetry group for a 
 simple tetragonal supercell.


 Subroutine GETGRP returns: Found  8 space group operations
 (whereof  4 operations were pure point group operations)
 out of a pool of 16 trial point group operations.


The static configuration has the point symmetry S_4 .
 The point group associated with its full space group is D_2d.


Analysis of symmetry for dynamics (positions and initial velocities):
=====================================================================
 Subroutine PRICEL returns following result:
 
  LATTYP: Found a body centered tetragonal cell.
 ALAT       =     5.2061977990
 C/A-ratio  =     2.0285985167
  
  Lattice vectors:
  
 A1 = (   2.6030988995,  -2.6030988995,   5.2806425662)
 A2 = (  -2.6030988995,   2.6030988995,   5.2806425662)
 A3 = (  -2.6030988995,  -2.6030988995,  -5.2806425662)
 
   2 primitive cells build up your supercell.
 

 Routine SETGRP: Setting up the symmetry group for a 
 simple tetragonal supercell.


 Subroutine GETGRP returns: Found  8 space group operations
 (whereof  4 operations were pure point group operations)
 out of a pool of 16 trial point group operations.


The dynamic configuration has the point symmetry S_4 .
 The point group associated with its full space group is D_2d.


Analysis of structural, dynamic, and magnetic symmetry:
=====================================================================
 Subroutine PRICEL returns following result:
 
  LATTYP: Found a body centered tetragonal cell.
 ALAT       =     5.2061977990
 C/A-ratio  =     2.0285985167
  
  Lattice vectors:
  
 A1 = (   2.6030988995,  -2.6030988995,   5.2806425662)
 A2 = (  -2.6030988995,   2.6030988995,   5.2806425662)
 A3 = (  -2.6030988995,  -2.6030988995,  -5.2806425662)
 
   2 primitive cells build up your supercell.
 

 Routine SETGRP: Setting up the symmetry group for a 
 simple tetragonal supercell.


 Subroutine GETGRP returns: Found  8 space group operations
 (whereof  4 operations were pure point group operations)
 out of a pool of 16 trial point group operations.


The (compounded) configuration has the point symmetry S_4 .
 The point group associated with its full space group is D_2d.


 Subroutine INISYM returns: Found  8 space group operations
 (whereof  4 operations are pure point group operations),
 and found     2 'primitive' translations

 
 
 KPOINTS: Automatic mesh                          

Automatic generation of k-mesh.
Space group operators:
 irot       det(A)        alpha          n_x          n_y          n_z        tau_x        tau_y        tau_z
    1     1.000000     0.000001     1.000000     0.000000     0.000000     0.000000     0.000000     0.000000
    2    -1.000000    90.000000     0.000000     0.000000    -1.000000     0.000000     0.000000     0.000000
    3     1.000000   179.999999     0.000000     0.000000     1.000000     0.000000     0.000000     0.000000
    4    -1.000000    90.000000     0.000000     0.000000     1.000000     0.000000     0.000000     0.000000
    5     1.000000   180.000000     0.000000     1.000000     0.000000     0.000000    -0.500000     0.250000
    6    -1.000000   180.000000     0.707107     0.707107     0.000000     0.000000    -0.500000     0.250000
    7     1.000000   180.000000     1.000000     0.000000     0.000000     0.000000    -0.500000     0.250000
    8    -1.000000   180.000000     0.707107    -0.707107     0.000000     0.000000    -0.500000     0.250000
 
 Subroutine IBZKPT returns following result:
 ===========================================
 
 Found     23 irreducible k-points:
 
 Following reciprocal coordinates:
            Coordinates               Weight
  0.000000  0.000000  0.000000      1.000000
  0.166667  0.000000  0.000000      4.000000
  0.333333  0.000000  0.000000      4.000000
  0.500000  0.000000  0.000000      2.000000
  0.166667  0.166667  0.000000      4.000000
  0.333333  0.166667  0.000000      8.000000
  0.500000  0.166667  0.000000      4.000000
  0.333333  0.333333  0.000000      4.000000
  0.500000  0.333333  0.000000      4.000000
  0.500000  0.500000  0.000000      1.000000
  0.000000  0.000000  0.333333      2.000000
  0.166667  0.000000  0.333333      8.000000
  0.333333  0.000000  0.333333      8.000000
  0.500000  0.000000  0.333333      4.000000
  0.166667  0.166667  0.333333      4.000000
  0.333333  0.166667  0.333333      8.000000
  0.500000  0.166667  0.333333      8.000000
 -0.333333  0.166667  0.333333      8.000000
 -0.166667  0.166667  0.333333      4.000000
  0.333333  0.333333  0.333333      4.000000
  0.500000  0.333333  0.333333      8.000000
 -0.333333  0.333333  0.333333      4.000000
  0.500000  0.500000  0.333333      2.000000
 
 Following cartesian coordinates:
            Coordinates               Weight
  0.000000  0.000000  0.000000      1.000000
  0.032013  0.000000  0.000000      4.000000
  0.064026  0.000000  0.000000      4.000000
  0.096039  0.000000  0.000000      2.000000
  0.032013  0.032013  0.000000      4.000000
  0.064026  0.032013  0.000000      8.000000
  0.096039  0.032013  0.000000      4.000000
  0.064026  0.064026  0.000000      4.000000
  0.096039  0.064026  0.000000      4.000000
  0.096039  0.096039  0.000000      1.000000
  0.000000  0.000000  0.031562      2.000000
  0.032013  0.000000  0.031562      8.000000
  0.064026  0.000000  0.031562      8.000000
  0.096039  0.000000  0.031562      4.000000
  0.032013  0.032013  0.031562      4.000000
  0.064026  0.032013  0.031562      8.000000
  0.096039  0.032013  0.031562      8.000000
 -0.064026  0.032013  0.031562      8.000000
 -0.032013  0.032013  0.031562      4.000000
  0.064026  0.064026  0.031562      4.000000
  0.096039  0.064026  0.031562      8.000000
 -0.064026  0.064026  0.031562      4.000000
  0.096039  0.096039  0.031562      2.000000
 
 TETIRR: Found    274 inequivalent tetrahedra from      648


--------------------------------------------------------------------------------------------------------




 Dimension of arrays:
   k-points           NKPTS =     23   k-points in BZ     NKDIM =     23   number of bands    NBANDS=    208
   number of dos      NEDOS =    301   number of ions     NIONS =     16
   non local maximal  LDIM  =      6   non local SUM 2l+1 LMDIM =     18
   total plane-waves  NPLWV = 221184
   max r-space proj   IRMAX =      1   max aug-charges    IRDMAX=  24540
   dimension x,y,z NGX =    48 NGY =   48 NGZ =   96
   dimension x,y,z NGXF=    96 NGYF=   96 NGZF=  192
   support grid    NGXF=    96 NGYF=   96 NGZF=  192
   ions per type =               8   4   4
   NGX,Y,Z   is equivalent  to a cutoff of  15.33, 15.33, 15.11 a.u.
   NGXF,Y,Z  is equivalent  to a cutoff of  30.66, 30.66, 30.22 a.u.

 SYSTEM =  CuFeS2                                  
 POSCAR =  sm_isp_SD0310437-standardized_unitcell  

 Startparameter for this run:
   NWRITE =      2    write-flag & timer
   PREC   = accura    normal or accurate (medium, high low for compatibility)
   ISTART =      1    job   : 0-new  1-cont  2-samecut
   ICHARG =      1    charge: 1-file 2-atom 10-const
   ISPIN  =      1    spin polarized calculation?
   LNONCOLLINEAR =      T non collinear calculations
   LSORBIT =      F    spin-orbit coupling
   INIWAV =      1    electr: 0-lowe 1-rand  2-diag
   LASPH  =      T    aspherical Exc in radial PAW
   METAGGA=      F    non-selfconsistent MetaGGA calc.

 Electronic Relaxation 1
   ENCUT  =  700.0 eV  51.45 Ry    7.17 a.u.  11.23 11.23 22.78*2*pi/ulx,y,z
   ENINI  =  700.0     initial cutoff
   ENAUG  =  758.2 eV  augmentation charge cutoff
   NELM   =    200;   NELMIN=  2; NELMDL=  0     # of ELM steps 
   EDIFF  = 0.1E-07   stopping-criterion for ELM
   LREAL  =      F    real-space projection
   NLSPLINE    = F    spline interpolate recip. space projectors
   LCOMPAT=      F    compatible to vasp.4.4
   GGA_COMPAT  = T    GGA compatible to vasp.4.4-vasp.4.6
   LMAXPAW     = -100 max onsite density
   LMAXMIX     =    4 max onsite mixed and CHGCAR
   VOSKOWN=      0    Vosko Wilk Nusair interpolation
   ROPT   =    0.00000   0.00000   0.00000
 Ionic relaxation
   EDIFFG = -.1E-04   stopping-criterion for IOM
   NSW    =      0    number of steps for IOM
   NBLOCK =      1;   KBLOCK =      1    inner block; outer block 
   IBRION =     -1    ionic relax: 0-MD 1-quasi-New 2-CG
   NFREE  =      0    steps in history (QN), initial steepest desc. (CG)
   ISIF   =      2    stress and relaxation
   IWAVPR =     10    prediction:  0-non 1-charg 2-wave 3-comb
   ISYM   =      1    0-nonsym 1-usesym 2-fastsym
   LCORR  =      T    Harris-Foulkes like correction to forces

   POTIM  = 0.1000    time-step for ionic-motion
   TEIN   =    0.0    initial temperature
   TEBEG  =    0.0;   TEEND  =   0.0 temperature during run
   SMASS  =  -3.00    Nose mass-parameter (am)
   estimated Nose-frequenzy (Omega)   =  0.10E-29 period in steps =****** mass=  -0.619E-27a.u.
   SCALEE = 1.0000    scale energy and forces
   NPACO  =    256;   APACO  = 16.0  distance and # of slots for P.C.
   PSTRESS=    0.0 pullay stress

  Mass of Ions in am
   POMASS =  32.07 63.55 55.85
  Ionic Valenz
   ZVAL   =   6.00 17.00 14.00
  Atomic Wigner-Seitz radii
   RWIGS  =  -1.00 -1.00 -1.00
  virtual crystal weights 
   VCA    =   1.00  1.00  1.00
   NELECT =     172.0000    total number of electrons
   NUPDOWN=      -1.0000    fix difference up-down

 DOS related values:
   EMIN   =  10.00;   EMAX   =-10.00  energy-range for DOS
   EFERMI =   0.00
   ISMEAR =    -5;   SIGMA  =   0.03  broadening in eV -4-tet -1-fermi 0-gaus

 Electronic relaxation 2 (details)
   IALGO  =     58    algorithm
   LDIAG  =      T    sub-space diagonalisation (order eigenvalues)
   LSUBROT=      F    optimize rotation matrix (better conditioning)
   TURBO    =      0    0=normal 1=particle mesh
   IRESTART =      0    0=no restart 2=restart with 2 vectors
   NREBOOT  =      0    no. of reboots
   NMIN     =      0    reboot dimension
   EREF     =   0.00    reference energy to select bands
   IMIX   =      4    mixing-type and parameters
     AMIX     =   0.40;   BMIX     =  1.00
     AMIX_MAG =   1.60;   BMIX_MAG =  1.00
     AMIN     =   0.10
     WC   =   100.;   INIMIX=   1;  MIXPRE=   1;  MAXMIX= -45

 Intra band minimization:
   WEIMIN = 0.0000     energy-eigenvalue tresh-hold
   EBREAK =  0.12E-10  absolut break condition
   DEPER  =   0.30     relativ break condition  

   TIME   =   0.40     timestep for ELM

  volume/ion in A,a.u.               =      17.89       120.74
  Fermi-wavevector in a.u.,A,eV,Ry     =   1.381439  2.610541 25.964989  1.908373
  Thomas-Fermi vector in A             =   2.506223
 
 Write flags
   LWAVE        =      T    write WAVECAR
   LDOWNSAMPLE  =      F    k-point downsampling of WAVECAR
   LCHARG       =      T    write CHGCAR
   LVTOT        =      F    write LOCPOT, total local potential
   LVHAR        =      F    write LOCPOT, Hartree potential only
   LELF         =      F    write electronic localiz. function (ELF)
   LORBIT       =     11    0 simple, 1 ext, 2 COOP (PROOUT), +10 PAW based schemes


 Dipole corrections
   LMONO  =      F    monopole corrections only (constant potential shift)
   LDIPOL =      F    correct potential (dipole corrections)
   IDIPOL =      0    1-x, 2-y, 3-z, 4-all directions 
   EPSILON=  1.0000000 bulk dielectric constant

 LDA+U is selected, type is set to LDAUTYPE =  2
   angular momentum for each species LDAUL =     2    2    2
   U (eV)           for each species LDAUU =   0.0  0.1  4.7
   J (eV)           for each species LDAUJ =   0.0  0.0  0.0
 Exchange correlation treatment:
   GGA     =    PS    GGA type
   LEXCH   =    14    internal setting for exchange type
   VOSKOWN=      0    Vosko Wilk Nusair interpolation
   LHFCALC =     F    Hartree Fock is set to
   LHFONE  =     F    Hartree Fock one center treatment
   AEXX    =    0.0000 exact exchange contribution

 Linear response parameters
   LEPSILON=     F    determine dielectric tensor
   LRPA    =     F    only Hartree local field effects (RPA)
   LNABLA  =     F    use nabla operator in PAW spheres
   LVEL    =     F    velocity operator in full k-point grid
   LINTERFAST=   F  fast interpolation
   KINTER  =     0    interpolate to denser k-point grid
   CSHIFT  =0.1000    complex shift for real part using Kramers Kronig
   OMEGAMAX=  -1.0    maximum frequency
   DEG_THRESHOLD= 0.2000000E-02 threshold for treating states as degnerate
   RTIME   =   -0.100 relaxation time in fs
  (WPLASMAI=    0.000 imaginary part of plasma frequency in eV, 0.658/RTIME)
   DFIELD  = 0.0000000 0.0000000 0.0000000 field for delta impulse in time
 
 Orbital magnetization related:
   ORBITALMAG=     F  switch on orbital magnetization
   LCHIMAG   =     F  perturbation theory with respect to B field
   DQ        =  0.001000  dq finite difference perturbation B field
   LLRAUG    =     F  two centre corrections for induced B field



--------------------------------------------------------------------------------------------------------


 Static calculation
 charge density and potential will be updated during run
 non collinear spin polarized calculation
 Conjugate gradient for all bands (Freysoldt, et al. PRB 79, 241103 (2009))
 preconditioned conjugated gradient                                        
 perform sub-space diagonalisation
    before iterative eigenvector-optimisation
 modified Broyden-mixing scheme, WC =      100.0
 initial mixing is a Kerker type mixing with AMIX =  0.4000 and BMIX =      1.0000
 Hartree-type preconditioning will be used
 using additional bands          122
 reciprocal scheme for non local part
 use partial core corrections
 no Harris-corrections to forces 
 use gradient corrections 
 use of overlap-Matrix (Vanderbilt PP)
 Fermi weights with tetrahedron method with Bloechl corrections


--------------------------------------------------------------------------------------------------------


  energy-cutoff  :      700.00
  volume of cell :      286.26
      direct lattice vectors                 reciprocal lattice vectors
     5.206197799  0.000000000  0.000000000     0.192078757  0.000000000  0.000000000
     0.000000000  5.206197799  0.000000000     0.000000000  0.192078757  0.000000000
     0.000000000  0.000000000 10.561285132     0.000000000  0.000000000  0.094685447

  length of vectors
     5.206197799  5.206197799 10.561285132     0.192078757  0.192078757  0.094685447


 
 old parameters found on file WAVECAR:
  energy-cutoff  :      700.00
  volume of cell :      286.29
      direct lattice vectors                 reciprocal lattice vectors
     5.206197799  0.000000000  0.000000000     0.192078757  0.000000000  0.000000000
     0.000000000  5.206197799  0.000000000     0.000000000  0.192078757  0.000000000
     0.000000000  0.000000000 10.562602167     0.000000000  0.000000000  0.094673640

  length of vectors

 
 k-points in units of 2pi/SCALE and weight: Automatic mesh                          
   0.00000000  0.00000000  0.00000000       0.009
   0.03201313  0.00000000  0.00000000       0.037
   0.06402625  0.00000000  0.00000000       0.037
   0.09603938  0.00000000  0.00000000       0.019
   0.03201313  0.03201313  0.00000000       0.037
   0.06402625  0.03201313  0.00000000       0.074
   0.09603938  0.03201313  0.00000000       0.037
   0.06402625  0.06402625  0.00000000       0.037
   0.09603938  0.06402625  0.00000000       0.037
   0.09603938  0.09603938  0.00000000       0.009
   0.00000000  0.00000000  0.03156182       0.019
   0.03201313  0.00000000  0.03156182       0.074
   0.06402625  0.00000000  0.03156182       0.074
   0.09603938  0.00000000  0.03156182       0.037
   0.03201313  0.03201313  0.03156182       0.037
   0.06402625  0.03201313  0.03156182       0.074
   0.09603938  0.03201313  0.03156182       0.074
  -0.06402625  0.03201313  0.03156182       0.074
  -0.03201313  0.03201313  0.03156182       0.037
   0.06402625  0.06402625  0.03156182       0.037
   0.09603938  0.06402625  0.03156182       0.074
  -0.06402625  0.06402625  0.03156182       0.037
   0.09603938  0.09603938  0.03156182       0.019
 
 k-points in reciprocal lattice and weights: Automatic mesh                          
   0.00000000  0.00000000  0.00000000       0.009
   0.16666667  0.00000000  0.00000000       0.037
   0.33333333  0.00000000  0.00000000       0.037
   0.50000000  0.00000000  0.00000000       0.019
   0.16666667  0.16666667  0.00000000       0.037
   0.33333333  0.16666667  0.00000000       0.074
   0.50000000  0.16666667  0.00000000       0.037
   0.33333333  0.33333333  0.00000000       0.037
   0.50000000  0.33333333  0.00000000       0.037
   0.50000000  0.50000000  0.00000000       0.009
   0.00000000  0.00000000  0.33333333       0.019
   0.16666667  0.00000000  0.33333333       0.074
   0.33333333  0.00000000  0.33333333       0.074
   0.50000000  0.00000000  0.33333333       0.037
   0.16666667  0.16666667  0.33333333       0.037
   0.33333333  0.16666667  0.33333333       0.074
   0.50000000  0.16666667  0.33333333       0.074
  -0.33333333  0.16666667  0.33333333       0.074
  -0.16666667  0.16666667  0.33333333       0.037
   0.33333333  0.33333333  0.33333333       0.037
   0.50000000  0.33333333  0.33333333       0.074
  -0.33333333  0.33333333  0.33333333       0.037
   0.50000000  0.50000000  0.33333333       0.019
 
 position of ions in fractional coordinates (direct lattice) 
   0.25262961  0.25000000  0.12500000
   0.74737042  0.75000000  0.12500000
   0.25000000  0.74737042  0.87500000
   0.75000000  0.25262961  0.87500000
   0.24737039  0.25000000  0.62500000
   0.75262958  0.75000000  0.62500000
   0.75000000  0.24737039  0.37500000
   0.25000000  0.75262958  0.37500000
   0.00000000  0.00000000  0.50000000
   0.50000000  0.00000000  0.25000000
   0.50000000  0.50000000  0.00000000
   0.00000000  0.50000000  0.75000000
   0.00000000  0.00000000  0.00000000
   0.50000000  0.00000000  0.75000000
   0.50000000  0.50000000  0.50000000
   0.00000000  0.50000000  0.25000000
 
 position of ions in cartesian coordinates  (Angst):
   1.31523973  1.30154945  1.32016064
   3.89095823  3.90464835  1.32016064
   1.30154945  3.89095823  9.24112449
   3.90464835  1.31523973  9.24112449
   1.28785917  1.30154945  6.60080321
   3.91833847  3.90464835  6.60080321
   3.90464835  1.28785917  3.96048192
   1.30154945  3.91833847  3.96048192
   0.00000000  0.00000000  5.28064257
   2.60309890  0.00000000  2.64032128
   2.60309890  2.60309890  0.00000000
   0.00000000  2.60309890  7.92096385
   0.00000000  0.00000000  0.00000000
   2.60309890  0.00000000  7.92096385
   2.60309890  2.60309890  5.28064257
   0.00000000  2.60309890  2.64032128
 
 Euler angles ALPHA=     0.0000000  BETA=     0.0000000

 transformation matrix from SAXIS to cartesian coordinates
 ---------------------------------------------------------
     1.0000000 m_x     0.0000000 m_y     0.0000000 m_z
     0.0000000 m_x     1.0000000 m_y     0.0000000 m_z
     0.0000000 m_x     0.0000000 m_y     1.0000000 m_z

 transformation matrix from cartesian coordinates to SAXIS
 ---------------------------------------------------------
     1.0000000 m_x     0.0000000 m_y     0.0000000 m_z
     0.0000000 m_x     1.0000000 m_y     0.0000000 m_z
     0.0000000 m_x     0.0000000 m_y     1.0000000 m_z




--------------------------------------------------------------------------------------------------------


 k-point  1 :   0.0000 0.0000 0.0000  plane waves:   24106
 k-point  2 :   0.1667 0.0000 0.0000  plane waves:   24066
 k-point  3 :   0.3333 0.0000 0.0000  plane waves:   24092
 k-point  4 :   0.5000 0.0000 0.0000  plane waves:   24036
 k-point  5 :   0.1667 0.1667 0.0000  plane waves:   24088
 k-point  6 :   0.3333 0.1667 0.0000  plane waves:   24098
 k-point  7 :   0.5000 0.1667 0.0000  plane waves:   24064
 k-point  8 :   0.3333 0.3333 0.0000  plane waves:   24092
 k-point  9 :   0.5000 0.3333 0.0000  plane waves:   24104
 k-point 10 :   0.5000 0.5000 0.0000  plane waves:   24096
 k-point 11 :   0.0000 0.0000 0.3333  plane waves:   24108
 k-point 12 :   0.1667 0.0000 0.3333  plane waves:   24050
 k-point 13 :   0.3333 0.0000 0.3333  plane waves:   24118
 k-point 14 :   0.5000 0.0000 0.3333  plane waves:   24076
 k-point 15 :   0.1667 0.1667 0.3333  plane waves:   24092
 k-point 16 :   0.3333 0.1667 0.3333  plane waves:   24082
 k-point 17 :   0.5000 0.1667 0.3333  plane waves:   24100
 k-point 18 :  -0.3333 0.1667 0.3333  plane waves:   24082
 k-point 19 :  -0.1667 0.1667 0.3333  plane waves:   24092
 k-point 20 :   0.3333 0.3333 0.3333  plane waves:   24060
 k-point 21 :   0.5000 0.3333 0.3333  plane waves:   24060
 k-point 22 :  -0.3333 0.3333 0.3333  plane waves:   24060
 k-point 23 :   0.5000 0.5000 0.3333  plane waves:   24072

 maximum and minimum number of plane-waves per node :       796      718

 maximum number of plane-waves:     24118
 maximum index in each direction: 
   IXMAX=   11   IYMAX=   11   IZMAX=   22
   IXMIN=  -11   IYMIN=  -11   IZMIN=  -23


 parallel 3D FFT for wavefunctions:
    minimum data exchange during FFTs selected (reduces bandwidth)
 parallel 3D FFT for charge:
    minimum data exchange during FFTs selected (reduces bandwidth)


 total amount of memory used by VASP MPI-rank0    64742. kBytes
=======================================================================

   base      :      30000. kBytes
   nonl-proj :       3913. kBytes
   fftplans  :       1448. kBytes
   grid      :       5898. kBytes
   one-center:         62. kBytes
   wavefun   :      23421. kBytes
 
     INWAV:  cpu time    5.5785: real time    5.6915
 Broyden mixing: mesh for mixing (old mesh)
   NGX = 23   NGY = 23   NGZ = 45
  (NGX  = 96   NGY  = 96   NGZ  =192)
  gives a total of  23805 points

 initial charge density was supplied:
 number of electron     172.0000118 magnetization       0.0000000     -0.0000000     -0.0000000
 charge density for first step will be calculated from the start-wavefunctions


--------------------------------------------------------------------------------------------------------


 BZINTS: Fermi energy:  5.011351;172.000000 electrons
         Band energy:***********;  BLOECHL correction:  0.000000
 Maximum index for augmentation-charges          957 (set IRDMAX)


--------------------------------------------------------------------------------------------------------


 initial charge from wavefunction
 First call to EWALD:  gamma=   0.269
 Maximum number of real-space cells 3x 3x 2
 Maximum number of reciprocal cells 2x 2x 4

    FEWALD:  cpu time    0.0102: real time    0.0102

 ----------------------------------------------------------------------------- 
|                                                                             |
|           W    W    AA    RRRRR   N    N  II  N    N   GGGG   !!!           |
|           W    W   A  A   R    R  NN   N  II  NN   N  G    G  !!!           |
|           W    W  A    A  R    R  N N  N  II  N N  N  G       !!!           |
|           W WW W  AAAAAA  RRRRR   N  N N  II  N  N N  G  GGG   !            |
|           WW  WW  A    A  R   R   N   NN  II  N   NN  G    G                |
|           W    W  A    A  R    R  N    N  II  N    N   GGGG   !!!           |
|                                                                             |
|      ALGO=A and IALGO=5X tend to fail with the tetrahedron method           |
|      (e.g. Bloechls method ISMEAR=-5 is not variational)                    |
|      please switch to IMSEAR=0-n, except for DOS calculations               |
|      For DOS calculations use IALGO=53 after preconverging with ISMEAR>=0   |
|          I HOPE YOU KNOW, WHAT YOU ARE  DOING                               |
|                                                                             |
 ----------------------------------------------------------------------------- 



--------------------------------------- Iteration      1(   1)  ---------------------------------------


    POTLOK:  cpu time    0.1105: real time    0.1107
    SETDIJ:  cpu time    0.6418: real time    0.6418
    TRIAL :  cpu time    4.1866: real time    4.2031
 BZINTS: Fermi energy:  5.011344;172.000000 electrons
         Band energy:***********;  BLOECHL correction:  0.000000
 BZINTS: Fermi energy:  5.011350;172.000000 electrons
         Band energy:***********;  BLOECHL correction:  0.000000
    CORREC:  cpu time    3.3151: real time    3.3172
    CHARGE:  cpu time    1.0891: real time    1.0891
    --------------------------------------------
      LOOP:  cpu time    9.3514: real time    9.3864

 eigenvalue-minimisations  :     0
 total energy-change (2. order) :-0.8205103E+02  (-0.4176256E-07)
 number of electron     172.0000118 magnetization      -0.0000000      0.0000000     -0.0000000
 augmentation part       70.5523757 magnetization      -0.0000008     -0.0000000     -0.0003333

 Free energy of the ion-electron system (eV)
  ---------------------------------------------------
  alpha Z        PSCENC =       591.93709232
  Ewald energy   TEWEN  =    -15642.38801192
  -Hartree energ DENC   =    -10722.81219140
  -exchange      EXHF   =         0.00000000
  -V(xc)+E(xc)   XCENC  =       821.80308784
  PAW double counting   =     28123.85110214   -29047.56953850
  entropy T*S    EENTRO =         0.00000000
  eigenvalues    EBANDS =     -2711.88884422
  atomic energy  EATOM  =     28505.01627691
  ---------------------------------------------------
  free energy    TOTEN  =       -82.05102684 eV

  energy without entropy =      -82.05102684  energy(sigma->0) =      -82.05102684


--------------------------------------------------------------------------------------------------------




--------------------------------------- Iteration      1(   2)  ---------------------------------------


    POTLOK:  cpu time    0.1112: real time    0.1112
    SETDIJ:  cpu time    0.6371: real time    0.6371
    TRIAL :  cpu time    2.8244: real time    2.8266
 BZINTS: Fermi energy:  5.011344;172.000000 electrons
         Band energy:***********;  BLOECHL correction:  0.000000
 BZINTS: Fermi energy:  5.011350;172.000000 electrons
         Band energy:***********;  BLOECHL correction:  0.000000
    CORREC:  cpu time    3.3104: real time    3.3124
    CHARGE:  cpu time    1.0944: real time    1.0944
    --------------------------------------------
      LOOP:  cpu time    8.0117: real time    8.0162

 eigenvalue-minimisations  :     0
 total energy-change (2. order) :-0.1858905E-05  (-0.3104990E-07)
 number of electron     172.0000118 magnetization       0.0000000      0.0000000     -0.0000000
 augmentation part       70.5523757 magnetization      -0.0000008     -0.0000000     -0.0003333

 Free energy of the ion-electron system (eV)
  ---------------------------------------------------
  alpha Z        PSCENC =       591.93709232
  Ewald energy   TEWEN  =    -15642.38801192
  -Hartree energ DENC   =    -10722.81218417
  -exchange      EXHF   =         0.00000000
  -V(xc)+E(xc)   XCENC  =       821.80308363
  PAW double counting   =     28123.85108084   -29047.56951728
  entropy T*S    EENTRO =         0.00000000
  eigenvalues    EBANDS =     -2711.88884902
  atomic energy  EATOM  =     28505.01627691
  ---------------------------------------------------
  free energy    TOTEN  =       -82.05102870 eV

  energy without entropy =      -82.05102870  energy(sigma->0) =      -82.05102870


--------------------------------------------------------------------------------------------------------




--------------------------------------- Iteration      1(   3)  ---------------------------------------


    POTLOK:  cpu time    0.1119: real time    0.1119
    SETDIJ:  cpu time    0.6365: real time    0.6365
    TRIAL :  cpu time    2.8326: real time    2.8347
 BZINTS: Fermi energy:  5.011345;172.000000 electrons
         Band energy:***********;  BLOECHL correction:  0.000000
 BZINTS: Fermi energy:  5.011350;172.000000 electrons
         Band energy:***********;  BLOECHL correction:  0.000000
    CORREC:  cpu time    3.3190: real time    3.3211
    CHARGE:  cpu time    1.0924: real time    1.0924
    --------------------------------------------
      LOOP:  cpu time    8.0177: real time    8.0257

 eigenvalue-minimisations  :     0
 total energy-change (2. order) :-0.1418328E-05  (-0.2523666E-07)
 number of electron     172.0000118 magnetization      -0.0000000      0.0000000      0.0000000
 augmentation part       70.5523757 magnetization      -0.0000007     -0.0000000     -0.0003333

 Free energy of the ion-electron system (eV)
  ---------------------------------------------------
  alpha Z        PSCENC =       591.93709232
  Ewald energy   TEWEN  =    -15642.38801192
  -Hartree energ DENC   =    -10722.81217768
  -exchange      EXHF   =         0.00000000
  -V(xc)+E(xc)   XCENC  =       821.80308039
  PAW double counting   =     28123.85106019   -29047.56949664
  entropy T*S    EENTRO =         0.00000000
  eigenvalues    EBANDS =     -2711.88885368
  atomic energy  EATOM  =     28505.01627691
  ---------------------------------------------------
  free energy    TOTEN  =       -82.05103012 eV

  energy without entropy =      -82.05103012  energy(sigma->0) =      -82.05103012


--------------------------------------------------------------------------------------------------------




--------------------------------------- Iteration      1(   4)  ---------------------------------------


    POTLOK:  cpu time    0.1139: real time    0.1139
    SETDIJ:  cpu time    0.6348: real time    0.6348
    TRIAL :  cpu time    2.8086: real time    2.8107
 BZINTS: Fermi energy:  5.011346;172.000000 electrons
         Band energy:***********;  BLOECHL correction:  0.000000
 BZINTS: Fermi energy:  5.011350;172.000000 electrons
         Band energy:***********;  BLOECHL correction:  0.000000
    CORREC:  cpu time    3.3164: real time    3.3185
    CHARGE:  cpu time    1.0958: real time    1.0958
    --------------------------------------------
      LOOP:  cpu time    7.9983: real time    8.0059

 eigenvalue-minimisations  :     0
 total energy-change (2. order) :-0.1124365E-05  (-0.2388961E-07)
 number of electron     172.0000118 magnetization      -0.0000000      0.0000000      0.0000000
 augmentation part       70.5523757 magnetization      -0.0000007     -0.0000000     -0.0003333

 Free energy of the ion-electron system (eV)
  ---------------------------------------------------
  alpha Z        PSCENC =       591.93709232
  Ewald energy   TEWEN  =    -15642.38801192
  -Hartree energ DENC   =    -10722.81217151
  -exchange      EXHF   =         0.00000000
  -V(xc)+E(xc)   XCENC  =       821.80307779
  PAW double counting   =     28123.85103919   -29047.56947560
  entropy T*S    EENTRO =         0.00000000
  eigenvalues    EBANDS =     -2711.88885841
  atomic energy  EATOM  =     28505.01627691
  ---------------------------------------------------
  free energy    TOTEN  =       -82.05103124 eV

  energy without entropy =      -82.05103124  energy(sigma->0) =      -82.05103124


--------------------------------------------------------------------------------------------------------




--------------------------------------- Iteration      1(   5)  ---------------------------------------


    POTLOK:  cpu time    0.1125: real time    0.1125
    SETDIJ:  cpu time    0.6349: real time    0.6349
    TRIAL :  cpu time    2.8049: real time    2.8071
 BZINTS: Fermi energy:  5.011346;172.000000 electrons
         Band energy:***********;  BLOECHL correction:  0.000000
 BZINTS: Fermi energy:  5.011349;172.000000 electrons
         Band energy:***********;  BLOECHL correction:  0.000000
    CORREC:  cpu time    3.3118: real time    3.3138
    CHARGE:  cpu time    1.0910: real time    1.0910
    --------------------------------------------
      LOOP:  cpu time    7.9836: real time    7.9911

 eigenvalue-minimisations  :     0
 total energy-change (2. order) :-0.9572032E-06  (-0.2551864E-07)
 number of electron     172.0000118 magnetization       0.0000000      0.0000000      0.0000000
 augmentation part       70.5523757 magnetization      -0.0000007     -0.0000000     -0.0003333

 Free energy of the ion-electron system (eV)
  ---------------------------------------------------
  alpha Z        PSCENC =       591.93709232
  Ewald energy   TEWEN  =    -15642.38801192
  -Hartree energ DENC   =    -10722.81216517
  -exchange      EXHF   =         0.00000000
  -V(xc)+E(xc)   XCENC  =       821.80307555
  PAW double counting   =     28123.85101607   -29047.56945240
  entropy T*S    EENTRO =         0.00000000
  eigenvalues    EBANDS =     -2711.88886356
  atomic energy  EATOM  =     28505.01627691
  ---------------------------------------------------
  free energy    TOTEN  =       -82.05103220 eV

  energy without entropy =      -82.05103220  energy(sigma->0) =      -82.05103220


--------------------------------------------------------------------------------------------------------




--------------------------------------- Iteration      1(   6)  ---------------------------------------


    POTLOK:  cpu time    0.1131: real time    0.1131
    SETDIJ:  cpu time    0.6346: real time    0.6346
    TRIAL :  cpu time    2.8113: real time    2.8134
 BZINTS: Fermi energy:  5.011347;172.000000 electrons
         Band energy:***********;  BLOECHL correction:  0.000000
 BZINTS: Fermi energy:  5.011349;172.000000 electrons
         Band energy:***********;  BLOECHL correction:  0.000000
    CORREC:  cpu time    3.3150: real time    3.3171
    CHARGE:  cpu time    1.0915: real time    1.0915
    --------------------------------------------
      LOOP:  cpu time    7.9931: real time    8.0004

 eigenvalue-minimisations  :     0
 total energy-change (2. order) :-0.8920051E-06  (-0.3319816E-07)
 number of electron     172.0000118 magnetization      -0.0000000      0.0000000      0.0000000
 augmentation part       70.5523757 magnetization      -0.0000006     -0.0000001     -0.0003333

 Free energy of the ion-electron system (eV)
  ---------------------------------------------------
  alpha Z        PSCENC =       591.93709232
  Ewald energy   TEWEN  =    -15642.38801192
  -Hartree energ DENC   =    -10722.81215779
  -exchange      EXHF   =         0.00000000
  -V(xc)+E(xc)   XCENC  =       821.80307345
  PAW double counting   =     28123.85098714   -29047.56942337
  entropy T*S    EENTRO =         0.00000000
  eigenvalues    EBANDS =     -2711.88886983
  atomic energy  EATOM  =     28505.01627691
  ---------------------------------------------------
  free energy    TOTEN  =       -82.05103309 eV

  energy without entropy =      -82.05103309  energy(sigma->0) =      -82.05103309


--------------------------------------------------------------------------------------------------------




--------------------------------------- Iteration      1(   7)  ---------------------------------------


    POTLOK:  cpu time    0.1129: real time    0.1129
    SETDIJ:  cpu time    0.6351: real time    0.6351
    TRIAL :  cpu time    2.8148: real time    2.8169
 BZINTS: Fermi energy:  5.011347;172.000000 electrons
         Band energy:***********;  BLOECHL correction:  0.000000
 BZINTS: Fermi energy:  5.011348;172.000000 electrons
         Band energy:***********;  BLOECHL correction:  0.000000
    CORREC:  cpu time    3.3100: real time    3.3121
    CHARGE:  cpu time    1.0962: real time    1.0963
    --------------------------------------------
      LOOP:  cpu time    7.9963: real time    8.0040

 eigenvalue-minimisations  :     0
 total energy-change (2. order) :-0.9099294E-06  (-0.8118436E-07)
 number of electron     172.0000118 magnetization       0.0000000      0.0000000     -0.0000000
 augmentation part       70.5523757 magnetization      -0.0000005     -0.0000001     -0.0003333

 Free energy of the ion-electron system (eV)
  ---------------------------------------------------
  alpha Z        PSCENC =       591.93709232
  Ewald energy   TEWEN  =    -15642.38801192
  -Hartree energ DENC   =    -10722.81214776
  -exchange      EXHF   =         0.00000000
  -V(xc)+E(xc)   XCENC  =       821.80307129
  PAW double counting   =     28123.85094410   -29047.56938022
  entropy T*S    EENTRO =         0.00000000
  eigenvalues    EBANDS =     -2711.88887871
  atomic energy  EATOM  =     28505.01627691
  ---------------------------------------------------
  free energy    TOTEN  =       -82.05103400 eV

  energy without entropy =      -82.05103400  energy(sigma->0) =      -82.05103400


--------------------------------------------------------------------------------------------------------




--------------------------------------- Iteration      1(   8)  ---------------------------------------


    POTLOK:  cpu time    0.1131: real time    0.1131
    SETDIJ:  cpu time    0.6345: real time    0.6345
    TRIAL :  cpu time    2.8099: real time    2.8120
 BZINTS: Fermi energy:  5.011348;172.000000 electrons
         Band energy:***********;  BLOECHL correction:  0.000000
 BZINTS: Fermi energy:  5.011348;172.000000 electrons
         Band energy:***********;  BLOECHL correction:  0.000000
    CORREC:  cpu time    3.3116: real time    3.3137
    CHARGE:  cpu time    1.0944: real time    1.0944
    --------------------------------------------
      LOOP:  cpu time    7.9942: real time    8.0022

 eigenvalue-minimisations  :     0
 total energy-change (2. order) :-0.1308228E-05  (-0.9674695E-08)
 number of electron     172.0000118 magnetization       0.0000000      0.0000000      0.0000000
 augmentation part       70.5523757 magnetization      -0.0000005     -0.0000001     -0.0003333

 Free energy of the ion-electron system (eV)
  ---------------------------------------------------
  alpha Z        PSCENC =       591.93709232
  Ewald energy   TEWEN  =    -15642.38801192
  -Hartree energ DENC   =    -10722.81212284
  -exchange      EXHF   =         0.00000000
  -V(xc)+E(xc)   XCENC  =       821.80306810
  PAW double counting   =     28123.85082266   -29047.56925881
  entropy T*S    EENTRO =         0.00000000
  eigenvalues    EBANDS =     -2711.88890172
  atomic energy  EATOM  =     28505.01627691
  ---------------------------------------------------
  free energy    TOTEN  =       -82.05103531 eV

  energy without entropy =      -82.05103531  energy(sigma->0) =      -82.05103531


--------------------------------------------------------------------------------------------------------




--------------------------------------- Iteration      1(   9)  ---------------------------------------


    POTLOK:  cpu time    0.1118: real time    0.1118
    SETDIJ:  cpu time    0.6348: real time    0.6348
    TRIAL :  cpu time    2.8041: real time    2.8063
 BZINTS: Fermi energy:  5.011348;172.000000 electrons
         Band energy:***********;  BLOECHL correction:  0.000000
 BZINTS: Fermi energy:  5.011348;172.000000 electrons
         Band energy:***********;  BLOECHL correction:  0.000000
    CORREC:  cpu time    3.3124: real time    3.3145
    CHARGE:  cpu time    1.0998: real time    1.0998
    --------------------------------------------
      LOOP:  cpu time    7.9898: real time    7.9973

 eigenvalue-minimisations  :     0
 total energy-change (2. order) :-0.2155357E-06  (-0.2706895E-07)
 number of electron     172.0000118 magnetization      -0.0000000      0.0000000      0.0000000
 augmentation part       70.5523757 magnetization      -0.0000005     -0.0000001     -0.0003333

 Free energy of the ion-electron system (eV)
  ---------------------------------------------------
  alpha Z        PSCENC =       591.93709232
  Ewald energy   TEWEN  =    -15642.38801192
  -Hartree energ DENC   =    -10722.81212072
  -exchange      EXHF   =         0.00000000
  -V(xc)+E(xc)   XCENC  =       821.80306761
  PAW double counting   =     28123.85080195   -29047.56923836
  entropy T*S    EENTRO =         0.00000000
  eigenvalues    EBANDS =     -2711.88890331
  atomic energy  EATOM  =     28505.01627691
  ---------------------------------------------------
  free energy    TOTEN  =       -82.05103553 eV

  energy without entropy =      -82.05103553  energy(sigma->0) =      -82.05103553


--------------------------------------------------------------------------------------------------------




--------------------------------------- Iteration      1(  10)  ---------------------------------------


    POTLOK:  cpu time    0.1096: real time    0.1096
    SETDIJ:  cpu time    0.6375: real time    0.6375
    TRIAL :  cpu time    2.8163: real time    2.8185
 BZINTS: Fermi energy:  5.011347;172.000000 electrons
         Band energy:***********;  BLOECHL correction:  0.000000
 BZINTS: Fermi energy:  5.011348;172.000000 electrons
         Band energy:***********;  BLOECHL correction:  0.000000
    CORREC:  cpu time    3.3131: real time    3.3152
    CHARGE:  cpu time    1.0937: real time    1.0937
    --------------------------------------------
      LOOP:  cpu time    7.9931: real time    8.0006

 eigenvalue-minimisations  :     0
 total energy-change (2. order) :-0.6608025E-07  (-0.7651391E-08)
 number of electron     172.0000118 magnetization       0.0000000      0.0000000      0.0000000
 augmentation part       70.5523757 magnetization      -0.0000005     -0.0000001     -0.0003333

 Free energy of the ion-electron system (eV)
  ---------------------------------------------------
  alpha Z        PSCENC =       591.93709232
  Ewald energy   TEWEN  =    -15642.38801192
  -Hartree energ DENC   =    -10722.81211413
  -exchange      EXHF   =         0.00000000
  -V(xc)+E(xc)   XCENC  =       821.80306743
  PAW double counting   =     28123.85073751   -29047.56917473
  entropy T*S    EENTRO =         0.00000000
  eigenvalues    EBANDS =     -2711.88890898
  atomic energy  EATOM  =     28505.01627691
  ---------------------------------------------------
  free energy    TOTEN  =       -82.05103559 eV

  energy without entropy =      -82.05103559  energy(sigma->0) =      -82.05103559


--------------------------------------------------------------------------------------------------------




--------------------------------------- Iteration      1(  11)  ---------------------------------------


    POTLOK:  cpu time    0.1126: real time    0.1126
    SETDIJ:  cpu time    0.6350: real time    0.6350
    TRIAL :  cpu time    2.8266: real time    2.8287
 BZINTS: Fermi energy:  5.011347;172.000000 electrons
         Band energy:***********;  BLOECHL correction:  0.000000
 BZINTS: Fermi energy:  5.011348;172.000000 electrons
         Band energy:***********;  BLOECHL correction:  0.000000
    CORREC:  cpu time    3.3103: real time    3.3124
    CHARGE:  cpu time    1.0952: real time    1.0952
    --------------------------------------------
      LOOP:  cpu time    8.0069: real time    8.0148

 eigenvalue-minimisations  :     0
 total energy-change (2. order) :-0.4659032E-06  (-0.3325041E-08)
 number of electron     172.0000118 magnetization       0.0000000      0.0000000      0.0000000
 augmentation part       70.5523757 magnetization      -0.0000005     -0.0000001     -0.0003333

 Free energy of the ion-electron system (eV)
  ---------------------------------------------------
  alpha Z        PSCENC =       591.93709232
  Ewald energy   TEWEN  =    -15642.38801192
  -Hartree energ DENC   =    -10722.81211154
  -exchange      EXHF   =         0.00000000
  -V(xc)+E(xc)   XCENC  =       821.80306636
  PAW double counting   =     28123.85071248   -29047.56914993
  entropy T*S    EENTRO =         0.00000000
  eigenvalues    EBANDS =     -2711.88891073
  atomic energy  EATOM  =     28505.01627691
  ---------------------------------------------------
  free energy    TOTEN  =       -82.05103606 eV

  energy without entropy =      -82.05103606  energy(sigma->0) =      -82.05103606


--------------------------------------------------------------------------------------------------------




--------------------------------------- Iteration      1(  12)  ---------------------------------------


    POTLOK:  cpu time    0.1115: real time    0.1115
    SETDIJ:  cpu time    0.6357: real time    0.6357
    TRIAL :  cpu time    2.8190: real time    2.8212
 BZINTS: Fermi energy:  5.011347;172.000000 electrons
         Band energy:***********;  BLOECHL correction:  0.000000
 BZINTS: Fermi energy:  5.011348;172.000000 electrons
         Band energy:***********;  BLOECHL correction:  0.000000
    CORREC:  cpu time    3.3461: real time    3.3482
    CHARGE:  cpu time    1.0980: real time    1.0980
    --------------------------------------------
      LOOP:  cpu time    8.0344: real time    8.0420

 eigenvalue-minimisations  :     0
 total energy-change (2. order) : 0.1749377E-06  (-0.4256513E-08)
 number of electron     172.0000118 magnetization      -0.0000000      0.0000000      0.0000000
 augmentation part       70.5523757 magnetization      -0.0000005     -0.0000001     -0.0003333

 Free energy of the ion-electron system (eV)
  ---------------------------------------------------
  alpha Z        PSCENC =       591.93709232
  Ewald energy   TEWEN  =    -15642.38801192
  -Hartree energ DENC   =    -10722.81211048
  -exchange      EXHF   =         0.00000000
  -V(xc)+E(xc)   XCENC  =       821.80306674
  PAW double counting   =     28123.85070189   -29047.56913944
  entropy T*S    EENTRO =         0.00000000
  eigenvalues    EBANDS =     -2711.88891189
  atomic energy  EATOM  =     28505.01627691
  ---------------------------------------------------
  free energy    TOTEN  =       -82.05103588 eV

  energy without entropy =      -82.05103588  energy(sigma->0) =      -82.05103588


--------------------------------------------------------------------------------------------------------




--------------------------------------- Iteration      1(  13)  ---------------------------------------


    POTLOK:  cpu time    0.1103: real time    0.1103
    SETDIJ:  cpu time    0.6413: real time    0.6413
    TRIAL :  cpu time    2.8168: real time    2.8189
 BZINTS: Fermi energy:  5.011347;172.000000 electrons
         Band energy:***********;  BLOECHL correction:  0.000000
 BZINTS: Fermi energy:  5.011347;172.000000 electrons
         Band energy:***********;  BLOECHL correction:  0.000000
    CORREC:  cpu time    3.3071: real time    3.3092
    CHARGE:  cpu time    1.0929: real time    1.0929
    --------------------------------------------
      LOOP:  cpu time    7.9929: real time    8.0003

 eigenvalue-minimisations  :     0
 total energy-change (2. order) :-0.1605804E-07  (-0.3152532E-08)
 number of electron     172.0000118 magnetization      -0.0000000      0.0000000     -0.0000000
 augmentation part       70.5523757 magnetization      -0.0000005     -0.0000001     -0.0003333

 Free energy of the ion-electron system (eV)
  ---------------------------------------------------
  alpha Z        PSCENC =       591.93709232
  Ewald energy   TEWEN  =    -15642.38801192
  -Hartree energ DENC   =    -10722.81210899
  -exchange      EXHF   =         0.00000000
  -V(xc)+E(xc)   XCENC  =       821.80306669
  PAW double counting   =     28123.85068667   -29047.56912438
  entropy T*S    EENTRO =         0.00000000
  eigenvalues    EBANDS =     -2711.88891319
  atomic energy  EATOM  =     28505.01627691
  ---------------------------------------------------
  free energy    TOTEN  =       -82.05103590 eV

  energy without entropy =      -82.05103590  energy(sigma->0) =      -82.05103590


--------------------------------------------------------------------------------------------------------




--------------------------------------- Iteration      1(  14)  ---------------------------------------


    POTLOK:  cpu time    0.1107: real time    0.1107
    SETDIJ:  cpu time    0.6347: real time    0.6347
    TRIAL :  cpu time    2.8284: real time    2.8306
 BZINTS: Fermi energy:  5.011347;172.000000 electrons
         Band energy:***********;  BLOECHL correction:  0.000000
 BZINTS: Fermi energy:  5.011347;172.000000 electrons
         Band energy:***********;  BLOECHL correction:  0.000000
    CORREC:  cpu time    3.3094: real time    3.3115
    CHARGE:  cpu time    1.0955: real time    1.0955
    --------------------------------------------
      LOOP:  cpu time    8.0072: real time    8.0150

 eigenvalue-minimisations  :     0
 total energy-change (2. order) :-0.5924085E-07  (-0.2257867E-08)
 number of electron     172.0000118 magnetization       0.0000000      0.0000000     -0.0000000
 augmentation part       70.5523757 magnetization      -0.0000005     -0.0000001     -0.0003333

 Free energy of the ion-electron system (eV)
  ---------------------------------------------------
  alpha Z        PSCENC =       591.93709232
  Ewald energy   TEWEN  =    -15642.38801192
  -Hartree energ DENC   =    -10722.81210791
  -exchange      EXHF   =         0.00000000
  -V(xc)+E(xc)   XCENC  =       821.80306655
  PAW double counting   =     28123.85067544   -29047.56911326
  entropy T*S    EENTRO =         0.00000000
  eigenvalues    EBANDS =     -2711.88891408
  atomic energy  EATOM  =     28505.01627691
  ---------------------------------------------------
  free energy    TOTEN  =       -82.05103596 eV

  energy without entropy =      -82.05103596  energy(sigma->0) =      -82.05103596


--------------------------------------------------------------------------------------------------------




--------------------------------------- Iteration      1(  15)  ---------------------------------------


    POTLOK:  cpu time    0.1130: real time    0.1130
    SETDIJ:  cpu time    0.6358: real time    0.6358
    TRIAL :  cpu time    2.8268: real time    2.8289
 BZINTS: Fermi energy:  5.011347;172.000000 electrons
         Band energy:***********;  BLOECHL correction:  0.000000
 BZINTS: Fermi energy:  5.011347;172.000000 electrons
         Band energy:***********;  BLOECHL correction:  0.000000
    CORREC:  cpu time    3.3104: real time    3.3125
    CHARGE:  cpu time    1.0960: real time    1.0960
    --------------------------------------------
      LOOP:  cpu time    8.0120: real time    8.0200

 eigenvalue-minimisations  :     0
 total energy-change (2. order) :-0.2340857E-06  (-0.1199575E-08)
 number of electron     172.0000118 magnetization      -0.0000000      0.0000000      0.0000000
 augmentation part       70.5523757 magnetization      -0.0000005     -0.0000001     -0.0003333

 Free energy of the ion-electron system (eV)
  ---------------------------------------------------
  alpha Z        PSCENC =       591.93709232
  Ewald energy   TEWEN  =    -15642.38801192
  -Hartree energ DENC   =    -10722.81210705
  -exchange      EXHF   =         0.00000000
  -V(xc)+E(xc)   XCENC  =       821.80306602
  PAW double counting   =     28123.85066631   -29047.56910422
  entropy T*S    EENTRO =         0.00000000
  eigenvalues    EBANDS =     -2711.88891455
  atomic energy  EATOM  =     28505.01627691
  ---------------------------------------------------
  free energy    TOTEN  =       -82.05103619 eV

  energy without entropy =      -82.05103619  energy(sigma->0) =      -82.05103619


--------------------------------------------------------------------------------------------------------




--------------------------------------- Iteration      1(  16)  ---------------------------------------


    POTLOK:  cpu time    0.1147: real time    0.1147
    SETDIJ:  cpu time    0.6342: real time    0.6342
    TRIAL :  cpu time    2.8201: real time    2.8222
 BZINTS: Fermi energy:  5.011347;172.000000 electrons
         Band energy:***********;  BLOECHL correction:  0.000000
 BZINTS: Fermi energy:  5.011347;172.000000 electrons
         Band energy:***********;  BLOECHL correction:  0.000000
    CORREC:  cpu time    3.3115: real time    3.3137
    CHARGE:  cpu time    1.0944: real time    1.0944
    --------------------------------------------
      LOOP:  cpu time    8.0014: real time    8.0089

 eigenvalue-minimisations  :     0
 total energy-change (2. order) :-0.1185545E-06  (-0.9336940E-09)
 number of electron     172.0000118 magnetization      -0.0000000      0.0000000      0.0000000
 augmentation part       70.5523757 magnetization      -0.0000005     -0.0000001     -0.0003333

 Free energy of the ion-electron system (eV)
  ---------------------------------------------------
  alpha Z        PSCENC =       591.93709232
  Ewald energy   TEWEN  =    -15642.38801192
  -Hartree energ DENC   =    -10722.81210655
  -exchange      EXHF   =         0.00000000
  -V(xc)+E(xc)   XCENC  =       821.80306575
  PAW double counting   =     28123.85066086   -29047.56909883
  entropy T*S    EENTRO =         0.00000000
  eigenvalues    EBANDS =     -2711.88891484
  atomic energy  EATOM  =     28505.01627691
  ---------------------------------------------------
  free energy    TOTEN  =       -82.05103631 eV

  energy without entropy =      -82.05103631  energy(sigma->0) =      -82.05103631


--------------------------------------------------------------------------------------------------------




--------------------------------------- Iteration      1(  17)  ---------------------------------------


    POTLOK:  cpu time    0.1131: real time    0.1131
    SETDIJ:  cpu time    0.6348: real time    0.6348
    TRIAL :  cpu time    2.8247: real time    2.8274
 BZINTS: Fermi energy:  5.011347;172.000000 electrons
         Band energy:***********;  BLOECHL correction:  0.000000
 BZINTS: Fermi energy:  5.011347;172.000000 electrons
         Band energy:***********;  BLOECHL correction:  0.000000
    CORREC:  cpu time    3.3131: real time    3.3152
    EDDIAG:  cpu time    1.1930: real time    1.1930
    CHARGE:  cpu time    1.0932: real time    1.0932
    --------------------------------------------
      LOOP:  cpu time    9.1995: real time    9.2075

 eigenvalue-minimisations  :     0
 total energy-change (2. order) :-0.6590199E-08  (-0.8069988E-09)
 number of electron     172.0000118 magnetization      -0.0000000      0.0000000      0.0000000
 augmentation part       70.5523757 magnetization      -0.0000005     -0.0000001     -0.0003333

 Free energy of the ion-electron system (eV)
  ---------------------------------------------------
  alpha Z        PSCENC =       591.93709232
  Ewald energy   TEWEN  =    -15642.38801192
  -Hartree energ DENC   =    -10722.81210616
  -exchange      EXHF   =         0.00000000
  -V(xc)+E(xc)   XCENC  =       821.80306573
  PAW double counting   =     28123.85065645   -29047.56909447
  entropy T*S    EENTRO =         0.00000000
  eigenvalues    EBANDS =     -2711.88891517
  atomic energy  EATOM  =     28505.01627691
  ---------------------------------------------------
  free energy    TOTEN  =       -82.05103632 eV

  energy without entropy =      -82.05103632  energy(sigma->0) =      -82.05103632


--------------------------------------------------------------------------------------------------------


  average scaling for gradient   0.9507


 average (electrostatic) potential at core
  the test charge radii are     0.9698  0.8297  0.9500
  (the norm of the test charge is              1.0000)
       1 -86.5777       2 -86.5777       3 -86.5777       4 -86.5777       5 -86.5777
       6 -86.5777       7 -86.5777       8 -86.5777       9 -80.6739      10 -80.6739
      11 -80.6739      12 -80.6739      13 -80.1581      14 -80.1581      15 -80.1581
      16 -80.1581
 
 
 
 E-fermi :   5.0113     XC(G=0): -10.4902     alpha+bet :-10.5983


 k-point     1 :       0.0000    0.0000    0.0000
  band No.  band energies     occupation 
      1     -64.2828      1.00000
      2     -64.2828      1.00000
      3     -64.2828      1.00000
      4     -64.2828      1.00000
      5     -64.2608      1.00000
      6     -64.2608      1.00000
      7     -64.2608      1.00000
      8     -64.2608      1.00000
      9     -64.2432      1.00000
     10     -64.2432      1.00000
     11     -64.2432      1.00000
     12     -64.2432      1.00000
     13     -64.2432      1.00000
     14     -64.2432      1.00000
     15     -64.2432      1.00000
     16     -64.2432      1.00000
     17     -64.2384      1.00000
     18     -64.2384      1.00000
     19     -64.2384      1.00000
     20     -64.2384      1.00000
     21     -64.2384      1.00000
     22     -64.2384      1.00000
     23     -64.2384      1.00000
     24     -64.2384      1.00000
     25     -51.7899      1.00000
     26     -51.7899      1.00000
     27     -51.7899      1.00000
     28     -51.7899      1.00000
     29     -51.7899      1.00000
     30     -51.7899      1.00000
     31     -51.7899      1.00000
     32     -51.7899      1.00000
     33     -51.7849      1.00000
     34     -51.7849      1.00000
     35     -51.7849      1.00000
     36     -51.7849      1.00000
     37     -47.6662      1.00000
     38     -47.6662      1.00000
     39     -47.6662      1.00000
     40     -47.6662      1.00000
     41     -47.6662      1.00000
     42     -47.6662      1.00000
     43     -47.6662      1.00000
     44     -47.6662      1.00000
     45     -47.6520      1.00000
     46     -47.6520      1.00000
     47     -47.6520      1.00000
     48     -47.6520      1.00000
     49      -9.0885      1.00000
     50      -9.0885      1.00000
     51      -8.4881      1.00000
     52      -8.4881      1.00000
     53      -8.4667      1.00000
     54      -8.4667      1.00000
     55      -7.7457      1.00000
     56      -7.7457      1.00000
     57      -7.7179      1.00000
     58      -7.7179      1.00000
     59      -7.7179      1.00000
     60      -7.7179      1.00000
     61      -7.7130      1.00000
     62      -7.7130      1.00000
     63      -7.7130      1.00000
     64      -7.7130      1.00000
     65      -2.0226      1.00000
     66      -2.0226      1.00000
     67      -1.9751      1.00000
     68      -1.9751      1.00000
     69      -1.9430      1.00000
     70      -1.9430      1.00000
     71      -1.8648      1.00000
     72      -1.8648      1.00000
     73      -1.8479      1.00000
     74      -1.8479      1.00000
     75      -1.7414      1.00000
     76      -1.7414      1.00000
     77      -1.7307      1.00000
     78      -1.7307      1.00000
     79      -1.7307      1.00000
     80      -1.7307      1.00000
     81      -1.6883      1.00000
     82      -1.6883      1.00000
     83      -1.6883      1.00000
     84      -1.6883      1.00000
     85      -0.6757      1.00000
     86      -0.6757      1.00000
     87      -0.5326      1.00000
     88      -0.5326      1.00000
     89      -0.0662      1.00000
     90      -0.0662      1.00000
     91       0.1425      1.00000
     92       0.1425      1.00000
     93       0.2554      1.00000
     94       0.2554      1.00000
     95       0.3227      1.00000
     96       0.3227      1.00000
     97       0.3444      1.00000
     98       0.3444      1.00000
     99       0.7001      1.00000
    100       0.7001      1.00000
    101       0.8075      1.00000
    102       0.8075      1.00000
    103       1.1663      1.00000
    104       1.1663      1.00000
    105       1.1663      1.00000
    106       1.1663      1.00000
    107       1.1711      1.00000
    108       1.1711      1.00000
    109       1.1711      1.00000
    110       1.1711      1.00000
    111       1.3272      1.00000
    112       1.3272      1.00000
    113       1.3272      1.00000
    114       1.3272      1.00000
    115       1.4175      1.00000
    116       1.4175      1.00000
    117       1.4175      1.00000
    118       1.4175      1.00000
    119       1.4652      1.00000
    120       1.4652      1.00000
    121       1.6239      1.00000
    122       1.6239      1.00000
    123       1.9411      1.00000
    124       1.9411      1.00000
    125       1.9411      1.00000
    126       1.9411      1.00000
    127       2.1216      1.00000
    128       2.1216      1.00000
    129       2.1873      1.00000
    130       2.1873      1.00000
    131       2.1873      1.00000
    132       2.1873      1.00000
    133       2.6424      1.00000
    134       2.6424      1.00000
    135       2.7519      1.00000
    136       2.7519      1.00000
    137       2.8328      1.00000
    138       2.8328      1.00000
    139       2.8720      1.00000
    140       2.8720      1.00000
    141       2.9351      1.00000
    142       2.9351      1.00000
    143       2.9849      1.00000
    144       2.9849      1.00000
    145       3.0150      1.00000
    146       3.0150      1.00000
    147       3.1490      1.00000
    148       3.1490      1.00000
    149       3.2430      1.00000
    150       3.2430      1.00000
    151       3.2430      1.00000
    152       3.2430      1.00000
    153       3.3179      1.00000
    154       3.3179      1.00000
    155       3.7080      1.00000
    156       3.7080      1.00000
    157       3.7080      1.00000
    158       3.7080      1.00000
    159       3.8690      1.00000
    160       3.8690      1.00000
    161       4.0075      1.00000
    162       4.0075      1.00000
    163       4.2655      1.00000
    164       4.2655      1.00000
    165       4.2655      1.00000
    166       4.2655      1.00000
    167       4.3445      1.00000
    168       4.3445      1.00000
    169       4.3990      1.00000
    170       4.3990      1.00000
    171       4.3990      1.00000
    172       4.3990      1.00000
    173       5.7919      0.00000
    174       5.7919      0.00000
    175       5.9568      0.00000
    176       5.9568      0.00000
    177       5.9568      0.00000
    178       5.9568      0.00000
    179       5.9765      0.00000
    180       5.9765      0.00000
    181       6.0614      0.00000
    182       6.0614      0.00000
    183       6.0803      0.00000
    184       6.0803      0.00000
    185       6.4206      0.00000
    186       6.4206      0.00000
    187       6.5993      0.00000
    188       6.5993      0.00000
    189       6.7791      0.00000
    190       6.7791      0.00000
    191       6.7791      0.00000
    192       6.7791      0.00000
    193       7.7695      0.00000
    194       7.7695      0.00000
    195       8.8137      0.00000
    196       8.8137      0.00000
    197       8.8137      0.00000
    198       8.8137      0.00000
    199       8.9450      0.00000
    200       8.9450      0.00000
    201       9.3690      0.00000
    202       9.3690      0.00000
    203       9.6276      0.00000
    204       9.6276      0.00000
    205      10.1023      0.00000
    206      10.1023      0.00000
[...]
  0.000  -0.000   0.000  -0.000   0.000   0.000   0.000  -0.000  -0.000   0.000   0.000   0.000   0.000  -0.000  -0.000   0.000
 pseudopotential strength for first ion, spin component:           3
 -0.000  -0.000  -0.000  -0.000  -0.000   0.000   0.000   0.000   0.000   0.000  -0.000   0.000   0.000   0.000   0.000   0.000
 -0.000  -0.000  -0.000  -0.000  -0.000   0.000   0.000   0.000   0.000   0.000  -0.000   0.000   0.000   0.000   0.000   0.000
 -0.000   0.000  -0.000   0.000  -0.000  -0.000   0.000  -0.000   0.000  -0.000  -0.000  -0.000   0.000  -0.000   0.000  -0.000
  0.000   0.000   0.000   0.000   0.000  -0.000  -0.000   0.000   0.000   0.000   0.000  -0.000  -0.000   0.000   0.000   0.000
  0.000   0.000   0.000   0.000   0.000  -0.000   0.000   0.000  -0.000  -0.000   0.000  -0.000   0.000   0.000  -0.000  -0.000
 -0.000   0.000  -0.000   0.000  -0.000  -0.000   0.000  -0.000   0.000  -0.000  -0.000  -0.000   0.000  -0.000   0.000  -0.000
  0.000   0.000   0.000   0.000   0.000  -0.000  -0.000   0.000   0.000   0.000   0.000  -0.000  -0.000   0.000   0.000   0.000
  0.000   0.000   0.000   0.000   0.000  -0.000   0.000   0.000  -0.000  -0.000   0.000  -0.000   0.000   0.000  -0.000  -0.000
 pseudopotential strength for first ion, spin component:           4
 39.502   0.000  45.366   0.000  -0.001   0.000  -0.001   0.000  -0.003   0.000  -0.001   0.000  -0.001   0.000  -0.004   0.000
 45.366   0.000  52.103   0.000  -0.001   0.000  -0.001   0.000  -0.003   0.000  -0.001   0.000  -0.002   0.000  -0.004   0.000
 -0.001   0.000  -0.001   0.000   8.203   0.000   0.002   0.000  -0.000   0.000  11.119   0.000   0.002   0.000  -0.001   0.000
 -0.001   0.000  -0.001   0.000   0.002   0.000   8.203   0.000  -0.001   0.000   0.002   0.000  11.119   0.000  -0.001   0.000
 -0.003   0.000  -0.003   0.000  -0.000   0.000  -0.001   0.000   8.203   0.000  -0.001   0.000  -0.001   0.000  11.119   0.000
 -0.001   0.000  -0.001   0.000  11.119   0.000   0.002   0.000  -0.001   0.000  15.090   0.000   0.003   0.000  -0.001   0.000
 -0.001   0.000  -0.002   0.000   0.002   0.000  11.119   0.000  -0.001   0.000   0.003   0.000  15.091   0.000  -0.001   0.000
 -0.004   0.000  -0.004   0.000  -0.001   0.000  -0.001   0.000  11.119   0.000  -0.001   0.000  -0.001   0.000  15.090   0.000
 total augmentation occupancy for first ion, spin component:           1
 10.946  -6.791   0.000   0.000  -0.544   0.000   0.000   0.144
 -6.791   4.913   0.000   0.000   0.446   0.000   0.000  -0.088
  0.000   0.000   3.635   0.081   0.000  -1.026  -0.042   0.000
  0.000   0.000   0.081   3.663   0.000  -0.042  -1.044   0.000
 -0.544   0.446   0.000   0.000   3.634   0.000   0.000  -1.028
  0.000   0.000  -1.026  -0.042   0.000   0.345   0.015   0.000
  0.000   0.000  -0.042  -1.044   0.000   0.015   0.351   0.000
  0.144  -0.088   0.000   0.000  -1.028   0.000   0.000   0.346
 total augmentation occupancy for first ion, spin component:           2
  0.000  -0.000  -0.000   0.000  -0.000   0.000  -0.000   0.000
 -0.000   0.000   0.000  -0.000   0.000   0.000  -0.000  -0.000
  0.000  -0.000   0.000   0.000  -0.000  -0.000  -0.000   0.000
 -0.000   0.000   0.000  -0.000   0.000  -0.000   0.000   0.000
 -0.000   0.000   0.000   0.000  -0.000  -0.000  -0.000   0.000
  0.000   0.000  -0.000  -0.000  -0.000   0.000   0.000   0.000
  0.000  -0.000  -0.000   0.000  -0.000   0.000  -0.000   0.000
  0.000  -0.000  -0.000  -0.000   0.000   0.000   0.000  -0.000
 total augmentation occupancy for first ion, spin component:           3
  0.000   0.000   0.000   0.000   0.000  -0.000  -0.000   0.000
  0.000  -0.000  -0.000  -0.000  -0.000   0.000   0.000  -0.000
  0.000  -0.000   0.000   0.000  -0.000   0.000   0.000   0.000
  0.000  -0.000   0.000  -0.000  -0.000   0.000   0.000   0.000
  0.000   0.000  -0.000  -0.000  -0.000   0.000   0.000   0.000
 -0.000   0.000  -0.000   0.000   0.000   0.000   0.000  -0.000
 -0.000   0.000   0.000   0.000   0.000   0.000  -0.000  -0.000
 -0.000   0.000   0.000   0.000   0.000  -0.000  -0.000   0.000
 total augmentation occupancy for first ion, spin component:           4
  0.000   0.000   0.109   0.096   0.000   0.081   0.081  -0.000
  0.000   0.000  -0.087  -0.075   0.000  -0.089  -0.088  -0.000
  0.109  -0.087   0.000   0.000   0.006  -0.000   0.000  -0.004
  0.096  -0.075   0.000   0.000   0.008   0.000   0.000  -0.005
  0.000   0.000   0.006   0.008  -0.000  -0.004  -0.005   0.000
  0.081  -0.089   0.000   0.000  -0.004   0.000   0.000   0.015
  0.081  -0.088   0.000  -0.000  -0.005   0.000  -0.000   0.015
 -0.000  -0.000  -0.004  -0.005  -0.000   0.015   0.015  -0.000


------------------------ aborting loop because EDIFF is reached ----------------------------------------


 


 total charge     
 
# of ion       s       p       d       tot
------------------------------------------
    1        1.313   2.414   0.000   3.727
    2        1.313   2.413   0.000   3.726
    3        1.313   2.412   0.000   3.726
    4        1.313   2.412   0.000   3.725
    5        1.313   2.413   0.000   3.726
    6        1.313   2.414   0.000   3.727
    7        1.313   2.412   0.000   3.726
    8        1.313   2.412   0.000   3.725
    9        0.261   6.205   8.915  15.382
   10        0.261   6.205   8.915  15.382
   11        0.261   6.205   8.915  15.382
   12        0.261   6.205   8.915  15.382
   13        0.351   6.353   5.824  12.528
   14        0.351   6.353   5.824  12.528
   15        0.351   6.353   5.824  12.528
   16        0.351   6.353   5.824  12.528
--------------------------------------------------
tot         12.957  69.535  58.956 141.448
 


 magnetization (x)
 
# of ion       s       p       d       tot
------------------------------------------
    1        0.000  -0.000   0.000   0.000
    2       -0.000   0.000   0.000  -0.000
    3        0.000   0.000   0.000   0.000
    4        0.000   0.000   0.000   0.000
    5       -0.000   0.000   0.000  -0.000
    6        0.000  -0.000   0.000   0.000
    7        0.000   0.000   0.000   0.000
    8        0.000   0.000   0.000   0.000
    9        0.000  -0.000   0.000   0.000
   10        0.000   0.000   0.000   0.000
   11        0.000  -0.000   0.000   0.000
   12        0.000   0.000   0.000   0.000
   13        0.000   0.000   0.000   0.000
   14       -0.000   0.000  -0.000  -0.000
   15        0.000   0.000   0.000   0.000
   16       -0.000   0.000  -0.000  -0.000
--------------------------------------------------
tot          0.000   0.000   0.000   0.000
 


 magnetization (y)
 
# of ion       s       p       d       tot
------------------------------------------
    1       -0.000  -0.000   0.000  -0.000
    2        0.000  -0.000   0.000  -0.000
    3        0.000  -0.000   0.000   0.000
    4       -0.000   0.000   0.000  -0.000
    5        0.000  -0.000   0.000  -0.000
    6       -0.000  -0.000   0.000  -0.000
    7        0.000  -0.000   0.000   0.000
    8       -0.000   0.000   0.000  -0.000
    9       -0.000   0.000   0.000  -0.000
   10       -0.000   0.000  -0.000  -0.000
   11       -0.000   0.000   0.000  -0.000
   12       -0.000   0.000  -0.000  -0.000
   13       -0.000  -0.000   0.000   0.000
   14       -0.000  -0.000   0.000   0.000
   15       -0.000  -0.000   0.000   0.000
   16       -0.000  -0.000   0.000   0.000
--------------------------------------------------
tot         -0.000   0.000   0.000  -0.000
 


 magnetization (z)
 
# of ion       s       p       d       tot
------------------------------------------
    1        0.000  -0.003   0.000  -0.002
    2        0.000  -0.004   0.000  -0.003
    3       -0.000   0.003   0.000   0.003
    4       -0.000   0.003   0.000   0.003
    5        0.000  -0.004   0.000  -0.003
    6        0.000  -0.003   0.000  -0.002
    7       -0.000   0.003   0.000   0.003
    8       -0.000   0.003   0.000   0.003
    9        0.000  -0.000   0.002   0.003
   10       -0.000   0.000  -0.002  -0.003
   11        0.000  -0.000   0.002   0.003
   12       -0.000   0.000  -0.002  -0.003
   13        0.020   0.054   3.665   3.739
   14       -0.020  -0.054  -3.666  -3.739
   15        0.020   0.054   3.665   3.739
   16       -0.020  -0.054  -3.666  -3.739
--------------------------------------------------
tot         -0.000   0.000  -0.001  -0.000
 
    FORLOC:  cpu time    0.0024: real time    0.0024
    FORNL :  cpu time    0.7417: real time    0.7417
    STRESS:  cpu time    0.6562: real time    0.6562
    FORCOR:  cpu time    0.0985: real time    0.0985
    OFIELD:  cpu time    0.0007: real time    0.0007

  FORCE on cell =-STRESS in cart. coord.  units (eV):
  Direction    XX          YY          ZZ          XY          YZ          ZX
  --------------------------------------------------------------------------------------
  Alpha Z   591.93709   591.93709   591.93709
  Ewald   -5246.17953 -5246.17953 -5150.07010     0.00000     0.00000    -0.00000
  Hartree  3553.65960  3553.65960  3615.49290    -0.00000    -0.00000    -0.00000
  E(xc)   -1050.86295 -1050.86295 -1050.79500    -0.00000    -0.00000    -0.00000
  Local   -1193.47160 -1193.47160 -1348.22320    -0.00000    -0.00000    -0.00000
  n-local   121.13100   122.79077   123.41127    -0.25861    -0.00935    -0.02174
  augment  1181.20806  1181.20806  1180.01215    -0.00000     0.00000     0.00000
  Kinetic  2037.05966  2049.09086  2038.23467    -0.88548     0.11502    -0.02490
  Fock        0.00000     0.00000     0.00000     0.00000     0.00000     0.00000
  -------------------------------------------------------------------------------------
  Total       1.32683     1.32683    -0.00022     0.00000     0.00000     0.00000
  in kB       7.42620     7.42620    -0.00125     0.00000     0.00000     0.00000
  external pressure =        4.95 kB  Pullay stress =        0.00 kB


 VOLUME and BASIS-vectors are now :
 -----------------------------------------------------------------------------
  energy-cutoff  :      700.00
  volume of cell :      286.26
      direct lattice vectors                 reciprocal lattice vectors
     5.206197799  0.000000000  0.000000000     0.192078757  0.000000000  0.000000000
     0.000000000  5.206197799  0.000000000     0.000000000  0.192078757  0.000000000
     0.000000000  0.000000000 10.561285132     0.000000000  0.000000000  0.094685447

  length of vectors
     5.206197799  5.206197799 10.561285132     0.192078757  0.192078757  0.094685447


 FORCES acting on ions:
    Electron-Ion                     Ewald-Force                    Non-Local-Force
 -----------------------------------------------------------------------------------------------
   0.423E+02 0.296E-12 0.150E-12   -.431E+02 0.142E-13 0.000E+00   0.837E+00 0.221E-18 -.631E-19
   -.423E+02 -.123E-11 -.851E-13   0.431E+02 -.142E-13 -.114E-12   -.837E+00 0.311E-18 0.710E-19
   0.262E-12 -.423E+02 -.521E-12   0.888E-15 0.431E+02 -.142E-13   -.274E-18 -.837E+00 -.202E-20
   0.873E-13 0.423E+02 -.732E-12   0.364E-13 -.431E+02 0.000E+00   0.510E-18 0.837E+00 0.913E-19
   -.423E+02 0.225E-12 0.144E-12   0.431E+02 -.409E-13 -.568E-13   -.837E+00 -.596E-18 0.285E-19
   0.423E+02 -.878E-12 0.914E-12   -.431E+02 -.586E-13 0.142E-13   0.837E+00 0.171E-18 0.143E-18
   0.437E-13 -.423E+02 0.896E-12   -.853E-13 0.431E+02 0.000E+00   0.344E-18 -.837E+00 0.605E-20
   0.175E-12 0.423E+02 0.780E-13   -.711E-13 -.431E+02 0.853E-13   -.190E-18 0.837E+00 -.824E-19
   -.437E-13 -.175E-12 0.303E-11   0.103E-04 -.227E-04 0.114E-12   0.327E-18 -.450E-18 -.729E-18
   0.140E-11 -.546E-14 -.660E-11   -.103E-04 -.227E-04 -.284E-12   -.482E-18 -.205E-18 -.731E-18
   0.140E-11 -.554E-11 -.156E-12   -.103E-04 0.227E-04 0.568E-13   0.357E-18 -.423E-18 -.452E-18
   -.873E-13 0.159E-11 0.483E-11   0.103E-04 0.227E-04 0.179E-13   -.390E-18 -.988E-19 0.805E-18
   -.175E-12 0.819E-13 0.215E-13   -.769E-05 0.190E-04 0.568E-13   -.194E-18 0.173E-18 0.133E-17
   0.502E-12 -.104E-12 -.311E-10   0.769E-05 0.190E-04 -.423E-13   0.943E-19 0.107E-18 0.136E-17
   0.480E-12 -.426E-11 -.990E-11   0.769E-05 -.190E-04 0.568E-13   0.553E-20 0.173E-18 -.136E-17
   -.131E-12 0.546E-12 0.619E-12   -.769E-05 -.190E-04 -.113E-17   -.944E-19 0.965E-19 -.551E-19
 -----------------------------------------------------------------------------------------------
   0.956E-11 -.432E-11 -.386E-10   -.238E-13 -.106E-12 -.110E-12   -.224E-18 -.628E-18 0.353E-18
 
 
 POSITION                                       TOTAL-FORCE (eV/Angst)
 -----------------------------------------------------------------------------------
      1.31524      1.30155      1.32016        -0.000010     -0.000000     -0.000000
      3.89096      3.90465      1.32016         0.000010     -0.000000     -0.000000
      1.30155      3.89096      9.24112         0.000000      0.000010      0.000000
      3.90465      1.31524      9.24112         0.000000     -0.000010     -0.000000
      1.28786      1.30155      6.60080         0.000010     -0.000000     -0.000000
      3.91834      3.90465      6.60080        -0.000010     -0.000000     -0.000000
      3.90465      1.28786      3.96048         0.000000      0.000010      0.000000
      1.30155      3.91834      3.96048         0.000000     -0.000010     -0.000000
      0.00000      0.00000      5.28064         0.000000      0.000000      0.000000
      2.60310      0.00000      2.64032         0.000000     -0.000000      0.000000
      2.60310      2.60310      0.00000         0.000000     -0.000000      0.000000
      0.00000      2.60310      7.92096         0.000000      0.000000     -0.000000
      0.00000      0.00000      0.00000         0.000000     -0.000000      0.000000
      2.60310      0.00000      7.92096         0.000000      0.000000     -0.000000
      2.60310      2.60310      5.28064         0.000000     -0.000000      0.000000
      0.00000      2.60310      2.64032         0.000000     -0.000000     -0.000000
 -----------------------------------------------------------------------------------
    total drift:                                0.000000     -0.000000     -0.000000


--------------------------------------------------------------------------------------------------------



  FREE ENERGIE OF THE ION-ELECTRON SYSTEM (eV)
  ---------------------------------------------------
  free  energy   TOTEN  =       -82.05103632 eV

  energy  without entropy=      -82.05103632  energy(sigma->0) =      -82.05103632
 


--------------------------------------------------------------------------------------------------------


    POTLOK:  cpu time    0.7424: real time    0.7424


--------------------------------------------------------------------------------------------------------


 writing wavefunctions
     LOOP+:  cpu time  161.5475: real time  166.5805
    4ORBIT:  cpu time    0.0000: real time    0.0000
 


 total charge     
 
# of ion       s       p       d       tot
------------------------------------------
    1        1.313   2.414   0.000   3.727
    2        1.313   2.413   0.000   3.726
    3        1.313   2.412   0.000   3.726
    4        1.313   2.412   0.000   3.725
    5        1.313   2.413   0.000   3.726
    6        1.313   2.414   0.000   3.727
    7        1.313   2.412   0.000   3.726
    8        1.313   2.412   0.000   3.725
    9        0.261   6.205   8.915  15.382
   10        0.261   6.205   8.915  15.382
   11        0.261   6.205   8.915  15.382
   12        0.261   6.205   8.915  15.382
   13        0.351   6.353   5.824  12.528
   14        0.351   6.353   5.824  12.528
   15        0.351   6.353   5.824  12.528
   16        0.351   6.353   5.824  12.528
--------------------------------------------------
tot         12.957  69.535  58.956 141.448
 


 magnetization (x)
 
# of ion       s       p       d       tot
------------------------------------------
    1        0.000  -0.000   0.000   0.000
    2       -0.000   0.000   0.000  -0.000
    3        0.000   0.000   0.000   0.000
    4        0.000   0.000   0.000   0.000
    5       -0.000   0.000   0.000  -0.000
    6        0.000  -0.000   0.000   0.000
    7        0.000   0.000   0.000   0.000
    8        0.000   0.000   0.000   0.000
    9        0.000  -0.000   0.000   0.000
   10        0.000   0.000   0.000   0.000
   11        0.000  -0.000   0.000   0.000
   12        0.000   0.000   0.000   0.000
   13        0.000   0.000   0.000   0.000
   14       -0.000   0.000  -0.000  -0.000
   15        0.000   0.000   0.000   0.000
   16       -0.000   0.000  -0.000  -0.000
--------------------------------------------------
tot          0.000   0.000   0.000   0.000
 


 magnetization (y)
 
# of ion       s       p       d       tot
------------------------------------------
    1       -0.000  -0.000   0.000  -0.000
    2        0.000  -0.000   0.000  -0.000
    3        0.000  -0.000   0.000   0.000
    4       -0.000   0.000   0.000  -0.000
    5        0.000  -0.000   0.000  -0.000
    6       -0.000  -0.000   0.000  -0.000
    7        0.000  -0.000   0.000   0.000
    8       -0.000   0.000   0.000  -0.000
    9       -0.000   0.000   0.000  -0.000
   10       -0.000   0.000  -0.000  -0.000
   11       -0.000   0.000   0.000  -0.000
   12       -0.000   0.000  -0.000  -0.000
   13       -0.000  -0.000   0.000   0.000
   14       -0.000  -0.000   0.000   0.000
   15       -0.000  -0.000   0.000   0.000
   16       -0.000  -0.000   0.000   0.000
--------------------------------------------------
tot         -0.000   0.000   0.000  -0.000
 


 magnetization (z)
 
# of ion       s       p       d       tot
------------------------------------------
    1        0.000  -0.003   0.000  -0.002
    2        0.000  -0.004   0.000  -0.003
    3       -0.000   0.003   0.000   0.003
    4       -0.000   0.003   0.000   0.003
    5        0.000  -0.004   0.000  -0.003
    6        0.000  -0.003   0.000  -0.002
    7       -0.000   0.003   0.000   0.003
    8       -0.000   0.003   0.000   0.003
    9        0.000  -0.000   0.002   0.003
   10       -0.000   0.000  -0.002  -0.003
   11        0.000  -0.000   0.002   0.003
   12       -0.000   0.000  -0.002  -0.003
   13        0.020   0.054   3.665   3.739
   14       -0.020  -0.054  -3.666  -3.739
   15        0.020   0.054   3.665   3.739
   16       -0.020  -0.054  -3.666  -3.739
--------------------------------------------------
tot         -0.000   0.000  -0.001  -0.000
 
 BZINTS: Fermi energy:  5.011349;172.000000 electrons
         Band energy:***********;  BLOECHL correction:  0.000000
 BZINTS: Fermi energy:  5.011349;172.000000 electrons
         Band energy:***********;  BLOECHL correction:  0.000000
 BZINTS: Fermi energy:  5.011349;172.000000 electrons
         Band energy:***********;  BLOECHL correction:  0.000000
 BZINTS: Fermi energy:  5.011349;172.000000 electrons
         Band energy:***********;  BLOECHL correction:  0.000000

 total amount of memory used by VASP MPI-rank0    64742. kBytes
=======================================================================

   base      :      30000. kBytes
   nonl-proj :       3913. kBytes
   fftplans  :       1448. kBytes
   grid      :       5898. kBytes
   one-center:         62. kBytes
   wavefun   :      23421. kBytes
 
  
  
 General timing and accounting informations for this job:
 ========================================================
  
                  Total CPU time used (sec):      189.073
                            User time (sec):      176.096
                          System time (sec):       12.977
                         Elapsed time (sec):      196.355
  
                   Maximum memory used (kb):      353836.
                   Average memory used (kb):           0.
  
                          Minor page faults:       154704
                          Major page faults:           82
                 Voluntary context switches:        41908
