       N       E                     dE             d eps       ncg     rms          rms(c)
DAV:   1     0.604245880847E+04    0.60425E+04   -0.51665E+05 16384   0.196E+03
DAV:   2    -0.881774031557E+02   -0.61306E+04   -0.60220E+04 17920   0.446E+02
DAV:   3    -0.336892065918E+03   -0.24871E+03   -0.24784E+03 23296   0.976E+01
DAV:   4    -0.340299079010E+03   -0.34070E+01   -0.34069E+01 18688   0.115E+01
DAV:   5    -0.340403562860E+03   -0.10448E+00   -0.10448E+00 22528   0.198E+00    0.271E+01
DAV:   6    -0.330928880615E+03    0.94747E+01   -0.92698E+00 26624   0.102E+01    0.148E+01
DAV:   7    -0.328206974292E+03    0.27219E+01   -0.61634E+00 22528   0.708E+00    0.103E+01
DAV:   8    -0.327828932968E+03    0.37804E+00   -0.20291E+00 25344   0.335E+00    0.391E+00
DAV:   9    -0.327825656370E+03    0.32766E-02   -0.78650E-01 23040   0.210E+00    0.306E+00
DAV:  10    -0.327822202358E+03    0.34540E-02   -0.54613E-01 19968   0.215E+00    0.205E+00
DAV:  11    -0.327822789166E+03   -0.58681E-03   -0.21466E-01 20992   0.126E+00    0.847E-01
DAV:  12    -0.327828174899E+03   -0.53857E-02   -0.41711E-02 25856   0.474E-01    0.295E-01
DAV:  13    -0.327829309934E+03   -0.11350E-02   -0.38196E-03 18432   0.128E-01    0.163E-01
DAV:  14    -0.327829958133E+03   -0.64820E-03   -0.18430E-03 22272   0.515E-02    0.874E-02
DAV:  15    -0.327830266095E+03   -0.30796E-03   -0.81815E-04 19968   0.326E-02    0.517E-02
DAV:  16    -0.327830364455E+03   -0.98360E-04   -0.27532E-04 20992   0.219E-02    0.322E-02
DAV:  17    -0.327830430309E+03   -0.65854E-04   -0.30807E-04 19712   0.164E-02    0.172E-02
DAV:  18    -0.327830444897E+03   -0.14587E-04   -0.10253E-04 21504   0.105E-02    0.799E-03
DAV:  19    -0.327830446027E+03   -0.11302E-05   -0.49207E-06 18432   0.347E-03    0.587E-03
DAV:  20    -0.327830446412E+03   -0.38465E-06   -0.29200E-06 23040   0.207E-03    0.268E-03
DAV:  21    -0.327830446554E+03   -0.14245E-06   -0.61994E-07 21248   0.106E-03    0.129E-03
DAV:  22    -0.327830446631E+03   -0.77212E-07   -0.67867E-08 22016   0.328E-04    0.827E-04
DAV:  23    -0.327830446670E+03   -0.38213E-07   -0.25445E-08 14336   0.182E-04    0.331E-04
DAV:  24    -0.327830446688E+03   -0.18394E-07   -0.20230E-08 16384   0.150E-04    0.203E-04
DAV:  25    -0.327830446689E+03   -0.97498E-09   -0.42565E-09 13824   0.830E-05
   1 F= -.32783045E+03 E0= -.32783045E+03  d E =0.000000E+00  mag=    -0.0000
