       N       E                     dE             d eps       ncg     rms          rms(c)
DAV:   1     0.619439031374E+04    0.61944E+04   -0.50331E+05 12288   0.194E+03
DAV:   2    -0.965108979640E+02   -0.62909E+04   -0.61594E+04 13312   0.440E+02
DAV:   3    -0.371756032431E+03   -0.27525E+03   -0.27412E+03 17408   0.100E+02
DAV:   4    -0.375596761981E+03   -0.38407E+01   -0.38405E+01 14080   0.121E+01
DAV:   5    -0.375700878431E+03   -0.10412E+00   -0.10412E+00 16896   0.201E+00    0.751E+01
DAV:   6    -0.334267134810E+03    0.41434E+02   -0.59218E+02 12288   0.815E+01    0.100E+02
DAV:   7    -0.328880436455E+03    0.53867E+01   -0.11556E+02 12800   0.276E+01    0.437E+01
DAV:   8    -0.328997321972E+03   -0.11689E+00   -0.37861E+01 15104   0.212E+01    0.328E+01
DAV:   9    -0.330712150899E+03   -0.17148E+01   -0.10524E+02 14848   0.245E+01    0.236E+01
DAV:  10    -0.327041479767E+03    0.36707E+01   -0.21249E+01 16640   0.156E+01    0.276E+00
DAV:  11    -0.327158002544E+03   -0.11652E+00   -0.12659E+00 17408   0.191E+00    0.354E+00
DAV:  12    -0.327150230662E+03    0.77719E-02   -0.48120E-01 16384   0.178E+00    0.133E+00
DAV:  13    -0.327158229550E+03   -0.79989E-02   -0.49608E-02 14848   0.387E-01    0.900E-01
DAV:  14    -0.327170785434E+03   -0.12556E-01   -0.71656E-02 16640   0.409E-01    0.425E-01
DAV:  15    -0.327170552088E+03    0.23335E-03   -0.58527E-03 12800   0.194E-01    0.189E-01
DAV:  16    -0.327170858638E+03   -0.30655E-03   -0.67991E-04 18432   0.355E-02    0.131E-01
DAV:  17    -0.327171672512E+03   -0.81387E-03   -0.43534E-03 14336   0.741E-02    0.823E-02
DAV:  18    -0.327171746121E+03   -0.73609E-04   -0.25322E-04 14848   0.245E-02    0.579E-02
DAV:  19    -0.327171747189E+03   -0.10677E-05   -0.75778E-05 17408   0.162E-02    0.348E-02
DAV:  20    -0.327171754443E+03   -0.72543E-05   -0.57779E-05 18688   0.102E-02    0.228E-02
DAV:  21    -0.327171755328E+03   -0.88461E-06   -0.21733E-05 15872   0.685E-03    0.152E-02
DAV:  22    -0.327171755505E+03   -0.17740E-06   -0.12659E-06 13824   0.187E-03    0.127E-02
DAV:  23    -0.327171755866E+03   -0.36048E-06   -0.52620E-07 17408   0.104E-03    0.626E-03
DAV:  24    -0.327171755704E+03    0.16163E-06   -0.11708E-06 15360   0.212E-03    0.215E-03
DAV:  25    -0.327171755670E+03    0.34081E-07   -0.27764E-07 18688   0.101E-03    0.150E-03
DAV:  26    -0.327171755672E+03   -0.22555E-08   -0.43218E-08 12544   0.296E-04
   1 F= -.32717176E+03 E0= -.32717176E+03  d E =0.000000E+00  mag=    -0.0000
