 vasp.5.4.4.18Apr17-6-g9f103f2a35 (build Oct 30 2023 17:30:16) complex          
  
 executed on             LinuxIFC date 2024.06.29  01:36:41
 running on  256 total cores
 distrk:  each k-point on  256 cores,    1 groups
 distr:  one band on NCORES_PER_BAND=   1 cores,  256 groups


--------------------------------------------------------------------------------------------------------


 INCAR:
 POTCAR:    PAW_PBE S 06Sep2000                   
 POTCAR:     PAW_PBE Cu_pv 06Sep2000              
 POTCAR:     PAW_PBE Fe_pv 02Aug2007              

 ----------------------------------------------------------------------------- 
|                                                                             |
|           W    W    AA    RRRRR   N    N  II  N    N   GGGG   !!!           |
|           W    W   A  A   R    R  NN   N  II  NN   N  G    G  !!!           |
|           W    W  A    A  R    R  N N  N  II  N N  N  G       !!!           |
|           W WW W  AAAAAA  RRRRR   N  N N  II  N  N N  G  GGG   !            |
|           WW  WW  A    A  R   R   N   NN  II  N   NN  G    G                |
|           W    W  A    A  R    R  N    N  II  N    N   GGGG   !!!           |
|                                                                             |
|      For optimal performance we recommend to set                            |
|        NCORE= 4 - approx SQRT( number of cores)                             |
|      NCORE specifies how many cores store one orbital (NPAR=cpu/NCORE).     |
|      This setting can  greatly improve the performance of VASP for DFT.     |
|      The default,   NCORE=1            might be grossly inefficient         |
|      on modern multi-core architectures or massively parallel machines.     |
|      Do your own testing !!!!                                               |
|      Unfortunately you need to use the default for GW and RPA calculations. |
|      (for HF NCORE is supported but not extensively tested yet)             |
|                                                                             |
 ----------------------------------------------------------------------------- 

 POTCAR:    PAW_PBE S 06Sep2000                   
   SHA256 =  0fc7481fb0695f01bdc6462160264c5c84044ae9ec85a907d398b887a2bc3132 S/
   COPYR  = (c) Copyright 06Sep2000 Georg Kresse                                
   COPYR  = This file is part of the software VASP. Any use, copying, and all ot
   COPYR  = If you do not have a valid VASP license, you may not use, copy or di
   VRHFIN =S : s2p4                                                             
   LEXCH  = PE                                                                  
   EATOM  =   276.8230 eV,   20.3459 Ry                                         
                                                                                
   TITEL  = PAW_PBE S 06Sep2000                                                 
   LULTRA =        F    use ultrasoft PP ?                                      
   IUNSCR =        1    unscreen: 0-lin 1-nonlin 2-no                           
   RPACOR =    1.500    partial core radius                                     
   POMASS =   32.066; ZVAL   =    6.000    mass and valenz                      
   RCORE  =    1.900    outmost cutoff radius                                   
   RWIGS  =    2.200; RWIGS  =    1.164    wigner-seitz radius (au A)           
   ENMAX  =  258.689; ENMIN  =  194.016 eV                                      
   ICORE  =        2    local potential                                         
   LCOR   =        T    correct aug charges                                     
   LPAW   =        T    paw PP                                                  
   EAUG   =  335.092                                                            
   DEXC   =    0.000                                                            
   RMAX   =    1.942    core radius for proj-oper                               
   RAUG   =    1.300    factor for augmentation sphere                          
   RDEP   =    1.954    radius for radial grids                                 
   RDEPT  =    1.744    core radius for aug-charge                              
                                                                                
   Atomic configuration                                                         
    6 entries                                                                   
     n  l   j            E        occ.                                          
     1  0  0.50     -2405.8406   2.0000                                         
     2  0  0.50      -211.7007   2.0000                                         
     2  1  1.50      -156.4958   6.0000                                         
     3  0  0.50       -17.2562   2.0000                                         
     3  1  0.50        -7.0085   4.0000                                         
     3  2  1.50        -6.8029   0.0000                                         
   Description                                                                  
     l       E           TYP  RCUT    TYP  RCUT                                 
     0    -17.2561641     23  1.900                                             
     0    -15.8743224     23  1.900                                             
     1     -7.0085400     23  1.900                                             
     1     -2.7779785     23  1.900                                             
     2     -6.8029130     23  1.900                                             
  local pseudopotential read in
  partial core-charges read in
  partial kinetic energy density read in
  atomic valenz-charges read in
  non local Contribution for L=           0  read in
    real space projection operators read in
  non local Contribution for L=           0  read in
    real space projection operators read in
  non local Contribution for L=           1  read in
    real space projection operators read in
  non local Contribution for L=           1  read in
    real space projection operators read in
    PAW grid and wavefunctions read in
 
   number of l-projection  operators is LMAX  =           4
   number of lm-projection operators is LMMAX =           8
 
 POTCAR:     PAW_PBE Cu_pv 06Sep2000              
   SHA256 =  cb7b504e2ea725fe1f25c85a9ac77d4012ce94cd394135b722c4e25ec297f1cb Cu
   COPYR  = (c) Copyright 06Sep2000 Georg Kresse                                
   COPYR  = This file is part of the software VASP. Any use, copying, and all ot
   COPYR  = If you do not have a valid VASP license, you may not use, copy or di
   VRHFIN =Cu: d10 p1                                                           
   LEXCH  = PE                                                                  
   EATOM  =  4120.1201 eV,  302.8203 Ry                                         
                                                                                
   TITEL  = PAW_PBE Cu_pv 06Sep2000                                             
   LULTRA =        F    use ultrasoft PP ?                                      
   IUNSCR =        1    unscreen: 0-lin 1-nonlin 2-no                           
   RPACOR =    1.500    partial core radius                                     
   POMASS =   63.546; ZVAL   =   17.000    mass and valenz                      
   RCORE  =    2.000    outmost cutoff radius                                   
   RWIGS  =    2.000; RWIGS  =    1.058    wigner-seitz radius (au A)           
   ENMAX  =  368.648; ENMIN  =  276.486 eV                                      
   RCLOC  =    1.304    cutoff for local pot                                    
   LCOR   =        T    correct aug charges                                     
   LPAW   =        T    paw PP                                                  
   EAUG   =  758.233                                                            
   DEXC   =    0.000                                                            
   RMAX   =    2.046    core radius for proj-oper                               
   RAUG   =    1.300    factor for augmentation sphere                          
   RDEP   =    2.025    radius for radial grids                                 
   RDEPT  =    1.558    core radius for aug-charge                              
                                                                                
   Atomic configuration                                                         
    8 entries                                                                   
     n  l   j            E        occ.                                          
     1  0  0.50     -8850.2467   2.0000                                         
     2  0  0.50     -1062.3498   2.0000                                         
     2  1  1.50      -916.8226   6.0000                                         
     3  0  0.50      -114.6929   2.0000                                         
     3  1  1.50       -72.1325   6.0000                                         
     3  2  2.50        -5.0394  10.0000                                         
     4  0  0.50        -4.6097   1.0000                                         
     4  3  2.50        -1.3606   0.0000                                         
   Description                                                                  
     l       E           TYP  RCUT    TYP  RCUT                                 
     1    -72.1324777     23  1.700                                             
     1     -1.3605826     23  1.700                                             
     2     -5.0393776     23  2.000                                             
     2     -6.3999602     23  2.000                                             
     0     -4.6097062     23  1.800                                             
     0     14.1620818     23  1.800                                             
  local pseudopotential read in
  partial core-charges read in
  partial kinetic energy density read in
  atomic valenz-charges read in
  non local Contribution for L=           1  read in
    real space projection operators read in
  non local Contribution for L=           1  read in
    real space projection operators read in
  non local Contribution for L=           2  read in
    real space projection operators read in
  non local Contribution for L=           2  read in
    real space projection operators read in
  non local Contribution for L=           0  read in
    real space projection operators read in
  non local Contribution for L=           0  read in
    real space projection operators read in
    PAW grid and wavefunctions read in
 
   number of l-projection  operators is LMAX  =           6
   number of lm-projection operators is LMMAX =          18
 
 POTCAR:     PAW_PBE Fe_pv 02Aug2007              
   SHA256 =  5d22e414b1f82158bf2c7ecb8b97b28fd0923e48cadc1c3bf74d524558f5dd32 Fe
   COPYR  = (c) Copyright 02Aug2007 Georg Kresse                                
   COPYR  = This file is part of the software VASP. Any use, copying, and all ot
   COPYR  = If you do not have a valid VASP license, you may not use, copy or di
   VRHFIN =Fe:  3pd7s1                                                          
   LEXCH  = PE                                                                  
   EATOM  =  2457.4239 eV,  180.6156 Ry                                         
                                                                                
   TITEL  = PAW_PBE Fe_pv 02Aug2007                                             
   LULTRA =        F    use ultrasoft PP ?                                      
   IUNSCR =        1    unscreen: 0-lin 1-nonlin 2-no                           
   RPACOR =    1.750    partial core radius                                     
   POMASS =   55.847; ZVAL   =   14.000    mass and valenz                      
   RCORE  =    2.200    outmost cutoff radius                                   
   RWIGS  =    2.200; RWIGS  =    1.164    wigner-seitz radius (au A)           
   ENMAX  =  293.238; ENMIN  =  219.928 eV                                      
   ICORE  =        3    local potential                                         
   LCOR   =        T    correct aug charges                                     
   LPAW   =        T    paw PP                                                  
   EAUG   =  578.342                                                            
   DEXC   =    0.000                                                            
   RMAX   =    2.249    core radius for proj-oper                               
   RAUG   =    1.300    factor for augmentation sphere                          
   RDEP   =    2.296    radius for radial grids                                 
   RDEPT  =    1.766    core radius for aug-charge                              
                                                                                
   Atomic configuration                                                         
    8 entries                                                                   
     n  l   j            E        occ.                                          
     1  0  0.50     -6993.8440   2.0000                                         
     2  0  0.50      -814.6047   2.0000                                         
     2  1  1.50      -693.3689   6.0000                                         
     3  0  0.50       -89.4732   2.0000                                         
     3  1  1.50       -55.6373   6.0000                                         
     3  2  2.50        -3.8151   7.0000                                         
     4  0  0.50        -4.2551   1.0000                                         
     4  3  2.50        -1.3606   0.0000                                         
   Description                                                                  
     l       E           TYP  RCUT    TYP  RCUT                                 
     1    -55.6372668     23  2.000                                             
     1     -5.4423304     23  2.000                                             
     2     -3.8151096     23  2.200                                             
     2     -5.1756922     23  2.200                                             
     0     -4.2550951     23  2.200                                             
     0     27.2116520     23  2.200                                             
     3     -1.3605826     23  2.200                                             
  local pseudopotential read in
  partial core-charges read in
  partial kinetic energy density read in
  atomic valenz-charges read in
  non local Contribution for L=           1  read in
    real space projection operators read in
  non local Contribution for L=           1  read in
    real space projection operators read in
  non local Contribution for L=           2  read in
    real space projection operators read in
  non local Contribution for L=           2  read in
    real space projection operators read in
  non local Contribution for L=           0  read in
    real space projection operators read in
  non local Contribution for L=           0  read in
    real space projection operators read in
    PAW grid and wavefunctions read in
 
   number of l-projection  operators is LMAX  =           6
   number of lm-projection operators is LMMAX =          18
 

 ----------------------------------------------------------------------------- 
|                                                                             |
|  ADVICE TO THIS USER RUNNING 'VASP/VAMP'   (HEAR YOUR MASTER'S VOICE ...):  |
|                                                                             |
|      You have a (more or less) 'large supercell' and for larger cells       |
|      it might be more efficient to use real space projection opertators     |
|      So try LREAL= Auto  in the INCAR   file.                               |
|      Mind:          For very  accurate calculation you might also keep the  |
|      reciprocal projection scheme          (i.e. LREAL=.FALSE.)             |
|                                                                             |
 ----------------------------------------------------------------------------- 


 ----------------------------------------------------------------------------- 
|                                                                             |
|  ADVICE TO THIS USER RUNNING 'VASP/VAMP'   (HEAR YOUR MASTER'S VOICE ...):  |
|                                                                             |
|      You enforced a specific xc-type in the INCAR file,                     |
|      a different type was found on the POTCAR file                          |
|          I HOPE YOU KNOW, WHAT YOU ARE  DOING                               |
|                                                                             |
 ----------------------------------------------------------------------------- 

  PAW_PBE S 06Sep2000                   :
 energy of atom  1       EATOM= -276.8230
 kinetic energy error for atom=    0.0007 (will be added to EATOM!!)
   PAW_PBE Cu_pv 06Sep2000              :
 energy of atom  2       EATOM=-4120.1201
 kinetic energy error for atom=    0.0094 (will be added to EATOM!!)
   PAW_PBE Fe_pv 02Aug2007              :
 energy of atom  3       EATOM=-2457.4239
 kinetic energy error for atom=    0.0025 (will be added to EATOM!!)
 
 
 POSCAR: Fe16 Cu16 S32                           
  positions in direct lattice
  No initial velocities read in
 exchange correlation table for  LEXCH =       14
   RHO(1)=    0.500       N(1)  =     2000
   RHO(2)=  100.500       N(2)  =     4000
 


--------------------------------------------------------------------------------------------------------


 ion  position               nearest neighbor table
   1  0.126  0.126  0.120-  37 2.25  61 2.27  41 2.28  49 2.29
   2  0.626  0.126  0.120-  38 2.25  62 2.27  42 2.28  50 2.29
   3  0.126  0.626  0.120-  39 2.25  63 2.27  43 2.28  51 2.29
   4  0.626  0.626  0.120-  40 2.25  64 2.27  44 2.28  52 2.29
   5  0.374  0.374  0.120-  39 2.25  62 2.27  41 2.28  52 2.29
   6  0.874  0.374  0.120-  40 2.25  61 2.27  42 2.28  51 2.29
   7  0.374  0.874  0.120-  37 2.25  64 2.27  43 2.28  50 2.29
   8  0.874  0.874  0.120-  38 2.25  63 2.27  44 2.28  49 2.29
   9  0.124  0.374  0.870-  41 2.25  51 2.27  45 2.28  55 2.29
  10  0.624  0.374  0.870-  42 2.25  52 2.27  46 2.28  56 2.29
  11  0.124  0.874  0.870-  43 2.25  49 2.27  47 2.28  53 2.29
  12  0.624  0.874  0.870-  44 2.25  50 2.27  48 2.28  54 2.29
  13  0.376  0.126  0.870-  41 2.25  50 2.27  46 2.28  53 2.29
  14  0.876  0.126  0.870-  42 2.25  49 2.27  45 2.28  54 2.29
  15  0.376  0.626  0.870-  43 2.25  52 2.27  48 2.28  55 2.29
  16  0.876  0.626  0.870-  44 2.25  51 2.27  47 2.28  56 2.29
  17  0.124  0.124  0.620-  45 2.25  53 2.27  33 2.28  57 2.29
  18  0.624  0.124  0.620-  46 2.25  54 2.27  34 2.28  58 2.29
  19  0.124  0.624  0.620-  47 2.25  55 2.27  35 2.28  59 2.29
  20  0.624  0.624  0.620-  48 2.25  56 2.27  36 2.28  60 2.29
  21  0.376  0.376  0.620-  46 2.25  55 2.27  36 2.28  57 2.29
  22  0.876  0.376  0.620-  45 2.25  56 2.27  35 2.28  58 2.29
  23  0.376  0.876  0.620-  48 2.25  53 2.27  34 2.28  59 2.29
  24  0.876  0.876  0.620-  47 2.25  54 2.27  33 2.28  60 2.29
  25  0.374  0.124  0.370-  34 2.25  57 2.27  37 2.28  62 2.29
  26  0.874  0.124  0.370-  33 2.25  58 2.27  38 2.28  61 2.29
  27  0.374  0.624  0.370-  36 2.25  59 2.27  39 2.28  64 2.29
  28  0.874  0.624  0.370-  35 2.25  60 2.27  40 2.28  63 2.29
  29  0.126  0.376  0.370-  35 2.25  57 2.27  39 2.28  61 2.29
  30  0.626  0.376  0.370-  36 2.25  58 2.27  40 2.28  62 2.29
  31  0.126  0.876  0.370-  33 2.25  59 2.27  37 2.28  63 2.29
  32  0.626  0.876  0.370-  34 2.25  60 2.27  38 2.28  64 2.29
  33  0.000  0.000  0.504-  26 2.25  31 2.25  17 2.28  24 2.28
  34  0.500  0.000  0.504-  25 2.25  32 2.25  18 2.28  23 2.28
  35  0.000  0.500  0.504-  28 2.25  29 2.25  19 2.28  22 2.28
  36  0.500  0.500  0.504-  27 2.25  30 2.25  20 2.28  21 2.28
  37  0.250  0.000  0.254-   1 2.25   7 2.25  25 2.28  31 2.28
  38  0.750  0.000  0.254-   2 2.25   8 2.25  26 2.28  32 2.28
  39  0.250  0.500  0.254-   3 2.25   5 2.25  27 2.28  29 2.28
  40  0.750  0.500  0.254-   4 2.25   6 2.25  28 2.28  30 2.28
  41  0.250  0.250  0.004-   9 2.25  13 2.25   1 2.28   5 2.28
  42  0.750  0.250  0.004-  10 2.25  14 2.25   2 2.28   6 2.28
  43  0.250  0.750  0.004-  11 2.25  15 2.25   3 2.28   7 2.28
  44  0.750  0.750  0.004-  12 2.25  16 2.25   4 2.28   8 2.28
  45  0.000  0.250  0.754-  17 2.25  22 2.25   9 2.28  14 2.28
  46  0.500  0.250  0.754-  18 2.25  21 2.25  10 2.28  13 2.28
  47  0.000  0.750  0.754-  19 2.25  24 2.25  11 2.28  16 2.28
  48  0.500  0.750  0.754-  20 2.25  23 2.25  12 2.28  15 2.28
  49  0.000  0.000  0.006-  11 2.27  14 2.27   1 2.29   8 2.29
  50  0.500  0.000  0.006-  12 2.27  13 2.27   2 2.29   7 2.29
  51  0.000  0.500  0.006-   9 2.27  16 2.27   3 2.29   6 2.29
  52  0.500  0.500  0.006-  10 2.27  15 2.27   4 2.29   5 2.29
  53  0.250  0.000  0.756-  17 2.27  23 2.27  11 2.29  13 2.29
  54  0.750  0.000  0.756-  18 2.27  24 2.27  12 2.29  14 2.29
  55  0.250  0.500  0.756-  19 2.27  21 2.27   9 2.29  15 2.29
  56  0.750  0.500  0.756-  20 2.27  22 2.27  10 2.29  16 2.29
  57  0.250  0.250  0.506-  25 2.27  29 2.27  17 2.29  21 2.29
  58  0.750  0.250  0.506-  26 2.27  30 2.27  18 2.29  22 2.29
  59  0.250  0.750  0.506-  27 2.27  31 2.27  19 2.29  23 2.29
  60  0.750  0.750  0.506-  28 2.27  32 2.27  20 2.29  24 2.29
  61  0.000  0.250  0.256-   1 2.27   6 2.27  26 2.29  29 2.29
  62  0.500  0.250  0.256-   2 2.27   5 2.27  25 2.29  30 2.29
  63  0.000  0.750  0.256-   3 2.27   8 2.27  28 2.29  31 2.29
  64  0.500  0.750  0.256-   4 2.27   7 2.27  27 2.29  32 2.29
 
  LATTYP: Found a base centered orthorhombic cell.
 ALAT       =    14.1412913382
 B/A-ratio  =     1.0989905097
 C/A-ratio  =     0.7377751261
  
  Lattice vectors:
  
 A1 = (  10.4943260000,   0.4949230000,   0.0000000000)
 A2 = (  -0.4949230000, -10.4943260000,   0.0000000000)
 A3 = (   0.0000000000,   0.0000000000, -10.4330930000)


Analysis of symmetry for initial positions (statically):
=====================================================================
 Subroutine PRICEL returns following result:
 
  LATTYP: Found a face centered orthorhombic cell.
 ALAT       =     7.0706456691
 B/A-ratio  =     1.0989905097
 C/A-ratio  =     1.4755502522
  
  Lattice vectors:
  
 A1 = (  -2.7473122500,  -2.7473122500,   5.2165465000)
 A2 = (  -2.4998507500,   2.4998507500,   5.2165465000)
 A3 = (  -5.2471630000,  -0.2474615000,   0.0000000000)
 
   8 primitive cells build up your supercell.
 

 Routine SETGRP: Setting up the symmetry group for a 
 base centered orthorhombic supercell.


 Subroutine GETGRP returns: Found  4 space group operations
 (whereof  2 operations were pure point group operations)
 out of a pool of  8 trial point group operations.


The static configuration has the point symmetry C_2 .
 The point group associated with its full space group is C_2v.


Analysis of symmetry for dynamics (positions and initial velocities):
=====================================================================
 Subroutine PRICEL returns following result:
 
  LATTYP: Found a face centered orthorhombic cell.
 ALAT       =     7.0706456691
 B/A-ratio  =     1.0989905097
 C/A-ratio  =     1.4755502522
  
  Lattice vectors:
  
 A1 = (  -2.7473122500,  -2.7473122500,   5.2165465000)
 A2 = (  -2.4998507500,   2.4998507500,   5.2165465000)
 A3 = (  -5.2471630000,  -0.2474615000,   0.0000000000)
 
   8 primitive cells build up your supercell.
 

 Routine SETGRP: Setting up the symmetry group for a 
 base centered orthorhombic supercell.


 Subroutine GETGRP returns: Found  4 space group operations
 (whereof  2 operations were pure point group operations)
 out of a pool of  8 trial point group operations.


The dynamic configuration has the point symmetry C_2 .
 The point group associated with its full space group is C_2v.


Analysis of structural, dynamic, and magnetic symmetry:
=====================================================================
 Subroutine PRICEL returns following result:
 
  LATTYP: Found a face centered orthorhombic cell.
 ALAT       =     7.0706456691
 B/A-ratio  =     1.0989905097
 C/A-ratio  =     1.4755502522
  
  Lattice vectors:
  
 A1 = (  -2.7473122500,  -2.7473122500,   5.2165465000)
 A2 = (  -2.4998507500,   2.4998507500,   5.2165465000)
 A3 = (  -5.2471630000,  -0.2474615000,   0.0000000000)
 
   8 primitive cells build up your supercell.
 

 Routine SETGRP: Setting up the symmetry group for a 
 base centered orthorhombic supercell.


 Subroutine GETGRP returns: Found  4 space group operations
 (whereof  2 operations were pure point group operations)
 out of a pool of  8 trial point group operations.


The magnetic configuration has the point symmetry C_2 .
 The point group associated with its full space group is C_2v.


 Subroutine INISYM returns: Found  4 space group operations
 (whereof  2 operations are pure point group operations),
 and found     8 'primitive' translations

 
 
 KPOINTS: Automatic mesh                          

Automatic generation of k-mesh.
Space group operators:
 irot       det(A)        alpha          n_x          n_y          n_z        tau_x        tau_y        tau_z
    1     1.000000     0.000000     1.000000     0.000000     0.000000     0.000000     0.000000     0.000000
    2     1.000000   179.999999     0.000000     0.000000     1.000000     0.000000     0.000000     0.000000
    3    -1.000000   180.000000     0.707107     0.707107     0.000000    -0.750000    -0.000000     0.750000
    4    -1.000000   180.000000     0.707107    -0.707107     0.000000    -0.750000    -0.000000     0.750000
 
 Subroutine IBZKPT returns following result:
 ===========================================
 
 Found      6 irreducible k-points:
 
 Following reciprocal coordinates:
            Coordinates               Weight
  0.000000  0.000000  0.000000      1.000000
  0.500000  0.000000  0.000000      2.000000
  0.500000  0.500000  0.000000      1.000000
  0.000000  0.000000  0.500000      1.000000
  0.500000  0.000000  0.500000      2.000000
  0.500000  0.500000  0.500000      1.000000
 
 Following cartesian coordinates:
            Coordinates               Weight
  0.000000  0.000000  0.000000      1.000000
  0.047751 -0.002252  0.000000      2.000000
  0.045499  0.045499  0.000000      1.000000
  0.000000  0.000000  0.047924      1.000000
  0.047751 -0.002252  0.047924      2.000000
  0.045499  0.045499  0.047924      1.000000
 
 TETIRR: Found     12 inequivalent tetrahedra from       48
 
 Subroutine IBZKPT_HF returns following result:
 ==============================================
 
 Found      8 k-points in 1st BZ
 the following      8 k-points will be used (e.g. in the exchange kernel)
 Following reciprocal coordinates:   # in IRBZ
  0.000000  0.000000  0.000000    0.12500000   1 t-inv F
  0.500000  0.000000  0.000000    0.12500000   2 t-inv F
  0.500000  0.500000  0.000000    0.12500000   3 t-inv F
  0.000000  0.000000  0.500000    0.12500000   4 t-inv F
  0.500000  0.000000  0.500000    0.12500000   5 t-inv F
  0.500000  0.500000  0.500000    0.12500000   6 t-inv F
 -0.000000 -0.500000  0.000000    0.12500000   2 t-inv F spinflp
 -0.000000 -0.500000  0.500000    0.12500000   5 t-inv F spinflp


--------------------------------------------------------------------------------------------------------




 Dimension of arrays:
   k-points           NKPTS =      6   k-points in BZ     NKDIM =      6   number of bands    NBANDS=    512
   number of dos      NEDOS =    301   number of ions     NIONS =     64
   non local maximal  LDIM  =      6   non local SUM 2l+1 LMDIM =     18
   total plane-waves  NPLWV = 829440
   max r-space proj   IRMAX =      1   max aug-charges    IRDMAX=  22990
   dimension x,y,z NGX =    96 NGY =   96 NGZ =   90
   dimension x,y,z NGXF=   192 NGYF=  192 NGZF=  180
   support grid    NGXF=   192 NGYF=  192 NGZF=  180
   ions per type =              32  16  16
   NGX,Y,Z   is equivalent  to a cutoff of  15.19, 15.19, 14.34 a.u.
   NGXF,Y,Z  is equivalent  to a cutoff of  30.38, 30.38, 28.68 a.u.

 SYSTEM =  CuFeS2                                  
 POSCAR =  Fe16 Cu16 S32                           

 Startparameter for this run:
   NWRITE =      2    write-flag & timer
   PREC   = accura    normal or accurate (medium, high low for compatibility)
   ISTART =      0    job   : 0-new  1-cont  2-samecut
   ICHARG =      1    charge: 1-file 2-atom 10-const
   ISPIN  =      2    spin polarized calculation?
   LNONCOLLINEAR =      F non collinear calculations
   LSORBIT =      F    spin-orbit coupling
   INIWAV =      1    electr: 0-lowe 1-rand  2-diag
   LASPH  =      F    aspherical Exc in radial PAW
   METAGGA=      F    non-selfconsistent MetaGGA calc.

 Electronic Relaxation 1
   ENCUT  =  700.0 eV  51.45 Ry    7.17 a.u.  22.66 22.66 22.51*2*pi/ulx,y,z
   ENINI  =  700.0     initial cutoff
   ENAUG  =  758.2 eV  augmentation charge cutoff
   NELM   =    500;   NELMIN=  2; NELMDL=  0     # of ELM steps 
   EDIFF  = 0.1E-07   stopping-criterion for ELM
   LREAL  =      F    real-space projection
   NLSPLINE    = F    spline interpolate recip. space projectors
   LCOMPAT=      F    compatible to vasp.4.4
   GGA_COMPAT  = T    GGA compatible to vasp.4.4-vasp.4.6
   LMAXPAW     = -100 max onsite density
   LMAXMIX     =    4 max onsite mixed and CHGCAR
   VOSKOWN=      0    Vosko Wilk Nusair interpolation
   ROPT   =    0.00000   0.00000   0.00000
 Ionic relaxation
   EDIFFG = -.1E-04   stopping-criterion for IOM
   NSW    =      0    number of steps for IOM
   NBLOCK =      1;   KBLOCK =      1    inner block; outer block 
   IBRION =     -1    ionic relax: 0-MD 1-quasi-New 2-CG
   NFREE  =      0    steps in history (QN), initial steepest desc. (CG)
   ISIF   =      2    stress and relaxation
   IWAVPR =     10    prediction:  0-non 1-charg 2-wave 3-comb
   ISYM   =      2    0-nonsym 1-usesym 2-fastsym
   LCORR  =      T    Harris-Foulkes like correction to forces

   POTIM  = 0.5000    time-step for ionic-motion
   TEIN   =    0.0    initial temperature
   TEBEG  =    0.0;   TEEND  =   0.0 temperature during run
   SMASS  =  -3.00    Nose mass-parameter (am)
   estimated Nose-frequenzy (Omega)   =  0.10E-29 period in steps =****** mass=  -0.252E-26a.u.
   SCALEE = 1.0000    scale energy and forces
   NPACO  =    256;   APACO  = 16.0  distance and # of slots for P.C.
   PSTRESS=    0.0 pullay stress

  Mass of Ions in am
   POMASS =  32.07 63.55 55.85
  Ionic Valenz
   ZVAL   =   6.00 17.00 14.00
  Atomic Wigner-Seitz radii
   RWIGS  =  -1.00 -1.00 -1.00
  virtual crystal weights 
   VCA    =   1.00  1.00  1.00
   NELECT =     688.0000    total number of electrons
   NUPDOWN=      -1.0000    fix difference up-down

 DOS related values:
   EMIN   =  10.00;   EMAX   =-10.00  energy-range for DOS
   EFERMI =   0.00
   ISMEAR =    -5;   SIGMA  =   0.03  broadening in eV -4-tet -1-fermi 0-gaus

 Electronic relaxation 2 (details)
   IALGO  =     38    algorithm
   LDIAG  =      T    sub-space diagonalisation (order eigenvalues)
   LSUBROT=      F    optimize rotation matrix (better conditioning)
   TURBO    =      0    0=normal 1=particle mesh
   IRESTART =      0    0=no restart 2=restart with 2 vectors
   NREBOOT  =      0    no. of reboots
   NMIN     =      0    reboot dimension
   EREF     =   0.00    reference energy to select bands
   IMIX   =      4    mixing-type and parameters
     AMIX     =   0.40;   BMIX     =  1.00
     AMIX_MAG =   1.60;   BMIX_MAG =  1.00
     AMIN     =   0.10
     WC   =   100.;   INIMIX=   1;  MIXPRE=   1;  MAXMIX= -45

 Intra band minimization:
   WEIMIN = 0.0000     energy-eigenvalue tresh-hold
   EBREAK =  0.49E-11  absolut break condition
   DEPER  =   0.30     relativ break condition  

   TIME   =   0.40     timestep for ELM

  volume/ion in A,a.u.               =      17.91       120.88
  Fermi-wavevector in a.u.,A,eV,Ry     =   1.380869  2.609465 25.943591  1.906800
  Thomas-Fermi vector in A             =   2.505706
 
 Write flags
   LWAVE        =      T    write WAVECAR
   LDOWNSAMPLE  =      F    k-point downsampling of WAVECAR
   LCHARG       =      T    write CHGCAR
   LVTOT        =      F    write LOCPOT, total local potential
   LVHAR        =      F    write LOCPOT, Hartree potential only
   LELF         =      F    write electronic localiz. function (ELF)
   LORBIT       =     11    0 simple, 1 ext, 2 COOP (PROOUT), +10 PAW based schemes


 Dipole corrections
   LMONO  =      F    monopole corrections only (constant potential shift)
   LDIPOL =      F    correct potential (dipole corrections)
   IDIPOL =      0    1-x, 2-y, 3-z, 4-all directions 
   EPSILON=  1.0000000 bulk dielectric constant

 LDA+U is selected, type is set to LDAUTYPE =  2
   angular momentum for each species LDAUL =     2    2    2
   U (eV)           for each species LDAUU =   0.0  0.1  4.7
   J (eV)           for each species LDAUJ =   0.0  0.0  0.0
 Exchange correlation treatment:
   GGA     =    PS    GGA type
   LEXCH   =    14    internal setting for exchange type
   VOSKOWN=      0    Vosko Wilk Nusair interpolation
   LHFCALC =     F    Hartree Fock is set to
   LHFONE  =     F    Hartree Fock one center treatment
   AEXX    =    0.0000 exact exchange contribution

 Linear response parameters
   LEPSILON=     F    determine dielectric tensor
   LRPA    =     F    only Hartree local field effects (RPA)
   LNABLA  =     F    use nabla operator in PAW spheres
   LVEL    =     F    velocity operator in full k-point grid
   LINTERFAST=   F  fast interpolation
   KINTER  =     0    interpolate to denser k-point grid
   CSHIFT  =0.1000    complex shift for real part using Kramers Kronig
   OMEGAMAX=  -1.0    maximum frequency
   DEG_THRESHOLD= 0.2000000E-02 threshold for treating states as degnerate
   RTIME   =   -0.100 relaxation time in fs
  (WPLASMAI=    0.000 imaginary part of plasma frequency in eV, 0.658/RTIME)
   DFIELD  = 0.0000000 0.0000000 0.0000000 field for delta impulse in time
 
 Orbital magnetization related:
   ORBITALMAG=     F  switch on orbital magnetization
   LCHIMAG   =     F  perturbation theory with respect to B field
   DQ        =  0.001000  dq finite difference perturbation B field
   LLRAUG    =     F  two centre corrections for induced B field

 PEAD related settings:
   LPEAD      =     T    switch on PEAD
   IPEAD      =     4    finite difference order for dpsi/dk
   LCALCPOL   =     T    calculate macroscopic polarization
   LCALCEPS   =     F    calculate dielectric tensor
   EFIELD_PEAD=    0.0000    0.0000    0.0000
   SKIP_EDOTP =     F
   LRPA       =     F
   SKIP_SCF   =     F


--------------------------------------------------------------------------------------------------------


 Static calculation
 charge density and potential will be updated during run
 spin polarized calculation
 Variant of blocked Davidson
 Davidson routine will perform the subspace rotation
 perform sub-space diagonalisation
    after iterative eigenvector-optimisation
 modified Broyden-mixing scheme, WC =      100.0
 initial mixing is a Kerker type mixing with AMIX =  0.4000 and BMIX =      1.0000
 Hartree-type preconditioning will be used
 using additional bands          168
 reciprocal scheme for non local part
 use partial core corrections
 calculate Harris-corrections to forces 
   (improved forces if not selfconsistent)
 use gradient corrections 
 use of overlap-Matrix (Vanderbilt PP)
 Fermi weights with tetrahedron method with Bloechl corrections


--------------------------------------------------------------------------------------------------------


  energy-cutoff  :      700.00
  volume of cell :     1146.45
      direct lattice vectors                 reciprocal lattice vectors
    10.494326000  0.494923000  0.000000000     0.095502000 -0.004503971  0.000000000
     0.494923000 10.494326000  0.000000000    -0.004503971  0.095502000  0.000000000
     0.000000000  0.000000000 10.433093000     0.000000000  0.000000000  0.095848853

  length of vectors
    10.505990052 10.505990052 10.433093000     0.095608147  0.095608147  0.095848853


 
 k-points in units of 2pi/SCALE and weight: Automatic mesh                          
   0.00000000  0.00000000  0.00000000       0.125
   0.04775100 -0.00225199  0.00000000       0.250
   0.04549901  0.04549901  0.00000000       0.125
   0.00000000  0.00000000  0.04792443       0.125
   0.04775100 -0.00225199  0.04792443       0.250
   0.04549901  0.04549901  0.04792443       0.125
 
 k-points in reciprocal lattice and weights: Automatic mesh                          
   0.00000000  0.00000000  0.00000000       0.125
   0.50000000  0.00000000  0.00000000       0.250
   0.50000000  0.50000000  0.00000000       0.125
   0.00000000  0.00000000  0.50000000       0.125
   0.50000000  0.00000000  0.50000000       0.250
   0.50000000  0.50000000  0.50000000       0.125
 
 position of ions in fractional coordinates (direct lattice) 
   0.12605700  0.12552700  0.11990900
   0.62605700  0.12552700  0.11990900
   0.12605700  0.62552700  0.11990900
   0.62605700  0.62552700  0.11990900
   0.37394300  0.37447300  0.11990900
   0.87394300  0.37447300  0.11990900
   0.37394300  0.87447300  0.11990900
   0.87394300  0.87447300  0.11990900
   0.12447300  0.37394300  0.86990900
   0.62447300  0.37394300  0.86990900
   0.12447300  0.87394300  0.86990900
   0.62447300  0.87394300  0.86990900
   0.37552700  0.12605700  0.86990900
   0.87552700  0.12605700  0.86990900
   0.37552700  0.62605700  0.86990900
   0.87552700  0.62605700  0.86990900
   0.12394300  0.12447300  0.61990900
   0.62394300  0.12447300  0.61990900
   0.12394300  0.62447300  0.61990900
   0.62394300  0.62447300  0.61990900
   0.37605700  0.37552700  0.61990900
   0.87605700  0.37552700  0.61990900
   0.37605700  0.87552700  0.61990900
   0.87605700  0.87552700  0.61990900
   0.37447300  0.12394300  0.36990900
   0.87447300  0.12394300  0.36990900
   0.37447300  0.62394300  0.36990900
   0.87447300  0.62394300  0.36990900
   0.12552700  0.37605700  0.36990900
   0.62552700  0.37605700  0.36990900
   0.12552700  0.87605700  0.36990900
   0.62552700  0.87605700  0.36990900
   0.00000000  0.00000000  0.50440100
   0.50000000  0.00000000  0.50440100
   0.00000000  0.50000000  0.50440100
   0.50000000  0.50000000  0.50440100
   0.25000000  0.00000000  0.25440100
   0.75000000  0.00000000  0.25440100
   0.25000000  0.50000000  0.25440100
   0.75000000  0.50000000  0.25440100
   0.25000000  0.25000000  0.00440100
   0.75000000  0.25000000  0.00440100
   0.25000000  0.75000000  0.00440100
   0.75000000  0.75000000  0.00440100
   0.00000000  0.25000000  0.75440100
   0.50000000  0.25000000  0.75440100
   0.00000000  0.75000000  0.75440100
   0.50000000  0.75000000  0.75440100
   0.00000000  0.00000000  0.00578200
   0.50000000  0.00000000  0.00578200
   0.00000000  0.50000000  0.00578200
   0.50000000  0.50000000  0.00578200
   0.25000000  0.00000000  0.75578200
   0.75000000  0.00000000  0.75578200
   0.25000000  0.50000000  0.75578200
   0.75000000  0.50000000  0.75578200
   0.25000000  0.25000000  0.50578200
   0.75000000  0.25000000  0.50578200
   0.25000000  0.75000000  0.50578200
   0.75000000  0.75000000  0.50578200
   0.00000000  0.25000000  0.25578200
   0.50000000  0.25000000  0.25578200
   0.00000000  0.75000000  0.25578200
   0.50000000  0.75000000  0.25578200
 
 position of ions in cartesian coordinates  (Angst):
   1.38500945  1.37970977  1.25102175
   6.63217245  1.62717127  1.25102175
   1.63247095  6.62687277  1.25102175
   6.87963395  6.87433427  1.25102175
   4.10961505  4.11491473  1.25102175
   9.35677805  4.36237623  1.25102175
   4.35707655  9.36207773  1.25102175
   9.60423955  9.60953923  1.25102175
   1.49133323  3.98588430  9.07584150
   6.73849623  4.23334580  9.07584150
   1.73879473  9.23304730  9.07584150
   6.98595773  9.48050880  9.07584150
   4.00329127  1.50874020  9.07584150
   9.25045427  1.75620170  9.07584150
   4.25075277  6.75590320  9.07584150
   9.49791577  7.00336470  9.07584150
   1.36230280  1.36760248  6.46756825
   6.60946580  1.61506398  6.46756825
   1.60976430  6.61476548  6.46756825
   6.85692730  6.86222698  6.46756825
   4.13232170  4.12702202  6.46756825
   9.37948470  4.37448352  6.46756825
   4.37978320  9.37418502  6.46756825
   9.62694620  9.62164652  6.46756825
   3.99118398  1.48603355  3.85929500
   9.23834698  1.73349505  3.85929500
   4.23864548  6.73319655  3.85929500
   9.48580848  6.98065805  3.85929500
   1.50344052  4.00859095  3.85929500
   6.75060352  4.25605245  3.85929500
   1.75090202  9.25575395  3.85929500
   6.99806502  9.50321545  3.85929500
   0.00000000  0.00000000  5.26246254
   5.24716300  0.24746150  5.26246254
   0.24746150  5.24716300  5.26246254
   5.49462450  5.49462450  5.26246254
   2.62358150  0.12373075  2.65418929
   7.87074450  0.37119225  2.65418929
   2.87104300  5.37089375  2.65418929
   8.11820600  5.61835525  2.65418929
   2.74731225  2.74731225  0.04591604
   7.99447525  2.99477375  0.04591604
   2.99477375  7.99447525  0.04591604
   8.24193675  8.24193675  0.04591604
   0.12373075  2.62358150  7.87073579
   5.37089375  2.87104300  7.87073579
   0.37119225  7.87074450  7.87073579
   5.61835525  8.11820600  7.87073579
   0.00000000  0.00000000  0.06032414
   5.24716300  0.24746150  0.06032414
   0.24746150  5.24716300  0.06032414
   5.49462450  5.49462450  0.06032414
   2.62358150  0.12373075  7.88514389
   7.87074450  0.37119225  7.88514389
   2.87104300  5.37089375  7.88514389
   8.11820600  5.61835525  7.88514389
   2.74731225  2.74731225  5.27687064
   7.99447525  2.99477375  5.27687064
   2.99477375  7.99447525  5.27687064
   8.24193675  8.24193675  5.27687064
   0.12373075  2.62358150  2.66859739
   5.37089375  2.87104300  2.66859739
   0.37119225  7.87074450  2.66859739
   5.61835525  8.11820600  2.66859739
 


--------------------------------------------------------------------------------------------------------


 k-point  1 :   0.0000 0.0000 0.0000  plane waves:   48199
 k-point  2 :   0.5000 0.0000 0.0000  plane waves:   48220
 k-point  3 :   0.5000 0.5000 0.0000  plane waves:   48204
 k-point  4 :   0.0000 0.0000 0.5000  plane waves:   48254
 k-point  5 :   0.5000 0.0000 0.5000  plane waves:   48160
 k-point  6 :   0.5000 0.5000 0.5000  plane waves:   48164

 maximum and minimum number of plane-waves per node :     48254    48160

 maximum number of plane-waves:     48254
 maximum index in each direction: 
   IXMAX=   22   IYMAX=   22   IZMAX=   22
   IXMIN=  -23   IYMIN=  -23   IZMIN=  -23


 serial   3D FFT for wavefunctions
 parallel 3D FFT for charge:
    minimum data exchange during FFTs selected (reduces bandwidth)


 total amount of memory used by VASP MPI-rank0   300225. kBytes
=======================================================================

   base      :      30000. kBytes
   nonl-proj :     174956. kBytes
   fftplans  :       4588. kBytes
   grid      :      69719. kBytes
   one-center:       1990. kBytes
   wavefun   :      18972. kBytes
 
     INWAV:  cpu time    0.0000: real time    0.0000
 Broyden mixing: mesh for mixing (old mesh)
   NGX = 45   NGY = 45   NGZ = 45
  (NGX  =192   NGY  =192   NGZ  =180)
  gives a total of  91125 points

 initial charge density was supplied:
 charge density of overlapping atoms calculated
 number of electron     688.0000000 magnetization       0.0000000
 keeping initial charge density in first step


--------------------------------------------------------------------------------------------------------


 Maximum index for augmentation-charges          895 (set IRDMAX)


--------------------------------------------------------------------------------------------------------


 First call to EWALD:  gamma=   0.169
 Maximum number of real-space cells 3x 3x 3
 Maximum number of reciprocal cells 3x 3x 3

    FEWALD:  cpu time    0.0021: real time    0.0025


--------------------------------------- Iteration      1(   1)  ---------------------------------------


    POTLOK:  cpu time    0.3392: real time    0.3777
    SETDIJ:  cpu time    0.0149: real time    0.0151
     EDDAV:  cpu time   63.0796: real time   63.6207
 BZINTS: Fermi energy: 16.866570;688.000000 electrons
         Band energy:***********;  BLOECHL correction: -0.004602
       DOS:  cpu time    0.0188: real time    0.0189
    --------------------------------------------
      LOOP:  cpu time   63.4526: real time   64.0324

 eigenvalue-minimisations  : 12288
 total energy-change (2. order) : 0.6194390E+04  (-0.5033087E+05)
 number of electron     688.0000000 magnetization       0.0000000
 augmentation part      688.0000000 magnetization       0.0000000

 Free energy of the ion-electron system (eV)
  ---------------------------------------------------
  alpha Z        PSCENC =      2364.82206701
  Ewald energy   TEWEN  =    -62584.12430502
  -Hartree energ DENC   =    -44243.63751711
  -exchange      EXHF   =         0.00000000
  -V(xc)+E(xc)   XCENC  =      3320.14253037
  PAW double counting   =     94592.23312189   -98164.79192727
  entropy T*S    EENTRO =         0.00000000
  eigenvalues    EBANDS =     -3110.31876375
  atomic energy  EATOM  =    114020.06510763
  Solvation  Ediel_sol  =         0.00000000
  ---------------------------------------------------
  free energy    TOTEN  =      6194.39031374 eV

  energy without entropy =     6194.39031374  energy(sigma->0) =     6194.39031374


--------------------------------------------------------------------------------------------------------




--------------------------------------- Iteration      1(   2)  ---------------------------------------


     EDDAV:  cpu time   73.0361: real time   73.5721
 BZINTS: Fermi energy:  6.627490;688.000000 electrons
         Band energy:***********;  BLOECHL correction:  0.000000
       DOS:  cpu time    0.0029: real time    0.0029
    --------------------------------------------
      LOOP:  cpu time   73.0390: real time   73.5749

 eigenvalue-minimisations  : 13312
 total energy-change (2. order) :-0.6290901E+04  (-0.6159358E+04)
 number of electron     688.0000000 magnetization       0.0000000
 augmentation part      688.0000000 magnetization       0.0000000

 Free energy of the ion-electron system (eV)
  ---------------------------------------------------
  alpha Z        PSCENC =      2364.82206701
  Ewald energy   TEWEN  =    -62584.12430502
  -Hartree energ DENC   =    -44243.63751711
  -exchange      EXHF   =         0.00000000
  -V(xc)+E(xc)   XCENC  =      3320.14253037
  PAW double counting   =     94592.23312189   -98164.79192727
  entropy T*S    EENTRO =         0.00000000
  eigenvalues    EBANDS =     -9401.21997546
  atomic energy  EATOM  =    114020.06510763
  Solvation  Ediel_sol  =         0.00000000
  ---------------------------------------------------
  free energy    TOTEN  =       -96.51089796 eV

  energy without entropy =      -96.51089796  energy(sigma->0) =      -96.51089796


--------------------------------------------------------------------------------------------------------




--------------------------------------- Iteration      1(   3)  ---------------------------------------


     EDDAV:  cpu time  120.9405: real time  121.7597
 BZINTS: Fermi energy:  6.068297;688.000000 electrons
         Band energy:***********;  BLOECHL correction:  0.000000
       DOS:  cpu time    0.0028: real time    0.0028
    --------------------------------------------
      LOOP:  cpu time  120.9433: real time  121.7626

 eigenvalue-minimisations  : 17408
 total energy-change (2. order) :-0.2752451E+03  (-0.2741190E+03)
 number of electron     688.0000000 magnetization       0.0000000
 augmentation part      688.0000000 magnetization       0.0000000

 Free energy of the ion-electron system (eV)
  ---------------------------------------------------
  alpha Z        PSCENC =      2364.82206701
  Ewald energy   TEWEN  =    -62584.12430502
  -Hartree energ DENC   =    -44243.63751711
  -exchange      EXHF   =         0.00000000
  -V(xc)+E(xc)   XCENC  =      3320.14253037
  PAW double counting   =     94592.23312189   -98164.79192727
  entropy T*S    EENTRO =         0.00000000
  eigenvalues    EBANDS =     -9676.46510993
  atomic energy  EATOM  =    114020.06510763
  Solvation  Ediel_sol  =         0.00000000
  ---------------------------------------------------
  free energy    TOTEN  =      -371.75603243 eV

  energy without entropy =     -371.75603243  energy(sigma->0) =     -371.75603243


--------------------------------------------------------------------------------------------------------




--------------------------------------- Iteration      1(   4)  ---------------------------------------


     EDDAV:  cpu time   84.9045: real time   85.5136
 BZINTS: Fermi energy:  6.130213;688.000000 electrons
         Band energy:***********;  BLOECHL correction:  0.000000
       DOS:  cpu time    0.0028: real time    0.0028
    --------------------------------------------
      LOOP:  cpu time   84.9074: real time   85.5164

 eigenvalue-minimisations  : 14080
 total energy-change (2. order) :-0.3840730E+01  (-0.3840520E+01)
 number of electron     688.0000000 magnetization       0.0000000
 augmentation part      688.0000000 magnetization       0.0000000

 Free energy of the ion-electron system (eV)
  ---------------------------------------------------
  alpha Z        PSCENC =      2364.82206701
  Ewald energy   TEWEN  =    -62584.12430502
  -Hartree energ DENC   =    -44243.63751711
  -exchange      EXHF   =         0.00000000
  -V(xc)+E(xc)   XCENC  =      3320.14253037
  PAW double counting   =     94592.23312189   -98164.79192727
  entropy T*S    EENTRO =         0.00000000
  eigenvalues    EBANDS =     -9680.30583948
  atomic energy  EATOM  =    114020.06510763
  Solvation  Ediel_sol  =         0.00000000
  ---------------------------------------------------
  free energy    TOTEN  =      -375.59676198 eV

  energy without entropy =     -375.59676198  energy(sigma->0) =     -375.59676198


--------------------------------------------------------------------------------------------------------




--------------------------------------- Iteration      1(   5)  ---------------------------------------


     EDDAV:  cpu time  120.2712: real time  121.0787
 BZINTS: Fermi energy:  6.046104;688.000000 electrons
         Band energy:***********;  BLOECHL correction:  0.000000
       DOS:  cpu time    0.0028: real time    0.0028
    CHARGE:  cpu time    1.2052: real time    1.2130
    MIXING:  cpu time    0.0048: real time    0.0048
    --------------------------------------------
      LOOP:  cpu time  121.4840: real time  122.2994

 eigenvalue-minimisations  : 16896
 total energy-change (2. order) :-0.1041164E+00  (-0.1041158E+00)
 number of electron     688.0000413 magnetization       0.0000000
 augmentation part      260.9835901 magnetization       0.0000000

 Broyden mixing:
  rms(total) = 0.75125E+01    rms(broyden)= 0.75125E+01
  rms(prec ) = 0.90079E+01
  weight for this iteration     100.00

 Free energy of the ion-electron system (eV)
  ---------------------------------------------------
  alpha Z        PSCENC =      2364.82206701
  Ewald energy   TEWEN  =    -62584.12430502
  -Hartree energ DENC   =    -44243.63751711
  -exchange      EXHF   =         0.00000000
  -V(xc)+E(xc)   XCENC  =      3320.14253037
  PAW double counting   =     94592.23312189   -98164.79192727
  entropy T*S    EENTRO =         0.00000000
  eigenvalues    EBANDS =     -9680.40995593
  atomic energy  EATOM  =    114020.06510763
  Solvation  Ediel_sol  =         0.00000000
  ---------------------------------------------------
  free energy    TOTEN  =      -375.70087843 eV

  energy without entropy =     -375.70087843  energy(sigma->0) =     -375.70087843


--------------------------------------------------------------------------------------------------------




--------------------------------------- Iteration      1(   6)  ---------------------------------------


    POTLOK:  cpu time    0.1293: real time    0.1304
    SETDIJ:  cpu time    0.0131: real time    0.0132
     EDDAV:  cpu time   64.9998: real time   65.4904
 BZINTS: Fermi energy:  4.311356;688.000000 electrons
         Band energy:***********;  BLOECHL correction:  0.000000
       DOS:  cpu time    0.0040: real time    0.0040
    CHARGE:  cpu time    1.4362: real time    1.4452
    MIXING:  cpu time    0.0026: real time    0.0105
    --------------------------------------------
      LOOP:  cpu time   66.5851: real time   67.0937

 eigenvalue-minimisations  : 12288
 total energy-change (2. order) : 0.4143374E+02  (-0.5921781E+02)
 number of electron     688.0000444 magnetization       0.0000000
 augmentation part      296.5217091 magnetization       0.0000000

 Broyden mixing:
  rms(total) = 0.10029E+02    rms(broyden)= 0.10029E+02
  rms(prec ) = 0.10496E+02
  weight for this iteration     100.00

 eigenvalues of (default mixing * dielectric matrix)
  average eigenvalue GAMMA=   0.1697
  0.1697

 Free energy of the ion-electron system (eV)
  ---------------------------------------------------
  alpha Z        PSCENC =      2364.82206701
  Ewald energy   TEWEN  =    -62584.12430502
  -Hartree energ DENC   =    -42282.28061556
  -exchange      EXHF   =         0.00000000
  -V(xc)+E(xc)   XCENC  =      3267.46447648
  PAW double counting   =     96401.22882783   -99759.79173632
  entropy T*S    EENTRO =         0.00000000
  eigenvalues    EBANDS =    -11761.65095685
  atomic energy  EATOM  =    114020.06510763
  Solvation  Ediel_sol  =         0.00000000
  ---------------------------------------------------
  free energy    TOTEN  =      -334.26713481 eV

  energy without entropy =     -334.26713481  energy(sigma->0) =     -334.26713481


--------------------------------------------------------------------------------------------------------




--------------------------------------- Iteration      1(   7)  ---------------------------------------


    POTLOK:  cpu time    0.1416: real time    0.1426
    SETDIJ:  cpu time    0.0137: real time    0.0138
     EDDAV:  cpu time   71.9000: real time   72.4296
 BZINTS: Fermi energy:  4.736404;688.000000 electrons
         Band energy:***********;  BLOECHL correction:  0.000000
       DOS:  cpu time    0.0032: real time    0.0032
    CHARGE:  cpu time    1.1993: real time    1.2077
    MIXING:  cpu time    0.0017: real time    0.0162
    --------------------------------------------
      LOOP:  cpu time   73.2594: real time   73.8130

 eigenvalue-minimisations  : 12800
 total energy-change (2. order) : 0.5386698E+01  (-0.1155579E+02)
 number of electron     688.0000435 magnetization      -0.0000000
 augmentation part      286.0149690 magnetization      -0.0000000

 Broyden mixing:
  rms(total) = 0.43695E+01    rms(broyden)= 0.43694E+01
  rms(prec ) = 0.44463E+01
  weight for this iteration     100.00

 eigenvalues of (default mixing * dielectric matrix)
  average eigenvalue GAMMA=   0.6163
  0.7680  0.4647

 Free energy of the ion-electron system (eV)
  ---------------------------------------------------
  alpha Z        PSCENC =      2364.82206701
  Ewald energy   TEWEN  =    -62584.12430502
  -Hartree energ DENC   =    -42772.54429538
  -exchange      EXHF   =         0.00000000
  -V(xc)+E(xc)   XCENC  =      3278.96856033
  PAW double counting   =     99828.84004861  -103345.25827782
  entropy T*S    EENTRO =         0.00000000
  eigenvalues    EBANDS =    -11119.64934180
  atomic energy  EATOM  =    114020.06510763
  Solvation  Ediel_sol  =         0.00000000
  ---------------------------------------------------
  free energy    TOTEN  =      -328.88043645 eV

  energy without entropy =     -328.88043645  energy(sigma->0) =     -328.88043645


--------------------------------------------------------------------------------------------------------




--------------------------------------- Iteration      1(   8)  ---------------------------------------


    POTLOK:  cpu time    0.1308: real time    0.1319
    SETDIJ:  cpu time    0.0130: real time    0.0131
     EDDAV:  cpu time   97.3770: real time   98.0513
 BZINTS: Fermi energy:  5.267427;688.000000 electrons
         Band energy:***********;  BLOECHL correction:  0.000000
       DOS:  cpu time    0.0032: real time    0.0032
    CHARGE:  cpu time    1.1999: real time    1.2082
    MIXING:  cpu time    0.0016: real time    0.0016
    --------------------------------------------
      LOOP:  cpu time   98.7255: real time   99.4094

 eigenvalue-minimisations  : 15104
 total energy-change (2. order) :-0.1168855E+00  (-0.3786100E+01)
 number of electron     688.0000429 magnetization       0.0000000
 augmentation part      281.5228232 magnetization       0.0000000

 Broyden mixing:
  rms(total) = 0.32830E+01    rms(broyden)= 0.32830E+01
  rms(prec ) = 0.35703E+01
  weight for this iteration     100.00

 eigenvalues of (default mixing * dielectric matrix)
  average eigenvalue GAMMA=   0.8645
  1.5288  0.6202  0.4445

 Free energy of the ion-electron system (eV)
  ---------------------------------------------------
  alpha Z        PSCENC =      2364.82206701
  Ewald energy   TEWEN  =    -62584.12430502
  -Hartree energ DENC   =    -43030.64522939
  -exchange      EXHF   =         0.00000000
  -V(xc)+E(xc)   XCENC  =      3291.37022553
  PAW double counting   =    105289.99442306  -108905.48154514
  entropy T*S    EENTRO =         0.00000000
  eigenvalues    EBANDS =    -10774.99806564
  atomic energy  EATOM  =    114020.06510763
  Solvation  Ediel_sol  =         0.00000000
  ---------------------------------------------------
  free energy    TOTEN  =      -328.99732197 eV

  energy without entropy =     -328.99732197  energy(sigma->0) =     -328.99732197


--------------------------------------------------------------------------------------------------------




--------------------------------------- Iteration      1(   9)  ---------------------------------------


    POTLOK:  cpu time    0.1292: real time    0.1312
    SETDIJ:  cpu time    0.0131: real time    0.0132
     EDDAV:  cpu time   88.3771: real time   89.0095
 BZINTS: Fermi energy:  4.748567;688.000000 electrons
         Band energy:***********;  BLOECHL correction:  0.000000
       DOS:  cpu time    0.0032: real time    0.0032
    CHARGE:  cpu time    1.1901: real time    1.1980
    MIXING:  cpu time    0.0018: real time    0.0030
    --------------------------------------------
      LOOP:  cpu time   89.7144: real time   90.3582

 eigenvalue-minimisations  : 14848
 total energy-change (2. order) :-0.1714829E+01  (-0.1052392E+02)
 number of electron     688.0000432 magnetization       0.0000000
 augmentation part      282.1398518 magnetization       0.0000000

 Broyden mixing:
  rms(total) = 0.23602E+01    rms(broyden)= 0.23601E+01
  rms(prec ) = 0.28091E+01
  weight for this iteration     100.00

 eigenvalues of (default mixing * dielectric matrix)
  average eigenvalue GAMMA=   0.9787
  2.3897  0.5972  0.5972  0.3308

 Free energy of the ion-electron system (eV)
  ---------------------------------------------------
  alpha Z        PSCENC =      2364.82206701
  Ewald energy   TEWEN  =    -62584.12430502
  -Hartree energ DENC   =    -42815.88493239
  -exchange      EXHF   =         0.00000000
  -V(xc)+E(xc)   XCENC  =      3284.03899023
  PAW double counting   =    109636.80173148  -113287.94172724
  entropy T*S    EENTRO =         0.00000000
  eigenvalues    EBANDS =    -10948.48908259
  atomic energy  EATOM  =    114020.06510763
  Solvation  Ediel_sol  =         0.00000000
  ---------------------------------------------------
  free energy    TOTEN  =      -330.71215090 eV

  energy without entropy =     -330.71215090  energy(sigma->0) =     -330.71215090


--------------------------------------------------------------------------------------------------------




--------------------------------------- Iteration      1(  10)  ---------------------------------------


    POTLOK:  cpu time    0.1280: real time    0.1305
    SETDIJ:  cpu time    0.0129: real time    0.0130
     EDDAV:  cpu time  112.1314: real time  112.8915
 BZINTS: Fermi energy:  4.961620;688.000000 electrons
         Band energy:***********;  BLOECHL correction:  0.000000
       DOS:  cpu time    0.0028: real time    0.0028
    CHARGE:  cpu time    1.2020: real time    1.2097
    MIXING:  cpu time    0.0016: real time    0.0016
    --------------------------------------------
      LOOP:  cpu time  113.4786: real time  114.2492

 eigenvalue-minimisations  : 16640
 total energy-change (2. order) : 0.3670671E+01  (-0.2124857E+01)
 number of electron     688.0000429 magnetization       0.0000000
 augmentation part      282.4214326 magnetization       0.0000000

 Broyden mixing:
  rms(total) = 0.27640E+00    rms(broyden)= 0.27635E+00
  rms(prec ) = 0.30877E+00
  weight for this iteration     100.00

 eigenvalues of (default mixing * dielectric matrix)
  average eigenvalue GAMMA=   0.9218
  2.3556  0.7788  0.5760  0.5760  0.3225

 Free energy of the ion-electron system (eV)
  ---------------------------------------------------
  alpha Z        PSCENC =      2364.82206701
  Ewald energy   TEWEN  =    -62584.12430502
  -Hartree energ DENC   =    -42845.01945081
  -exchange      EXHF   =         0.00000000
  -V(xc)+E(xc)   XCENC  =      3287.30838536
  PAW double counting   =    113230.07993668  -116926.96776811
  entropy T*S    EENTRO =         0.00000000
  eigenvalues    EBANDS =    -10873.20545250
  atomic energy  EATOM  =    114020.06510763
  Solvation  Ediel_sol  =         0.00000000
  ---------------------------------------------------
  free energy    TOTEN  =      -327.04147977 eV

  energy without entropy =     -327.04147977  energy(sigma->0) =     -327.04147977


--------------------------------------------------------------------------------------------------------




--------------------------------------- Iteration      1(  11)  ---------------------------------------


    POTLOK:  cpu time    0.1289: real time    0.1317
    SETDIJ:  cpu time    0.0130: real time    0.0130
     EDDAV:  cpu time  116.7008: real time  117.4916
 BZINTS: Fermi energy:  5.196986;688.000000 electrons
         Band energy:***********;  BLOECHL correction:  0.000000
       DOS:  cpu time    0.0032: real time    0.0032
    CHARGE:  cpu time    1.1884: real time    1.1967
    MIXING:  cpu time    0.0017: real time    0.0017
    --------------------------------------------
      LOOP:  cpu time  118.0360: real time  118.8380

 eigenvalue-minimisations  : 17408
 total energy-change (2. order) :-0.1165228E+00  (-0.1265851E+00)
 number of electron     688.0000428 magnetization      -0.0000000
 augmentation part      282.3845610 magnetization      -0.0000000

 Broyden mixing:
  rms(total) = 0.35353E+00    rms(broyden)= 0.35351E+00
  rms(prec ) = 0.38896E+00
  weight for this iteration     100.00

 eigenvalues of (default mixing * dielectric matrix)
  average eigenvalue GAMMA=   0.9029
  2.2444  0.8135  0.7252  0.7252  0.5732  0.3357

 Free energy of the ion-electron system (eV)
  ---------------------------------------------------
  alpha Z        PSCENC =      2364.82206701
  Ewald energy   TEWEN  =    -62584.12430502
  -Hartree energ DENC   =    -42863.74661895
  -exchange      EXHF   =         0.00000000
  -V(xc)+E(xc)   XCENC  =      3287.06987069
  PAW double counting   =    113021.10438017  -116717.97233388
  entropy T*S    EENTRO =         0.00000000
  eigenvalues    EBANDS =    -10854.37617019
  atomic energy  EATOM  =    114020.06510763
  Solvation  Ediel_sol  =         0.00000000
  ---------------------------------------------------
  free energy    TOTEN  =      -327.15800254 eV

  energy without entropy =     -327.15800254  energy(sigma->0) =     -327.15800254


--------------------------------------------------------------------------------------------------------




--------------------------------------- Iteration      1(  12)  ---------------------------------------


    POTLOK:  cpu time    0.1303: real time    0.1314
    SETDIJ:  cpu time    0.0130: real time    0.0130
     EDDAV:  cpu time  112.0383: real time  112.7986
 BZINTS: Fermi energy:  4.961057;688.000000 electrons
         Band energy:***********;  BLOECHL correction:  0.000000
       DOS:  cpu time    0.0028: real time    0.0028
    CHARGE:  cpu time    1.2065: real time    1.2149
    MIXING:  cpu time    0.0018: real time    0.0018
    --------------------------------------------
      LOOP:  cpu time  113.3928: real time  114.1625

 eigenvalue-minimisations  : 16384
 total energy-change (2. order) : 0.7771881E-02  (-0.4811962E-01)
 number of electron     688.0000429 magnetization       0.0000000
 augmentation part      282.2629851 magnetization       0.0000000

 Broyden mixing:
  rms(total) = 0.13251E+00    rms(broyden)= 0.13251E+00
  rms(prec ) = 0.14767E+00
  weight for this iteration     100.00

 eigenvalues of (default mixing * dielectric matrix)
  average eigenvalue GAMMA=   0.9444
  2.2694  1.0937  1.0937  0.6232  0.6232  0.5721  0.3353

 Free energy of the ion-electron system (eV)
  ---------------------------------------------------
  alpha Z        PSCENC =      2364.82206701
  Ewald energy   TEWEN  =    -62584.12430502
  -Hartree energ DENC   =    -42863.83719954
  -exchange      EXHF   =         0.00000000
  -V(xc)+E(xc)   XCENC  =      3286.57603237
  PAW double counting   =    112627.88850002  -116321.60484296
  entropy T*S    EENTRO =         0.00000000
  eigenvalues    EBANDS =    -10856.93559016
  atomic energy  EATOM  =    114020.06510763
  Solvation  Ediel_sol  =         0.00000000
  ---------------------------------------------------
  free energy    TOTEN  =      -327.15023066 eV

  energy without entropy =     -327.15023066  energy(sigma->0) =     -327.15023066


--------------------------------------------------------------------------------------------------------




--------------------------------------- Iteration      1(  13)  ---------------------------------------


    POTLOK:  cpu time    0.1304: real time    0.1319
    SETDIJ:  cpu time    0.0130: real time    0.0130
     EDDAV:  cpu time   93.6443: real time   94.2931
 BZINTS: Fermi energy:  4.963821;688.000000 electrons
         Band energy:***********;  BLOECHL correction:  0.000000
       DOS:  cpu time    0.0028: real time    0.0028
    CHARGE:  cpu time    1.1911: real time    1.1989
    MIXING:  cpu time    0.0018: real time    0.0018
    --------------------------------------------
      LOOP:  cpu time   94.9834: real time   95.6416

 eigenvalue-minimisations  : 14848
 total energy-change (2. order) :-0.7998888E-02  (-0.4960805E-02)
 number of electron     688.0000428 magnetization      -0.0000000
 augmentation part      282.2753814 magnetization      -0.0000000

 Broyden mixing:
  rms(total) = 0.90033E-01    rms(broyden)= 0.90032E-01
  rms(prec ) = 0.92626E-01
  weight for this iteration     100.00

 eigenvalues of (default mixing * dielectric matrix)
  average eigenvalue GAMMA=   1.1312
  2.5602  2.5602  0.3353  0.8429  0.8429  0.6680  0.6680  0.5720

 Free energy of the ion-electron system (eV)
  ---------------------------------------------------
  alpha Z        PSCENC =      2364.82206701
  Ewald energy   TEWEN  =    -62584.12430502
  -Hartree energ DENC   =    -42869.54086064
  -exchange      EXHF   =         0.00000000
  -V(xc)+E(xc)   XCENC  =      3286.64822217
  PAW double counting   =    112387.49808846  -116081.06576341
  entropy T*S    EENTRO =         0.00000000
  eigenvalues    EBANDS =    -10851.46078574
  atomic energy  EATOM  =    114020.06510763
  Solvation  Ediel_sol  =         0.00000000
  ---------------------------------------------------
  free energy    TOTEN  =      -327.15822955 eV

  energy without entropy =     -327.15822955  energy(sigma->0) =     -327.15822955


--------------------------------------------------------------------------------------------------------




--------------------------------------- Iteration      1(  14)  ---------------------------------------


    POTLOK:  cpu time    0.1254: real time    0.1302
    SETDIJ:  cpu time    0.0128: real time    0.0129
     EDDAV:  cpu time  116.8170: real time  117.5935
 BZINTS: Fermi energy:  5.186864;688.000000 electrons
         Band energy:***********;  BLOECHL correction:  0.000000
       DOS:  cpu time    0.0032: real time    0.0032
    CHARGE:  cpu time    1.2012: real time    1.2095
    MIXING:  cpu time    0.0019: real time    0.0019
    --------------------------------------------
      LOOP:  cpu time  118.1614: real time  118.9512

 eigenvalue-minimisations  : 16640
 total energy-change (2. order) :-0.1255588E-01  (-0.7165583E-02)
 number of electron     688.0000428 magnetization       0.0000000
 augmentation part      282.2375278 magnetization       0.0000000

 Broyden mixing:
  rms(total) = 0.42463E-01    rms(broyden)= 0.42455E-01
  rms(prec ) = 0.48088E-01
  weight for this iteration     100.00

 eigenvalues of (default mixing * dielectric matrix)
  average eigenvalue GAMMA=   1.0573
  2.4001  2.4001  0.9378  0.9378  0.3352  0.6455  0.6455  0.5645  0.6493

 Free energy of the ion-electron system (eV)
  ---------------------------------------------------
  alpha Z        PSCENC =      2364.82206701
  Ewald energy   TEWEN  =    -62584.12430502
  -Hartree energ DENC   =    -42878.28704016
  -exchange      EXHF   =         0.00000000
  -V(xc)+E(xc)   XCENC  =      3286.47466398
  PAW double counting   =    112114.84385870  -115807.71177449
  entropy T*S    EENTRO =         0.00000000
  eigenvalues    EBANDS =    -10843.25336308
  atomic energy  EATOM  =    114020.06510763
  Solvation  Ediel_sol  =         0.00000000
  ---------------------------------------------------
  free energy    TOTEN  =      -327.17078543 eV

  energy without entropy =     -327.17078543  energy(sigma->0) =     -327.17078543


--------------------------------------------------------------------------------------------------------




--------------------------------------- Iteration      1(  15)  ---------------------------------------


    POTLOK:  cpu time    0.1303: real time    0.1313
    SETDIJ:  cpu time    0.0130: real time    0.0131
     EDDAV:  cpu time   73.3380: real time   73.8743
 BZINTS: Fermi energy:  5.185809;688.000000 electrons
         Band energy:***********;  BLOECHL correction:  0.000000
       DOS:  cpu time    0.0032: real time    0.0032
    CHARGE:  cpu time    1.1897: real time    1.1976
    MIXING:  cpu time    0.0020: real time    0.0020
    --------------------------------------------
      LOOP:  cpu time   74.6762: real time   75.2216

 eigenvalue-minimisations  : 12800
 total energy-change (2. order) : 0.2333457E-03  (-0.5852715E-03)
 number of electron     688.0000428 magnetization       0.0000000
 augmentation part      282.2371232 magnetization       0.0000000

 Broyden mixing:
  rms(total) = 0.18912E-01    rms(broyden)= 0.18911E-01
  rms(prec ) = 0.20065E-01
  weight for this iteration     100.00

 eigenvalues of (default mixing * dielectric matrix)
  average eigenvalue GAMMA=   1.0031
  2.3389  2.3389  0.9445  0.9445  0.3352  0.6378  0.6378  0.5783  0.6378  0.6378

 Free energy of the ion-electron system (eV)
  ---------------------------------------------------
  alpha Z        PSCENC =      2364.82206701
  Ewald energy   TEWEN  =    -62584.12430502
  -Hartree energ DENC   =    -42877.08397344
  -exchange      EXHF   =         0.00000000
  -V(xc)+E(xc)   XCENC  =      3286.45185148
  PAW double counting   =    112201.28576459  -115894.44046682
  entropy T*S    EENTRO =         0.00000000
  eigenvalues    EBANDS =    -10844.14659752
  atomic energy  EATOM  =    114020.06510763
  Solvation  Ediel_sol  =         0.00000000
  ---------------------------------------------------
  free energy    TOTEN  =      -327.17055209 eV

  energy without entropy =     -327.17055209  energy(sigma->0) =     -327.17055209


--------------------------------------------------------------------------------------------------------




--------------------------------------- Iteration      1(  16)  ---------------------------------------


    POTLOK:  cpu time    0.1289: real time    0.1299
    SETDIJ:  cpu time    0.0129: real time    0.0130
     EDDAV:  cpu time  146.2097: real time  147.1536
 BZINTS: Fermi energy:  5.185831;688.000000 electrons
         Band energy:***********;  BLOECHL correction:  0.000000
       DOS:  cpu time    0.0032: real time    0.0032
    CHARGE:  cpu time    1.2013: real time    1.2096
    MIXING:  cpu time    0.0022: real time    0.0029
    --------------------------------------------
      LOOP:  cpu time  147.5582: real time  148.5122

 eigenvalue-minimisations  : 18432
 total energy-change (2. order) :-0.3065500E-03  (-0.6799091E-04)
 number of electron     688.0000428 magnetization      -0.0000000
 augmentation part      282.2390743 magnetization      -0.0000000

 Broyden mixing:
  rms(total) = 0.13112E-01    rms(broyden)= 0.13112E-01
  rms(prec ) = 0.13748E-01
  weight for this iteration     100.00

 eigenvalues of (default mixing * dielectric matrix)
  average eigenvalue GAMMA=   1.1668
  2.6966  2.2121  2.2121  1.1543  0.3352  0.8442  0.8442  0.6687  0.6687  0.5681
  0.6303

 Free energy of the ion-electron system (eV)
  ---------------------------------------------------
  alpha Z        PSCENC =      2364.82206701
  Ewald energy   TEWEN  =    -62584.12430502
  -Hartree energ DENC   =    -42877.32407847
  -exchange      EXHF   =         0.00000000
  -V(xc)+E(xc)   XCENC  =      3286.47077385
  PAW double counting   =    112212.46609931  -115905.55293536
  entropy T*S    EENTRO =         0.00000000
  eigenvalues    EBANDS =    -10843.99358758
  atomic energy  EATOM  =    114020.06510763
  Solvation  Ediel_sol  =         0.00000000
  ---------------------------------------------------
  free energy    TOTEN  =      -327.17085864 eV

  energy without entropy =     -327.17085864  energy(sigma->0) =     -327.17085864


--------------------------------------------------------------------------------------------------------




--------------------------------------- Iteration      1(  17)  ---------------------------------------


    POTLOK:  cpu time    0.1294: real time    0.1314
    SETDIJ:  cpu time    0.0129: real time    0.0130
     EDDAV:  cpu time   88.7170: real time   89.3417
 BZINTS: Fermi energy:  5.186505;688.000000 electrons
         Band energy:***********;  BLOECHL correction:  0.000000
       DOS:  cpu time    0.0032: real time    0.0032
    CHARGE:  cpu time    1.2017: real time    1.2101
    MIXING:  cpu time    0.0021: real time    0.0022
    --------------------------------------------
      LOOP:  cpu time   90.0662: real time   90.7014

 eigenvalue-minimisations  : 14336
 total energy-change (2. order) :-0.8138738E-03  (-0.4353446E-03)
 number of electron     688.0000428 magnetization      -0.0000000
 augmentation part      282.2301197 magnetization      -0.0000000

 Broyden mixing:
  rms(total) = 0.82257E-02    rms(broyden)= 0.82241E-02
  rms(prec ) = 0.87517E-02
  weight for this iteration     100.00

 eigenvalues of (default mixing * dielectric matrix)
  average eigenvalue GAMMA=   1.1777
  3.4931  2.1353  1.8944  1.2506  0.9275  0.9275  0.3352  0.6529  0.6529  0.5767
  0.6431  0.6431

 Free energy of the ion-electron system (eV)
  ---------------------------------------------------
  alpha Z        PSCENC =      2364.82206701
  Ewald energy   TEWEN  =    -62584.12430502
  -Hartree energ DENC   =    -42879.22821518
  -exchange      EXHF   =         0.00000000
  -V(xc)+E(xc)   XCENC  =      3286.52205282
  PAW double counting   =    112205.52770317  -115898.37817966
  entropy T*S    EENTRO =         0.00000000
  eigenvalues    EBANDS =    -10842.37790328
  atomic energy  EATOM  =    114020.06510763
  Solvation  Ediel_sol  =         0.00000000
  ---------------------------------------------------
  free energy    TOTEN  =      -327.17167251 eV

  energy without entropy =     -327.17167251  energy(sigma->0) =     -327.17167251


--------------------------------------------------------------------------------------------------------




--------------------------------------- Iteration      1(  18)  ---------------------------------------


    POTLOK:  cpu time    0.1287: real time    0.1296
    SETDIJ:  cpu time    0.0129: real time    0.0129
     EDDAV:  cpu time   99.4962: real time  100.1698
 BZINTS: Fermi energy:  5.186384;688.000000 electrons
         Band energy:***********;  BLOECHL correction:  0.000000
       DOS:  cpu time    0.0032: real time    0.0032
    CHARGE:  cpu time    1.2214: real time    1.2294
    MIXING:  cpu time    0.0023: real time    0.0023
    --------------------------------------------
      LOOP:  cpu time  100.8646: real time  101.5472

 eigenvalue-minimisations  : 14848
 total energy-change (2. order) :-0.7360931E-04  (-0.2532219E-04)
 number of electron     688.0000428 magnetization       0.0000000
 augmentation part      282.2371119 magnetization       0.0000000

 Broyden mixing:
  rms(total) = 0.57925E-02    rms(broyden)= 0.57922E-02
  rms(prec ) = 0.68589E-02
  weight for this iteration     100.00

 eigenvalues of (default mixing * dielectric matrix)
  average eigenvalue GAMMA=   1.1538
  3.6176  2.0863  2.0863  1.0559  1.0559  0.3352  0.7357  0.7357  0.8145  0.6593
  0.6593  0.5786  0.5786

 Free energy of the ion-electron system (eV)
  ---------------------------------------------------
  alpha Z        PSCENC =      2364.82206701
  Ewald energy   TEWEN  =    -62584.12430502
  -Hartree energ DENC   =    -42879.03433255
  -exchange      EXHF   =         0.00000000
  -V(xc)+E(xc)   XCENC  =      3286.52726277
  PAW double counting   =    112211.02250095  -115903.85980380
  entropy T*S    EENTRO =         0.00000000
  eigenvalues    EBANDS =    -10842.59024310
  atomic energy  EATOM  =    114020.06510763
  Solvation  Ediel_sol  =         0.00000000
  ---------------------------------------------------
  free energy    TOTEN  =      -327.17174612 eV

  energy without entropy =     -327.17174612  energy(sigma->0) =     -327.17174612


--------------------------------------------------------------------------------------------------------




--------------------------------------- Iteration      1(  19)  ---------------------------------------


    POTLOK:  cpu time    0.1306: real time    0.1318
    SETDIJ:  cpu time    0.0129: real time    0.0130
     EDDAV:  cpu time  131.6908: real time  132.5493
 BZINTS: Fermi energy:  5.186201;688.000000 electrons
         Band energy:***********;  BLOECHL correction:  0.000000
       DOS:  cpu time    0.0032: real time    0.0032
    CHARGE:  cpu time    1.2018: real time    1.2098
    MIXING:  cpu time    0.0023: real time    0.0023
    --------------------------------------------
      LOOP:  cpu time  133.0416: real time  133.9095

 eigenvalue-minimisations  : 17408
 total energy-change (2. order) :-0.1067659E-05  (-0.7577762E-05)
 number of electron     688.0000428 magnetization       0.0000000
 augmentation part      282.2374882 magnetization       0.0000000

 Broyden mixing:
  rms(total) = 0.34848E-02    rms(broyden)= 0.34847E-02
  rms(prec ) = 0.38496E-02
  weight for this iteration     100.00

 eigenvalues of (default mixing * dielectric matrix)
  average eigenvalue GAMMA=   1.2299
  3.7354  2.3614  2.3614  1.3211  1.3211  0.9676  0.9676  0.3352  0.6659  0.6659
[...]
   -.417E+02 0.904E+00 0.293E+02   0.426E+02 -.878E+00 -.295E+02   -.848E+00 -.240E-01 0.264E+00   -.146E-03 -.724E-05 -.108E-04
   -.417E+02 0.904E+00 0.293E+02   0.426E+02 -.878E+00 -.295E+02   -.848E+00 -.240E-01 0.264E+00   -.146E-03 -.724E-05 -.108E-04
   -.417E+02 0.904E+00 0.293E+02   0.426E+02 -.878E+00 -.295E+02   -.848E+00 -.240E-01 0.264E+00   -.146E-03 -.724E-05 -.108E-04
   -.417E+02 0.904E+00 0.293E+02   0.426E+02 -.878E+00 -.295E+02   -.848E+00 -.240E-01 0.264E+00   -.146E-03 -.724E-05 -.108E-04
   0.417E+02 -.904E+00 0.293E+02   -.426E+02 0.878E+00 -.295E+02   0.848E+00 0.240E-01 0.264E+00   0.146E-03 0.724E-05 -.108E-04
   0.417E+02 -.904E+00 0.293E+02   -.426E+02 0.878E+00 -.295E+02   0.848E+00 0.240E-01 0.264E+00   0.146E-03 0.724E-05 -.108E-04
   0.417E+02 -.904E+00 0.293E+02   -.426E+02 0.878E+00 -.295E+02   0.848E+00 0.240E-01 0.264E+00   0.146E-03 0.724E-05 -.108E-04
   0.417E+02 -.904E+00 0.293E+02   -.426E+02 0.878E+00 -.295E+02   0.848E+00 0.240E-01 0.264E+00   0.146E-03 0.724E-05 -.108E-04
   0.904E+00 -.417E+02 0.293E+02   -.878E+00 0.426E+02 -.295E+02   -.240E-01 -.848E+00 0.264E+00   -.724E-05 -.146E-03 -.108E-04
   0.904E+00 -.417E+02 0.293E+02   -.878E+00 0.426E+02 -.295E+02   -.240E-01 -.848E+00 0.264E+00   -.724E-05 -.146E-03 -.108E-04
   0.904E+00 -.417E+02 0.293E+02   -.878E+00 0.426E+02 -.295E+02   -.240E-01 -.848E+00 0.264E+00   -.724E-05 -.146E-03 -.108E-04
   0.904E+00 -.417E+02 0.293E+02   -.878E+00 0.426E+02 -.295E+02   -.240E-01 -.848E+00 0.264E+00   -.724E-05 -.146E-03 -.108E-04
   -.904E+00 0.417E+02 0.293E+02   0.878E+00 -.426E+02 -.295E+02   0.240E-01 0.848E+00 0.264E+00   0.724E-05 0.146E-03 -.108E-04
   -.904E+00 0.417E+02 0.293E+02   0.878E+00 -.426E+02 -.295E+02   0.240E-01 0.848E+00 0.264E+00   0.724E-05 0.146E-03 -.108E-04
   -.904E+00 0.417E+02 0.293E+02   0.878E+00 -.426E+02 -.295E+02   0.240E-01 0.848E+00 0.264E+00   0.724E-05 0.146E-03 -.108E-04
   -.904E+00 0.417E+02 0.293E+02   0.878E+00 -.426E+02 -.295E+02   0.240E-01 0.848E+00 0.264E+00   0.724E-05 0.146E-03 -.108E-04
   -.730E-07 -.484E-07 -.344E+02   -.639E-13 0.782E-13 0.330E+02   0.175E-24 0.000E+00 0.139E+01   0.145E-12 0.161E-12 0.970E-04
   -.730E-07 -.484E-07 -.344E+02   -.915E-13 0.853E-13 0.330E+02   0.153E-25 0.258E-25 0.139E+01   -.862E-12 0.250E-12 0.970E-04
   -.730E-07 -.484E-07 -.344E+02   -.906E-13 0.149E-12 0.330E+02   0.666E-25 0.103E-24 0.139E+01   0.258E-12 -.569E-12 0.970E-04
   -.730E-07 -.485E-07 -.344E+02   -.631E-13 0.142E-12 0.330E+02   -.614E-25 0.517E-25 0.139E+01   -.928E-12 -.364E-12 0.970E-04
   -.484E-07 -.730E-07 -.344E+02   0.853E-13 0.171E-12 0.330E+02   0.246E-24 0.000E+00 0.139E+01   -.578E-12 0.220E-12 0.970E-04
   -.484E-07 -.730E-07 -.344E+02   0.114E-12 0.171E-12 0.330E+02   0.393E-25 -.355E-25 0.139E+01   -.183E-12 0.918E-13 0.970E-04
   -.484E-07 -.730E-07 -.344E+02   0.853E-13 0.142E-12 0.330E+02   0.416E-25 0.194E-25 0.139E+01   -.383E-12 -.414E-12 0.970E-04
   -.484E-07 -.730E-07 -.344E+02   0.114E-12 0.142E-12 0.330E+02   -.210E-25 0.258E-25 0.139E+01   -.265E-12 -.384E-12 0.970E-04
   -.730E-07 -.484E-07 -.344E+02   -.178E-12 0.835E-13 0.330E+02   0.149E-24 0.258E-25 0.139E+01   -.655E-12 -.282E-12 0.970E-04
   -.730E-07 -.484E-07 -.344E+02   -.121E-12 0.977E-13 0.330E+02   0.250E-25 0.258E-24 0.139E+01   -.176E-12 -.549E-12 0.970E-04
   -.730E-07 -.484E-07 -.344E+02   -.171E-12 0.568E-13 0.330E+02   0.194E-25 0.116E-24 0.139E+01   -.662E-12 0.728E-13 0.970E-04
   -.730E-07 -.484E-07 -.344E+02   -.171E-12 -.142E-13 0.330E+02   0.208E-25 0.452E-25 0.139E+01   -.159E-12 0.216E-12 0.970E-04
   -.484E-07 -.730E-07 -.344E+02   0.514E-13 0.190E-12 0.330E+02   0.210E-25 0.775E-25 0.139E+01   0.286E-12 -.500E-12 0.970E-04
   -.484E-07 -.730E-07 -.344E+02   0.111E-12 0.765E-13 0.330E+02   0.735E-25 0.000E+00 0.139E+01   -.849E-12 -.195E-12 0.970E-04
   -.484E-07 -.730E-07 -.344E+02   0.129E-12 0.136E-12 0.330E+02   -.339E-25 0.258E-25 0.139E+01   0.233E-12 0.109E-12 0.970E-04
   -.484E-07 -.730E-07 -.344E+02   0.103E-12 0.136E-12 0.330E+02   -.129E-25 -.129E-24 0.139E+01   -.775E-12 0.124E-12 0.970E-04
   -.351E-07 0.645E-07 -.277E+02   0.124E-13 0.220E-12 0.261E+02   0.618E-25 0.388E-25 0.163E+01   0.262E-12 0.313E-12 0.446E-04
   -.351E-07 0.645E-07 -.277E+02   0.124E-13 0.256E-12 0.261E+02   0.485E-26 0.517E-25 0.163E+01   -.393E-12 0.331E-12 0.446E-04
   -.351E-07 0.645E-07 -.277E+02   -.231E-13 0.199E-12 0.261E+02   -.452E-25 -.517E-25 0.163E+01   0.396E-12 -.182E-12 0.446E-04
   -.351E-07 0.644E-07 -.277E+02   0.338E-13 0.171E-12 0.261E+02   0.323E-26 -.517E-25 0.163E+01   -.525E-12 -.116E-12 0.446E-04
   0.645E-07 -.351E-07 -.277E+02   0.995E-13 -.107E-13 0.261E+02   0.331E-25 0.142E-24 0.163E+01   -.355E-12 0.343E-12 0.446E-04
   0.645E-07 -.351E-07 -.277E+02   0.711E-13 -.107E-13 0.261E+02   -.101E-24 0.258E-25 0.163E+01   0.158E-13 0.304E-12 0.446E-04
   0.645E-07 -.352E-07 -.277E+02   0.497E-13 -.675E-13 0.261E+02   -.190E-25 0.194E-25 0.163E+01   -.188E-12 -.249E-12 0.446E-04
   0.645E-07 -.352E-07 -.277E+02   0.746E-13 -.103E-12 0.261E+02   -.513E-25 0.129E-25 0.163E+01   -.929E-13 -.262E-12 0.446E-04
   -.351E-07 0.644E-07 -.277E+02   0.391E-13 -.391E-13 0.261E+02   -.549E-25 0.194E-25 0.163E+01   -.158E-12 -.724E-13 0.446E-04
   -.351E-07 0.644E-07 -.277E+02   0.675E-13 -.355E-13 0.261E+02   0.303E-26 -.775E-25 0.163E+01   -.288E-13 -.123E-12 0.446E-04
   -.351E-07 0.645E-07 -.277E+02   0.142E-13 -.755E-13 0.261E+02   0.572E-25 -.408E-25 0.163E+01   -.160E-12 0.187E-12 0.446E-04
   -.351E-07 0.645E-07 -.277E+02   0.142E-13 0.409E-13 0.261E+02   0.000E+00 0.258E-25 0.163E+01   -.124E-12 0.289E-12 0.446E-04
   0.645E-07 -.351E-07 -.277E+02   0.190E-12 -.130E-12 0.261E+02   -.822E-25 0.331E-25 0.163E+01   0.332E-12 -.279E-12 0.446E-04
   0.645E-07 -.351E-07 -.277E+02   0.159E-12 -.144E-12 0.261E+02   -.186E-25 0.646E-25 0.163E+01   -.573E-12 -.882E-13 0.446E-04
   0.645E-07 -.351E-07 -.277E+02   0.156E-12 -.882E-13 0.261E+02   -.501E-25 0.258E-25 0.163E+01   0.226E-12 0.290E-12 0.446E-04
   0.645E-07 -.351E-07 -.277E+02   0.154E-12 -.145E-12 0.261E+02   0.117E-24 0.129E-25 0.163E+01   -.500E-12 0.307E-12 0.446E-04
 -----------------------------------------------------------------------------------------------
   -.476E-06 -.476E-06 -.567E+02   0.335E-13 0.245E-12 -.109E-11   0.947E-15 -.222E-15 0.568E+02   -.605E-11 0.248E-11 0.192E-02
 
 
 POSITION                                       TOTAL-FORCE (eV/Angst)
 -----------------------------------------------------------------------------------
      1.38501      1.37971      1.25102         0.004014     -0.002004     -0.017605
      6.63217      1.62717      1.25102         0.004014     -0.002004     -0.017605
      1.63247      6.62687      1.25102         0.004014     -0.002004     -0.017605
      6.87963      6.87433      1.25102         0.004014     -0.002004     -0.017605
      4.10962      4.11491      1.25102        -0.004014      0.002004     -0.017605
      9.35678      4.36238      1.25102        -0.004014      0.002004     -0.017605
      4.35708      9.36208      1.25102        -0.004014      0.002004     -0.017605
      9.60424      9.60954      1.25102        -0.004014      0.002004     -0.017605
      1.49133      3.98588      9.07584         0.002004     -0.004014     -0.017605
      6.73850      4.23335      9.07584         0.002004     -0.004014     -0.017605
      1.73879      9.23305      9.07584         0.002004     -0.004014     -0.017605
      6.98596      9.48051      9.07584         0.002004     -0.004014     -0.017605
      4.00329      1.50874      9.07584        -0.002004      0.004014     -0.017605
      9.25045      1.75620      9.07584        -0.002004      0.004014     -0.017605
      4.25075      6.75590      9.07584        -0.002004      0.004014     -0.017605
      9.49792      7.00336      9.07584        -0.002004      0.004014     -0.017605
      1.36230      1.36760      6.46757        -0.004014      0.002004     -0.017605
      6.60947      1.61506      6.46757        -0.004014      0.002004     -0.017605
      1.60976      6.61477      6.46757        -0.004014      0.002004     -0.017605
      6.85693      6.86223      6.46757        -0.004014      0.002004     -0.017605
      4.13232      4.12702      6.46757         0.004014     -0.002004     -0.017605
      9.37948      4.37448      6.46757         0.004014     -0.002004     -0.017605
      4.37978      9.37419      6.46757         0.004014     -0.002004     -0.017605
      9.62695      9.62165      6.46757         0.004014     -0.002004     -0.017605
      3.99118      1.48603      3.85929         0.002004     -0.004014     -0.017605
      9.23835      1.73350      3.85929         0.002004     -0.004014     -0.017605
      4.23865      6.73320      3.85929         0.002004     -0.004014     -0.017605
      9.48581      6.98066      3.85929         0.002004     -0.004014     -0.017605
      1.50344      4.00859      3.85929        -0.002004      0.004014     -0.017605
      6.75060      4.25605      3.85929        -0.002004      0.004014     -0.017605
      1.75090      9.25575      3.85929        -0.002004      0.004014     -0.017605
      6.99807      9.50322      3.85929        -0.002004      0.004014     -0.017605
      0.00000      0.00000      5.26246        -0.000000     -0.000000      0.014696
      5.24716      0.24746      5.26246         0.000000     -0.000000      0.014696
      0.24746      5.24716      5.26246         0.000000     -0.000000      0.014696
      5.49462      5.49462      5.26246         0.000000     -0.000000      0.014696
      2.62358      0.12373      2.65419         0.000000     -0.000000      0.014696
      7.87074      0.37119      2.65419        -0.000000     -0.000000      0.014696
      2.87104      5.37089      2.65419        -0.000000     -0.000000      0.014696
      8.11821      5.61836      2.65419        -0.000000     -0.000000      0.014696
      2.74731      2.74731      0.04592         0.000000     -0.000000      0.014696
      7.99448      2.99477      0.04592         0.000000     -0.000000      0.014696
      2.99477      7.99448      0.04592         0.000000     -0.000000      0.014696
      8.24194      8.24194      0.04592        -0.000000     -0.000000      0.014696
      0.12373      2.62358      7.87074         0.000000     -0.000000      0.014696
      5.37089      2.87104      7.87074         0.000000     -0.000000      0.014696
      0.37119      7.87074      7.87074         0.000000     -0.000000      0.014696
      5.61836      8.11821      7.87074        -0.000000     -0.000000      0.014696
      0.00000      0.00000      0.06032        -0.000000     -0.000000      0.020513
      5.24716      0.24746      0.06032         0.000000     -0.000000      0.020513
      0.24746      5.24716      0.06032         0.000000     -0.000000      0.020513
      5.49462      5.49462      0.06032        -0.000000     -0.000000      0.020513
      2.62358      0.12373      7.88514         0.000000     -0.000000      0.020513
      7.87074      0.37119      7.88514         0.000000     -0.000000      0.020513
      2.87104      5.37089      7.88514        -0.000000     -0.000000      0.020513
      8.11821      5.61836      7.88514        -0.000000     -0.000000      0.020513
      2.74731      2.74731      5.27687        -0.000000     -0.000000      0.020513
      7.99448      2.99477      5.27687         0.000000     -0.000000      0.020513
      2.99477      7.99448      5.27687         0.000000     -0.000000      0.020513
      8.24194      8.24194      5.27687         0.000000     -0.000000      0.020513
      0.12373      2.62358      2.66860         0.000000     -0.000000      0.020513
      5.37089      2.87104      2.66860        -0.000000     -0.000000      0.020513
      0.37119      7.87074      2.66860         0.000000     -0.000000      0.020513
      5.61836      8.11821      2.66860         0.000000     -0.000000      0.020513
 -----------------------------------------------------------------------------------
    total drift:                               -0.000000     -0.000000      0.030566


--------------------------------------------------------------------------------------------------------



  FREE ENERGIE OF THE ION-ELECTRON SYSTEM (eV)
  ---------------------------------------------------
  free  energy   TOTEN  =      -327.17175567 eV

  energy  without entropy=     -327.17175567  energy(sigma->0) =     -327.17175567
 


--------------------------------------------------------------------------------------------------------


    POTLOK:  cpu time    0.1421: real time    0.1430


--------------------------------------------------------------------------------------------------------


 writing wavefunctions
     LOOP+:  cpu time 2817.1883: real time 2836.8167
    4ORBIT:  cpu time    0.0000: real time    0.0000
 


 total charge     
 
# of ion       s       p       d       tot
------------------------------------------
    1        1.314   2.408   0.000   3.722
    2        1.314   2.408   0.000   3.722
    3        1.314   2.408   0.000   3.722
    4        1.314   2.408   0.000   3.722
    5        1.314   2.408   0.000   3.722
    6        1.314   2.408   0.000   3.722
    7        1.314   2.408   0.000   3.722
    8        1.314   2.408   0.000   3.722
    9        1.314   2.408   0.000   3.722
   10        1.314   2.408   0.000   3.722
   11        1.314   2.408   0.000   3.722
   12        1.314   2.408   0.000   3.722
   13        1.314   2.408   0.000   3.722
   14        1.314   2.408   0.000   3.722
   15        1.314   2.408   0.000   3.722
   16        1.314   2.408   0.000   3.722
   17        1.314   2.408   0.000   3.722
   18        1.314   2.408   0.000   3.722
   19        1.314   2.408   0.000   3.722
   20        1.314   2.408   0.000   3.722
   21        1.314   2.408   0.000   3.722
   22        1.314   2.408   0.000   3.722
   23        1.314   2.408   0.000   3.722
   24        1.314   2.408   0.000   3.722
   25        1.314   2.408   0.000   3.722
   26        1.314   2.408   0.000   3.722
   27        1.314   2.408   0.000   3.722
   28        1.314   2.408   0.000   3.722
   29        1.314   2.408   0.000   3.722
   30        1.314   2.408   0.000   3.722
   31        1.314   2.408   0.000   3.722
   32        1.314   2.408   0.000   3.722
   33        0.259   6.201   8.916  15.376
   34        0.259   6.201   8.916  15.376
   35        0.259   6.201   8.916  15.376
   36        0.259   6.201   8.916  15.376
   37        0.259   6.201   8.917  15.377
   38        0.259   6.201   8.917  15.377
   39        0.259   6.201   8.917  15.377
   40        0.259   6.201   8.917  15.377
   41        0.259   6.201   8.916  15.376
   42        0.259   6.201   8.916  15.376
   43        0.259   6.201   8.916  15.376
   44        0.259   6.201   8.916  15.376
   45        0.259   6.201   8.917  15.377
   46        0.259   6.201   8.917  15.377
   47        0.259   6.201   8.917  15.377
   48        0.259   6.201   8.917  15.377
   49        0.348   6.348   5.822  12.518
   50        0.348   6.348   5.822  12.518
   51        0.348   6.348   5.822  12.518
   52        0.348   6.348   5.822  12.518
   53        0.348   6.348   5.822  12.518
   54        0.348   6.348   5.822  12.518
   55        0.348   6.348   5.822  12.518
   56        0.348   6.348   5.822  12.518
   57        0.348   6.348   5.822  12.518
   58        0.348   6.348   5.822  12.518
   59        0.348   6.348   5.822  12.518
   60        0.348   6.348   5.822  12.518
   61        0.348   6.348   5.822  12.518
   62        0.348   6.348   5.822  12.518
   63        0.348   6.348   5.822  12.518
   64        0.348   6.348   5.822  12.518
--------------------------------------------------
tot         51.772 277.833 235.818 565.423
 


 magnetization (x)
 
# of ion       s       p       d       tot
------------------------------------------
    1       -0.001  -0.023   0.000  -0.024
    2       -0.001  -0.023   0.000  -0.024
    3       -0.001  -0.023   0.000  -0.024
    4       -0.001  -0.023   0.000  -0.024
    5       -0.001  -0.023   0.000  -0.024
    6       -0.001  -0.023   0.000  -0.024
    7       -0.001  -0.023   0.000  -0.024
    8       -0.001  -0.023   0.000  -0.024
    9        0.001   0.023   0.000   0.024
   10        0.001   0.023   0.000   0.024
   11        0.001   0.023   0.000   0.024
   12        0.001   0.023   0.000   0.024
   13        0.001   0.023   0.000   0.024
   14        0.001   0.023   0.000   0.024
   15        0.001   0.023   0.000   0.024
   16        0.001   0.023   0.000   0.024
   17       -0.001  -0.023   0.000  -0.024
   18       -0.001  -0.023   0.000  -0.024
   19       -0.001  -0.023   0.000  -0.024
   20       -0.001  -0.023   0.000  -0.024
   21       -0.001  -0.023   0.000  -0.024
   22       -0.001  -0.023   0.000  -0.024
   23       -0.001  -0.023   0.000  -0.024
   24       -0.001  -0.023   0.000  -0.024
   25        0.001   0.023   0.000   0.024
   26        0.001   0.023   0.000   0.024
   27        0.001   0.023   0.000   0.024
   28        0.001   0.023   0.000   0.024
   29        0.001   0.023   0.000   0.024
   30        0.001   0.023   0.000   0.024
   31        0.001   0.023   0.000   0.024
   32        0.001   0.023   0.000   0.024
   33        0.000  -0.000   0.002   0.002
   34        0.000  -0.000   0.002   0.002
   35        0.000  -0.000   0.002   0.002
   36        0.000  -0.000   0.002   0.002
   37       -0.000   0.000  -0.003  -0.003
   38       -0.000   0.000  -0.003  -0.003
   39       -0.000   0.000  -0.003  -0.003
   40       -0.000   0.000  -0.003  -0.003
   41        0.000  -0.000   0.002   0.002
   42        0.000  -0.000   0.002   0.002
   43        0.000  -0.000   0.002   0.002
   44        0.000  -0.000   0.002   0.002
   45       -0.000   0.000  -0.003  -0.003
   46       -0.000   0.000  -0.003  -0.003
   47       -0.000   0.000  -0.003  -0.003
   48       -0.000   0.000  -0.003  -0.003
   49        0.020   0.053   3.668   3.741
   50        0.020   0.053   3.668   3.741
   51        0.020   0.053   3.668   3.741
   52        0.020   0.053   3.668   3.741
   53       -0.020  -0.053  -3.668  -3.741
   54       -0.020  -0.053  -3.668  -3.741
   55       -0.020  -0.053  -3.668  -3.741
   56       -0.020  -0.053  -3.668  -3.741
   57        0.020   0.053   3.668   3.741
   58        0.020   0.053   3.668   3.741
   59        0.020   0.053   3.668   3.741
   60        0.020   0.053   3.668   3.741
   61       -0.020  -0.053  -3.668  -3.741
   62       -0.020  -0.053  -3.668  -3.741
   63       -0.020  -0.053  -3.668  -3.741
   64       -0.020  -0.053  -3.668  -3.741
--------------------------------------------------
tot         -0.002   0.002  -0.001  -0.001
 
 BZINTS: Fermi energy:  5.185895;688.000000 electrons
         Band energy:***********;  BLOECHL correction:  0.000000

 total amount of memory used by VASP MPI-rank0   300225. kBytes
=======================================================================

   base      :      30000. kBytes
   nonl-proj :     174956. kBytes
   fftplans  :       4588. kBytes
   grid      :      69719. kBytes
   one-center:       1990. kBytes
   wavefun   :      18972. kBytes
 
  
  
 General timing and accounting informations for this job:
 ========================================================
  
                  Total CPU time used (sec):     2861.284
                            User time (sec):     2851.058
                          System time (sec):       10.225
                         Elapsed time (sec):     2881.934
  
                   Maximum memory used (kb):      660924.
                   Average memory used (kb):           0.
  
                          Minor page faults:       557089
                          Major page faults:         5835
                 Voluntary context switches:         7324
