       N       E                     dE             d eps       ncg     rms          ort
SDA:   1    -0.819456900303E+02   -0.81946E+02    0.00000E+00  4784   0.321E-04 0.000E+00
CGA:   2    -0.819456936404E+02   -0.36102E-05   -0.43402E-05  4784   0.177E-04 0.220E-04
CGA:   3    -0.819457011241E+02   -0.74836E-05   -0.85503E-06  4784   0.132E-04 0.146E-04
CGA:   4    -0.819457023872E+02   -0.12631E-05   -0.90519E-06  4784   0.972E-05 0.110E-04
CGA:   5    -0.819457033473E+02   -0.96009E-06   -0.52852E-06  4784   0.766E-05 0.829E-05
CGA:   6    -0.819457048219E+02   -0.14746E-05   -0.32596E-06  4784   0.631E-05 0.671E-05
CGA:   7    -0.819457060993E+02   -0.12774E-05   -0.20910E-06  4784   0.542E-05 0.574E-05
CGA:   8    -0.819457068145E+02   -0.71518E-06   -0.16437E-06  4784   0.474E-05 0.503E-05
CGA:   9    -0.819457071791E+02   -0.36459E-06   -0.16055E-06  4784   0.409E-05 0.439E-05
CGA:  10    -0.819457075063E+02   -0.32723E-06   -0.13762E-06  4784   0.354E-05 0.380E-05
CGA:  11    -0.819457077597E+02   -0.25340E-06   -0.12350E-06  4784   0.305E-05 0.328E-05
CGA:  12    -0.819457079886E+02   -0.22893E-06   -0.10544E-06  4784   0.264E-05 0.283E-05
CGA:  13    -0.819457081745E+02   -0.18586E-06   -0.93456E-07  4784   0.227E-05 0.244E-05
CGA:  14    -0.819457083401E+02   -0.16560E-06   -0.78384E-07  4784   0.196E-05 0.211E-05
CGA:  15    -0.819457084765E+02   -0.13646E-06   -0.70507E-07  4784   0.168E-05 0.181E-05
CGA:  16    -0.819457085961E+02   -0.11956E-06   -0.55652E-07  4784   0.146E-05 0.157E-05
CGA:  17    -0.819457086941E+02   -0.98009E-07   -0.55310E-07  4784   0.125E-05 0.135E-05
CGA:  18    -0.819457087824E+02   -0.88265E-07   -0.36007E-07  4784   0.111E-05 0.117E-05
CGA:  19    -0.819457088447E+02   -0.62366E-07   -0.46362E-07  4784   0.929E-06 0.101E-05
CGA:  20    -0.819457089166E+02   -0.71876E-07   -0.23985E-07  4784   0.833E-06 0.878E-06
CGA:  21    -0.819457089469E+02   -0.30277E-07   -0.30218E-07  4784   0.717E-06 0.771E-06
CGA:  22    -0.819457089841E+02   -0.37178E-07   -0.20835E-07  4784   0.635E-06 0.672E-06
CGA:  23    -0.819457090236E+02   -0.39570E-07   -0.18061E-07  4784   0.565E-06 0.597E-06
CGA:  24    -0.819457090609E+02   -0.37235E-07   -0.14681E-07  4784   0.507E-06 0.533E-06
CGA:  25    -0.819457090962E+02   -0.35354E-07   -0.12622E-07  4784   0.457E-06 0.480E-06
CGA:  26    -0.819457091221E+02   -0.25882E-07   -0.10659E-07  4784   0.415E-06 0.435E-06
CGA:  27    -0.819457091462E+02   -0.24129E-07   -0.94244E-08  4784   0.378E-06 0.395E-06
CGA:  28    -0.819457091661E+02   -0.19842E-07   -0.77254E-08  4784   0.348E-06 0.362E-06
CGA:  29    -0.819457091868E+02   -0.20722E-07   -0.64456E-08  4784   0.322E-06 0.334E-06
CGA:  30    -0.819457092021E+02   -0.15323E-07   -0.51809E-08  4784   0.302E-06 0.312E-06
CGA:  31    -0.819457092140E+02   -0.11900E-07   -0.48451E-08  4784   0.283E-06 0.292E-06
CGA:  32    -0.819457092230E+02   -0.89658E-08   -0.44358E-08  4784   0.265E-06 0.274E-06
   1 F= -.81945709E+02 E0= -.81945709E+02  d E =0.000000E+00  mag=    -0.0000    -0.0000     0.0000
