       N       E                     dE             d eps       ncg     rms          rms(c)
DAV:   1    -0.327160235285E+03   -0.32716E+03   -0.16673E-05  2816   0.178E-02    0.110E+00
DAV:   2    -0.327166502407E+03   -0.62671E-02   -0.14212E-01  2560   0.928E-01    0.126E+00
DAV:   3    -0.327160332628E+03    0.61698E-02   -0.91708E-02  2560   0.866E-01    0.544E-01
DAV:   4    -0.327160193055E+03    0.13957E-03   -0.42733E-03  2560   0.165E-01    0.218E-01
DAV:   5    -0.327160492424E+03   -0.29937E-03   -0.11191E-03  2560   0.578E-02    0.826E-02
DAV:   6    -0.327160594568E+03   -0.10214E-03   -0.36796E-04  2560   0.304E-02    0.379E-02
DAV:   7    -0.327160629202E+03   -0.34634E-04   -0.80764E-05  2048   0.120E-02    0.191E-02
DAV:   8    -0.327160634628E+03   -0.54251E-05   -0.18402E-05  2048   0.608E-03    0.973E-03
DAV:   9    -0.327160638745E+03   -0.41171E-05   -0.10653E-05  3072   0.521E-03    0.865E-03
DAV:  10    -0.327160640127E+03   -0.13825E-05   -0.56491E-06  2560   0.370E-03    0.307E-03
DAV:  11    -0.327160640509E+03   -0.38197E-06   -0.17874E-06  2048   0.140E-03    0.190E-03
DAV:  12    -0.327160640605E+03   -0.95592E-07   -0.52618E-07  2560   0.128E-03    0.142E-03
DAV:  13    -0.327160640709E+03   -0.10380E-06   -0.23935E-07  2560   0.103E-03    0.834E-04
DAV:  14    -0.327160640767E+03   -0.58455E-07   -0.31047E-08  1536   0.451E-04    0.418E-04
DAV:  15    -0.327160640771E+03   -0.44674E-08   -0.10932E-08  1024   0.195E-04
   1 F= -.32716064E+03 E0= -.32716064E+03  d E =-.793785E-45  mag=     0.0000
