 vasp.5.4.4.18Apr17-6-g9f103f2a35 (build Oct 30 2023 17:49:44) complex          
  
 executed on             LinuxIFC date 2024.12.05  02:36:32
 running on  256 total cores
 distrk:  each k-point on  256 cores,    1 groups
 distr:  one band on NCORES_PER_BAND=   1 cores,  256 groups


--------------------------------------------------------------------------------------------------------


 INCAR:
 POTCAR:    PAW_PBE S 06Sep2000                   
 POTCAR:     PAW_PBE Cu_pv 06Sep2000              
 POTCAR:     PAW_PBE Fe_pv 02Aug2007              

 ----------------------------------------------------------------------------- 
|                                                                             |
|           W    W    AA    RRRRR   N    N  II  N    N   GGGG   !!!           |
|           W    W   A  A   R    R  NN   N  II  NN   N  G    G  !!!           |
|           W    W  A    A  R    R  N N  N  II  N N  N  G       !!!           |
|           W WW W  AAAAAA  RRRRR   N  N N  II  N  N N  G  GGG   !            |
|           WW  WW  A    A  R   R   N   NN  II  N   NN  G    G                |
|           W    W  A    A  R    R  N    N  II  N    N   GGGG   !!!           |
|                                                                             |
|      For optimal performance we recommend to set                            |
|        NCORE= 4 - approx SQRT( number of cores)                             |
|      NCORE specifies how many cores store one orbital (NPAR=cpu/NCORE).     |
|      This setting can  greatly improve the performance of VASP for DFT.     |
|      The default,   NCORE=1            might be grossly inefficient         |
|      on modern multi-core architectures or massively parallel machines.     |
|      Do your own testing !!!!                                               |
|      Unfortunately you need to use the default for GW and RPA calculations. |
|      (for HF NCORE is supported but not extensively tested yet)             |
|                                                                             |
 ----------------------------------------------------------------------------- 

 POTCAR:    PAW_PBE S 06Sep2000                   
   SHA256 =  0fc7481fb0695f01bdc6462160264c5c84044ae9ec85a907d398b887a2bc3132 S/
   COPYR  = (c) Copyright 06Sep2000 Georg Kresse                                
   COPYR  = This file is part of the software VASP. Any use, copying, and all ot
   COPYR  = If you do not have a valid VASP license, you may not use, copy or di
   VRHFIN =S : s2p4                                                             
   LEXCH  = PE                                                                  
   EATOM  =   276.8230 eV,   20.3459 Ry                                         
                                                                                
   TITEL  = PAW_PBE S 06Sep2000                                                 
   LULTRA =        F    use ultrasoft PP ?                                      
   IUNSCR =        1    unscreen: 0-lin 1-nonlin 2-no                           
   RPACOR =    1.500    partial core radius                                     
   POMASS =   32.066; ZVAL   =    6.000    mass and valenz                      
   RCORE  =    1.900    outmost cutoff radius                                   
   RWIGS  =    2.200; RWIGS  =    1.164    wigner-seitz radius (au A)           
   ENMAX  =  258.689; ENMIN  =  194.016 eV                                      
   ICORE  =        2    local potential                                         
   LCOR   =        T    correct aug charges                                     
   LPAW   =        T    paw PP                                                  
   EAUG   =  335.092                                                            
   DEXC   =    0.000                                                            
   RMAX   =    1.942    core radius for proj-oper                               
   RAUG   =    1.300    factor for augmentation sphere                          
   RDEP   =    1.954    radius for radial grids                                 
   RDEPT  =    1.744    core radius for aug-charge                              
                                                                                
   Atomic configuration                                                         
    6 entries                                                                   
     n  l   j            E        occ.                                          
     1  0  0.50     -2405.8406   2.0000                                         
     2  0  0.50      -211.7007   2.0000                                         
     2  1  1.50      -156.4958   6.0000                                         
     3  0  0.50       -17.2562   2.0000                                         
     3  1  0.50        -7.0085   4.0000                                         
     3  2  1.50        -6.8029   0.0000                                         
   Description                                                                  
     l       E           TYP  RCUT    TYP  RCUT                                 
     0    -17.2561641     23  1.900                                             
     0    -15.8743224     23  1.900                                             
     1     -7.0085400     23  1.900                                             
     1     -2.7779785     23  1.900                                             
     2     -6.8029130     23  1.900                                             
  local pseudopotential read in
  partial core-charges read in
  partial kinetic energy density read in
  atomic valenz-charges read in
  non local Contribution for L=           0  read in
    real space projection operators read in
  non local Contribution for L=           0  read in
    real space projection operators read in
  non local Contribution for L=           1  read in
    real space projection operators read in
  non local Contribution for L=           1  read in
    real space projection operators read in
    PAW grid and wavefunctions read in
 
   number of l-projection  operators is LMAX  =           4
   number of lm-projection operators is LMMAX =           8
 
 POTCAR:     PAW_PBE Cu_pv 06Sep2000              
   SHA256 =  cb7b504e2ea725fe1f25c85a9ac77d4012ce94cd394135b722c4e25ec297f1cb Cu
   COPYR  = (c) Copyright 06Sep2000 Georg Kresse                                
   COPYR  = This file is part of the software VASP. Any use, copying, and all ot
   COPYR  = If you do not have a valid VASP license, you may not use, copy or di
   VRHFIN =Cu: d10 p1                                                           
   LEXCH  = PE                                                                  
   EATOM  =  4120.1201 eV,  302.8203 Ry                                         
                                                                                
   TITEL  = PAW_PBE Cu_pv 06Sep2000                                             
   LULTRA =        F    use ultrasoft PP ?                                      
   IUNSCR =        1    unscreen: 0-lin 1-nonlin 2-no                           
   RPACOR =    1.500    partial core radius                                     
   POMASS =   63.546; ZVAL   =   17.000    mass and valenz                      
   RCORE  =    2.000    outmost cutoff radius                                   
   RWIGS  =    2.000; RWIGS  =    1.058    wigner-seitz radius (au A)           
   ENMAX  =  368.648; ENMIN  =  276.486 eV                                      
   RCLOC  =    1.304    cutoff for local pot                                    
   LCOR   =        T    correct aug charges                                     
   LPAW   =        T    paw PP                                                  
   EAUG   =  758.233                                                            
   DEXC   =    0.000                                                            
   RMAX   =    2.046    core radius for proj-oper                               
   RAUG   =    1.300    factor for augmentation sphere                          
   RDEP   =    2.025    radius for radial grids                                 
   RDEPT  =    1.558    core radius for aug-charge                              
                                                                                
   Atomic configuration                                                         
    8 entries                                                                   
     n  l   j            E        occ.                                          
     1  0  0.50     -8850.2467   2.0000                                         
     2  0  0.50     -1062.3498   2.0000                                         
     2  1  1.50      -916.8226   6.0000                                         
     3  0  0.50      -114.6929   2.0000                                         
     3  1  1.50       -72.1325   6.0000                                         
     3  2  2.50        -5.0394  10.0000                                         
     4  0  0.50        -4.6097   1.0000                                         
     4  3  2.50        -1.3606   0.0000                                         
   Description                                                                  
     l       E           TYP  RCUT    TYP  RCUT                                 
     1    -72.1324777     23  1.700                                             
     1     -1.3605826     23  1.700                                             
     2     -5.0393776     23  2.000                                             
     2     -6.3999602     23  2.000                                             
     0     -4.6097062     23  1.800                                             
     0     14.1620818     23  1.800                                             
  local pseudopotential read in
  partial core-charges read in
  partial kinetic energy density read in
  atomic valenz-charges read in
  non local Contribution for L=           1  read in
    real space projection operators read in
  non local Contribution for L=           1  read in
    real space projection operators read in
  non local Contribution for L=           2  read in
    real space projection operators read in
  non local Contribution for L=           2  read in
    real space projection operators read in
  non local Contribution for L=           0  read in
    real space projection operators read in
  non local Contribution for L=           0  read in
    real space projection operators read in
    PAW grid and wavefunctions read in
 
   number of l-projection  operators is LMAX  =           6
   number of lm-projection operators is LMMAX =          18
 
 POTCAR:     PAW_PBE Fe_pv 02Aug2007              
   SHA256 =  5d22e414b1f82158bf2c7ecb8b97b28fd0923e48cadc1c3bf74d524558f5dd32 Fe
   COPYR  = (c) Copyright 02Aug2007 Georg Kresse                                
   COPYR  = This file is part of the software VASP. Any use, copying, and all ot
   COPYR  = If you do not have a valid VASP license, you may not use, copy or di
   VRHFIN =Fe:  3pd7s1                                                          
   LEXCH  = PE                                                                  
   EATOM  =  2457.4239 eV,  180.6156 Ry                                         
                                                                                
   TITEL  = PAW_PBE Fe_pv 02Aug2007                                             
   LULTRA =        F    use ultrasoft PP ?                                      
   IUNSCR =        1    unscreen: 0-lin 1-nonlin 2-no                           
   RPACOR =    1.750    partial core radius                                     
   POMASS =   55.847; ZVAL   =   14.000    mass and valenz                      
   RCORE  =    2.200    outmost cutoff radius                                   
   RWIGS  =    2.200; RWIGS  =    1.164    wigner-seitz radius (au A)           
   ENMAX  =  293.238; ENMIN  =  219.928 eV                                      
   ICORE  =        3    local potential                                         
   LCOR   =        T    correct aug charges                                     
   LPAW   =        T    paw PP                                                  
   EAUG   =  578.342                                                            
   DEXC   =    0.000                                                            
   RMAX   =    2.249    core radius for proj-oper                               
   RAUG   =    1.300    factor for augmentation sphere                          
   RDEP   =    2.296    radius for radial grids                                 
   RDEPT  =    1.766    core radius for aug-charge                              
                                                                                
   Atomic configuration                                                         
    8 entries                                                                   
     n  l   j            E        occ.                                          
     1  0  0.50     -6993.8440   2.0000                                         
     2  0  0.50      -814.6047   2.0000                                         
     2  1  1.50      -693.3689   6.0000                                         
     3  0  0.50       -89.4732   2.0000                                         
     3  1  1.50       -55.6373   6.0000                                         
     3  2  2.50        -3.8151   7.0000                                         
     4  0  0.50        -4.2551   1.0000                                         
     4  3  2.50        -1.3606   0.0000                                         
   Description                                                                  
     l       E           TYP  RCUT    TYP  RCUT                                 
     1    -55.6372668     23  2.000                                             
     1     -5.4423304     23  2.000                                             
     2     -3.8151096     23  2.200                                             
     2     -5.1756922     23  2.200                                             
     0     -4.2550951     23  2.200                                             
     0     27.2116520     23  2.200                                             
     3     -1.3605826     23  2.200                                             
  local pseudopotential read in
  partial core-charges read in
  partial kinetic energy density read in
  atomic valenz-charges read in
  non local Contribution for L=           1  read in
    real space projection operators read in
  non local Contribution for L=           1  read in
    real space projection operators read in
  non local Contribution for L=           2  read in
    real space projection operators read in
  non local Contribution for L=           2  read in
    real space projection operators read in
  non local Contribution for L=           0  read in
    real space projection operators read in
  non local Contribution for L=           0  read in
    real space projection operators read in
    PAW grid and wavefunctions read in
 
   number of l-projection  operators is LMAX  =           6
   number of lm-projection operators is LMMAX =          18
 

 ----------------------------------------------------------------------------- 
|                                                                             |
|  ADVICE TO THIS USER RUNNING 'VASP/VAMP'   (HEAR YOUR MASTER'S VOICE ...):  |
|                                                                             |
|      You enforced a specific xc-type in the INCAR file,                     |
|      a different type was found on the POTCAR file                          |
|          I HOPE YOU KNOW, WHAT YOU ARE  DOING                               |
|                                                                             |
 ----------------------------------------------------------------------------- 

  PAW_PBE S 06Sep2000                   :
 energy of atom  1       EATOM= -276.8230
 kinetic energy error for atom=    0.0007 (will be added to EATOM!!)
   PAW_PBE Cu_pv 06Sep2000              :
 energy of atom  2       EATOM=-4120.1201
 kinetic energy error for atom=    0.0094 (will be added to EATOM!!)
   PAW_PBE Fe_pv 02Aug2007              :
 energy of atom  3       EATOM=-2457.4239
 kinetic energy error for atom=    0.0025 (will be added to EATOM!!)
 
 
 POSCAR: Fe4 Cu4 S8                              
  positions in direct lattice
  velocities in cartesian coordinates
 exchange correlation table for  LEXCH =       14
   RHO(1)=    0.500       N(1)  =     2000
   RHO(2)=  100.500       N(2)  =     4000
 


--------------------------------------------------------------------------------------------------------


 ion  position               nearest neighbor table
   1  0.253  0.243  0.126-  11 2.26  10 2.27  16 2.27  13 2.29
   2  0.747  0.743  0.124-  10 2.26  11 2.27  13 2.27  16 2.29
   3  0.250  0.743  0.875-  11 2.26  12 2.26  14 2.27  13 2.27
   4  0.750  0.248  0.875-  11 2.26  12 2.26  13 2.28  14 2.28
   5  0.247  0.243  0.624-  12 2.26   9 2.27  15 2.27  14 2.29
   6  0.753  0.743  0.626-   9 2.26  12 2.27  14 2.27  15 2.29
   7  0.750  0.243  0.375-   9 2.26  10 2.26  15 2.27  16 2.27
   8  0.250  0.748  0.375-   9 2.26  10 2.26  15 2.28  16 2.28
   9  0.998  0.006  0.500-   6 2.26   8 2.26   7 2.26   5 2.27
  10  0.502  0.006  0.250-   2 2.26   8 2.26   7 2.26   1 2.27
  11  0.498  0.506  0.000-   1 2.26   4 2.26   3 2.26   2 2.27
  12  0.002  0.506  0.750-   5 2.26   4 2.26   3 2.26   6 2.27
  13  0.999  0.005  0.000-   2 2.27   3 2.27   4 2.28   1 2.29
  14  0.501  0.005  0.750-   6 2.27   3 2.27   4 2.28   5 2.29
  15  0.499  0.505  0.500-   5 2.27   7 2.27   8 2.28   6 2.29
  16  0.001  0.505  0.250-   1 2.27   7 2.27   8 2.28   2 2.29
 
  LATTYP: Found a simple monoclinic cell.
 ALAT       =    11.8949137497
 B/A-ratio  =     0.4427247456
 C/A-ratio  =     1.8258541285
 COS(beta)  =    -0.9774329570
  
  Lattice vectors:
  
 A1 = (  -5.5249260000,   0.0000000000, -10.5339530000)
 A2 = (   0.0000000000,  -5.2661726643,   0.0000000000)
 A3 = (   5.7970700000,   0.0000000000,  20.9304060000)


Analysis of symmetry for initial positions (statically):
=====================================================================
 Subroutine PRICEL returns following result:
 
  LATTYP: Found a base centered monoclinic cell.
 ALAT       =    11.4040725858
 B/A-ratio  =     0.4617800022
 C/A-ratio  =     0.9119561645
 COS(beta)  =    -0.8060578464
  
  Lattice vectors:
  
 A1 = (  -2.4903190000,  -2.6330863322,   5.1294765000)
 A2 = (  -2.4903190000,   2.6330863322,   5.1294765000)
 A3 = (  -0.2721440000,   0.0000000000, -10.3964530000)
 
   2 primitive cells build up your supercell.
 

 Routine SETGRP: Setting up the symmetry group for a 
 simple monoclinic supercell.


 Subroutine GETGRP returns: Found  2 space group operations
 (whereof  1 operations were pure point group operations)
 out of a pool of  4 trial point group operations.


The static configuration has the point symmetry C_1 .
 The point group associated with its full space group is C_2 .


Analysis of symmetry for dynamics (positions and initial velocities):
=====================================================================
 Subroutine PRICEL returns following result:
 
  LATTYP: Found a base centered monoclinic cell.
 ALAT       =    11.4040725858
 B/A-ratio  =     0.4617800022
 C/A-ratio  =     0.9119561645
 COS(beta)  =    -0.8060578464
  
  Lattice vectors:
  
 A1 = (  -2.4903190000,  -2.6330863322,   5.1294765000)
 A2 = (  -2.4903190000,   2.6330863322,   5.1294765000)
 A3 = (  -0.2721440000,   0.0000000000, -10.3964530000)
 
   2 primitive cells build up your supercell.
 

 Routine SETGRP: Setting up the symmetry group for a 
 simple monoclinic supercell.


 Subroutine GETGRP returns: Found  2 space group operations
 (whereof  1 operations were pure point group operations)
 out of a pool of  4 trial point group operations.


The dynamic configuration has the point symmetry C_1 .
 The point group associated with its full space group is C_2 .


Analysis of structural, dynamic, and magnetic symmetry:
=====================================================================
 Subroutine PRICEL returns following result:
 
  LATTYP: Found a base centered monoclinic cell.
 ALAT       =    11.4040725858
 B/A-ratio  =     0.4617800022
 C/A-ratio  =     0.9119561645
 COS(beta)  =    -0.8060578464
  
  Lattice vectors:
  
 A1 = (  -2.4903190000,  -2.6330863322,   5.1294765000)
 A2 = (  -2.4903190000,   2.6330863322,   5.1294765000)
 A3 = (  -0.2721440000,   0.0000000000, -10.3964530000)
 
   2 primitive cells build up your supercell.
 

 Routine SETGRP: Setting up the symmetry group for a 
 simple monoclinic supercell.


 Subroutine GETGRP returns: Found  2 space group operations
 (whereof  1 operations were pure point group operations)
 out of a pool of  4 trial point group operations.


The (compounded) configuration has the point symmetry C_1 .
 The point group associated with its full space group is C_2 .


 Subroutine INISYM returns: Found  2 space group operations
 (whereof  1 operations are pure point group operations),
 and found     2 'primitive' translations

 
 
 KPOINTS: Automatic mesh                          

Automatic generation of k-mesh.
Space group operators:
 irot       det(A)        alpha          n_x          n_y          n_z        tau_x        tau_y        tau_z
    1     1.000000     0.000000     1.000000     0.000000     0.000000     0.000000     0.000000     0.000000
    2     1.000000   180.000000     0.000000     1.000000     0.000000    -0.500000     0.000000    -0.250000
 
 Subroutine IBZKPT returns following result:
 ===========================================
 
 Found     60 irreducible k-points:
 
 Following reciprocal coordinates:
            Coordinates               Weight
  0.000000  0.000000  0.000000      1.000000
  0.166667  0.000000 -0.000000      2.000000
  0.333333  0.000000  0.000000      2.000000
  0.500000  0.000000 -0.000000      1.000000
  0.000000  0.166667  0.000000      1.000000
  0.166667  0.166667 -0.000000      2.000000
  0.333333  0.166667  0.000000      2.000000
  0.500000  0.166667 -0.000000      1.000000
  0.000000  0.333333  0.000000      1.000000
  0.166667  0.333333 -0.000000      2.000000
  0.333333  0.333333  0.000000      2.000000
  0.500000  0.333333 -0.000000      1.000000
  0.000000  0.500000  0.000000      1.000000
  0.166667  0.500000 -0.000000      2.000000
  0.333333  0.500000  0.000000      2.000000
  0.500000  0.500000 -0.000000      1.000000
  0.000000 -0.333333  0.000000      1.000000
  0.166667 -0.333333 -0.000000      2.000000
  0.333333 -0.333333  0.000000      2.000000
  0.500000 -0.333333 -0.000000      1.000000
  0.000000 -0.166667  0.000000      1.000000
  0.166667 -0.166667 -0.000000      2.000000
  0.333333 -0.166667  0.000000      2.000000
  0.500000 -0.166667 -0.000000      1.000000
  0.000000  0.000000  0.333333      2.000000
  0.166667  0.000000  0.333333      2.000000
  0.333333  0.000000  0.333333      2.000000
  0.500000  0.000000  0.333333      2.000000
 -0.333333  0.000000  0.333333      2.000000
 -0.166667  0.000000  0.333333      2.000000
  0.000000  0.166667  0.333333      2.000000
  0.166667  0.166667  0.333333      2.000000
  0.333333  0.166667  0.333333      2.000000
  0.500000  0.166667  0.333333      2.000000
 -0.333333  0.166667  0.333333      2.000000
 -0.166667  0.166667  0.333333      2.000000
  0.000000  0.333333  0.333333      2.000000
  0.166667  0.333333  0.333333      2.000000
  0.333333  0.333333  0.333333      2.000000
  0.500000  0.333333  0.333333      2.000000
 -0.333333  0.333333  0.333333      2.000000
 -0.166667  0.333333  0.333333      2.000000
  0.000000  0.500000  0.333333      2.000000
  0.166667  0.500000  0.333333      2.000000
  0.333333  0.500000  0.333333      2.000000
  0.500000  0.500000  0.333333      2.000000
 -0.333333  0.500000  0.333333      2.000000
 -0.166667  0.500000  0.333333      2.000000
  0.000000 -0.333333  0.333333      2.000000
  0.166667 -0.333333  0.333333      2.000000
  0.333333 -0.333333  0.333333      2.000000
  0.500000 -0.333333  0.333333      2.000000
 -0.333333 -0.333333  0.333333      2.000000
 -0.166667 -0.333333  0.333333      2.000000
  0.000000 -0.166667  0.333333      2.000000
  0.166667 -0.166667  0.333333      2.000000
  0.333333 -0.166667  0.333333      2.000000
  0.500000 -0.166667  0.333333      2.000000
 -0.333333 -0.166667  0.333333      2.000000
 -0.166667 -0.166667  0.333333      2.000000
 
 Following cartesian coordinates:
            Coordinates               Weight
  0.000000  0.000000  0.000000      1.000000
  0.031751  0.000000 -0.000831      2.000000
  0.063502  0.000000 -0.001662      2.000000
  0.095253  0.000000 -0.002493      1.000000
  0.000000  0.031649  0.000000      1.000000
  0.031751  0.031649 -0.000831      2.000000
  0.063502  0.031649 -0.001662      2.000000
  0.095253  0.031649 -0.002493      1.000000
  0.000000  0.063297  0.000000      1.000000
  0.031751  0.063297 -0.000831      2.000000
  0.063502  0.063297 -0.001662      2.000000
  0.095253  0.063297 -0.002493      1.000000
  0.000000  0.094946  0.000000      1.000000
  0.031751  0.094946 -0.000831      2.000000
  0.063502  0.094946 -0.001662      2.000000
  0.095253  0.094946 -0.002493      1.000000
  0.000000 -0.063297  0.000000      1.000000
  0.031751 -0.063297 -0.000831      2.000000
  0.063502 -0.063297 -0.001662      2.000000
  0.095253 -0.063297 -0.002493      1.000000
  0.000000 -0.031649  0.000000      1.000000
  0.031751 -0.031649 -0.000831      2.000000
  0.063502 -0.031649 -0.001662      2.000000
  0.095253 -0.031649 -0.002493      1.000000
 -0.000840  0.000000  0.032084      2.000000
  0.030911  0.000000  0.031253      2.000000
  0.062662  0.000000  0.030422      2.000000
  0.094413  0.000000  0.029591      2.000000
 -0.064342  0.000000  0.033746      2.000000
 -0.032591  0.000000  0.032915      2.000000
 -0.000840  0.031649  0.032084      2.000000
  0.030911  0.031649  0.031253      2.000000
  0.062662  0.031649  0.030422      2.000000
  0.094413  0.031649  0.029591      2.000000
 -0.064342  0.031649  0.033746      2.000000
 -0.032591  0.031649  0.032915      2.000000
 -0.000840  0.063297  0.032084      2.000000
  0.030911  0.063297  0.031253      2.000000
  0.062662  0.063297  0.030422      2.000000
  0.094413  0.063297  0.029591      2.000000
 -0.064342  0.063297  0.033746      2.000000
 -0.032591  0.063297  0.032915      2.000000
 -0.000840  0.094946  0.032084      2.000000
  0.030911  0.094946  0.031253      2.000000
  0.062662  0.094946  0.030422      2.000000
  0.094413  0.094946  0.029591      2.000000
 -0.064342  0.094946  0.033746      2.000000
 -0.032591  0.094946  0.032915      2.000000
 -0.000840 -0.063297  0.032084      2.000000
  0.030911 -0.063297  0.031253      2.000000
  0.062662 -0.063297  0.030422      2.000000
  0.094413 -0.063297  0.029591      2.000000
 -0.064342 -0.063297  0.033746      2.000000
 -0.032591 -0.063297  0.032915      2.000000
 -0.000840 -0.031649  0.032084      2.000000
  0.030911 -0.031649  0.031253      2.000000
  0.062662 -0.031649  0.030422      2.000000
  0.094413 -0.031649  0.029591      2.000000
 -0.064342 -0.031649  0.033746      2.000000
 -0.032591 -0.031649  0.032915      2.000000
 
 TETIRR: Found    648 inequivalent tetrahedra from      648
 
 Subroutine IBZKPT_HF returns following result:
 ==============================================
 
 Found    108 k-points in 1st BZ
 the following    108 k-points will be used (e.g. in the exchange kernel)
 Following reciprocal coordinates:   # in IRBZ
  0.000000  0.000000  0.000000    0.00925926   1 t-inv F
  0.166667  0.000000 -0.000000    0.00925926   2 t-inv F
  0.333333  0.000000  0.000000    0.00925926   3 t-inv F
  0.500000  0.000000 -0.000000    0.00925926   4 t-inv F
  0.000000  0.166667  0.000000    0.00925926   5 t-inv F
  0.166667  0.166667 -0.000000    0.00925926   6 t-inv F
  0.333333  0.166667  0.000000    0.00925926   7 t-inv F
  0.500000  0.166667 -0.000000    0.00925926   8 t-inv F
  0.000000  0.333333  0.000000    0.00925926   9 t-inv F
  0.166667  0.333333 -0.000000    0.00925926  10 t-inv F
  0.333333  0.333333  0.000000    0.00925926  11 t-inv F
  0.500000  0.333333 -0.000000    0.00925926  12 t-inv F
  0.000000  0.500000  0.000000    0.00925926  13 t-inv F
  0.166667  0.500000 -0.000000    0.00925926  14 t-inv F
  0.333333  0.500000  0.000000    0.00925926  15 t-inv F
  0.500000  0.500000 -0.000000    0.00925926  16 t-inv F
  0.000000 -0.333333  0.000000    0.00925926  17 t-inv F
  0.166667 -0.333333 -0.000000    0.00925926  18 t-inv F
  0.333333 -0.333333  0.000000    0.00925926  19 t-inv F
  0.500000 -0.333333 -0.000000    0.00925926  20 t-inv F
  0.000000 -0.166667  0.000000    0.00925926  21 t-inv F
  0.166667 -0.166667 -0.000000    0.00925926  22 t-inv F
  0.333333 -0.166667  0.000000    0.00925926  23 t-inv F
  0.500000 -0.166667 -0.000000    0.00925926  24 t-inv F
  0.000000  0.000000  0.333333    0.00925926  25 t-inv F
  0.166667  0.000000  0.333333    0.00925926  26 t-inv F
  0.333333  0.000000  0.333333    0.00925926  27 t-inv F
  0.500000  0.000000  0.333333    0.00925926  28 t-inv F
 -0.333333  0.000000  0.333333    0.00925926  29 t-inv F
 -0.166667  0.000000  0.333333    0.00925926  30 t-inv F
  0.000000  0.166667  0.333333    0.00925926  31 t-inv F
  0.166667  0.166667  0.333333    0.00925926  32 t-inv F
  0.333333  0.166667  0.333333    0.00925926  33 t-inv F
  0.500000  0.166667  0.333333    0.00925926  34 t-inv F
 -0.333333  0.166667  0.333333    0.00925926  35 t-inv F
 -0.166667  0.166667  0.333333    0.00925926  36 t-inv F
  0.000000  0.333333  0.333333    0.00925926  37 t-inv F
  0.166667  0.333333  0.333333    0.00925926  38 t-inv F
  0.333333  0.333333  0.333333    0.00925926  39 t-inv F
  0.500000  0.333333  0.333333    0.00925926  40 t-inv F
 -0.333333  0.333333  0.333333    0.00925926  41 t-inv F
 -0.166667  0.333333  0.333333    0.00925926  42 t-inv F
  0.000000  0.500000  0.333333    0.00925926  43 t-inv F
  0.166667  0.500000  0.333333    0.00925926  44 t-inv F
  0.333333  0.500000  0.333333    0.00925926  45 t-inv F
  0.500000  0.500000  0.333333    0.00925926  46 t-inv F
 -0.333333  0.500000  0.333333    0.00925926  47 t-inv F
 -0.166667  0.500000  0.333333    0.00925926  48 t-inv F
  0.000000 -0.333333  0.333333    0.00925926  49 t-inv F
  0.166667 -0.333333  0.333333    0.00925926  50 t-inv F
  0.333333 -0.333333  0.333333    0.00925926  51 t-inv F
  0.500000 -0.333333  0.333333    0.00925926  52 t-inv F
 -0.333333 -0.333333  0.333333    0.00925926  53 t-inv F
 -0.166667 -0.333333  0.333333    0.00925926  54 t-inv F
  0.000000 -0.166667  0.333333    0.00925926  55 t-inv F
  0.166667 -0.166667  0.333333    0.00925926  56 t-inv F
  0.333333 -0.166667  0.333333    0.00925926  57 t-inv F
  0.500000 -0.166667  0.333333    0.00925926  58 t-inv F
 -0.333333 -0.166667  0.333333    0.00925926  59 t-inv F
 -0.166667 -0.166667  0.333333    0.00925926  60 t-inv F
 -0.166667  0.000000  0.000000    0.00925926   2 t-inv F
 -0.333333  0.000000  0.000000    0.00925926   3 t-inv F
 -0.166667  0.166667  0.000000    0.00925926   6 t-inv F
 -0.333333  0.166667  0.000000    0.00925926   7 t-inv F
 -0.166667  0.333333  0.000000    0.00925926  10 t-inv F
 -0.333333  0.333333  0.000000    0.00925926  11 t-inv F
 -0.166667  0.500000  0.000000    0.00925926  14 t-inv F
 -0.333333  0.500000  0.000000    0.00925926  15 t-inv F
 -0.166667 -0.333333  0.000000    0.00925926  18 t-inv F
 -0.333333 -0.333333  0.000000    0.00925926  19 t-inv F
 -0.166667 -0.166667  0.000000    0.00925926  22 t-inv F
 -0.333333 -0.166667  0.000000    0.00925926  23 t-inv F
  0.000000  0.000000 -0.333333    0.00925926  25 t-inv F
 -0.166667  0.000000 -0.333333    0.00925926  26 t-inv F
 -0.333333  0.000000 -0.333333    0.00925926  27 t-inv F
 -0.500000  0.000000 -0.333333    0.00925926  28 t-inv F
  0.333333  0.000000 -0.333333    0.00925926  29 t-inv F
  0.166667  0.000000 -0.333333    0.00925926  30 t-inv F
  0.000000  0.166667 -0.333333    0.00925926  31 t-inv F
 -0.166667  0.166667 -0.333333    0.00925926  32 t-inv F
 -0.333333  0.166667 -0.333333    0.00925926  33 t-inv F
 -0.500000  0.166667 -0.333333    0.00925926  34 t-inv F
  0.333333  0.166667 -0.333333    0.00925926  35 t-inv F
  0.166667  0.166667 -0.333333    0.00925926  36 t-inv F
  0.000000  0.333333 -0.333333    0.00925926  37 t-inv F
 -0.166667  0.333333 -0.333333    0.00925926  38 t-inv F
 -0.333333  0.333333 -0.333333    0.00925926  39 t-inv F
 -0.500000  0.333333 -0.333333    0.00925926  40 t-inv F
  0.333333  0.333333 -0.333333    0.00925926  41 t-inv F
  0.166667  0.333333 -0.333333    0.00925926  42 t-inv F
  0.000000  0.500000 -0.333333    0.00925926  43 t-inv F
 -0.166667  0.500000 -0.333333    0.00925926  44 t-inv F
 -0.333333  0.500000 -0.333333    0.00925926  45 t-inv F
 -0.500000  0.500000 -0.333333    0.00925926  46 t-inv F
  0.333333  0.500000 -0.333333    0.00925926  47 t-inv F
  0.166667  0.500000 -0.333333    0.00925926  48 t-inv F
  0.000000 -0.333333 -0.333333    0.00925926  49 t-inv F
 -0.166667 -0.333333 -0.333333    0.00925926  50 t-inv F
 -0.333333 -0.333333 -0.333333    0.00925926  51 t-inv F
 -0.500000 -0.333333 -0.333333    0.00925926  52 t-inv F
  0.333333 -0.333333 -0.333333    0.00925926  53 t-inv F
  0.166667 -0.333333 -0.333333    0.00925926  54 t-inv F
  0.000000 -0.166667 -0.333333    0.00925926  55 t-inv F
 -0.166667 -0.166667 -0.333333    0.00925926  56 t-inv F
 -0.333333 -0.166667 -0.333333    0.00925926  57 t-inv F
 -0.500000 -0.166667 -0.333333    0.00925926  58 t-inv F
  0.333333 -0.166667 -0.333333    0.00925926  59 t-inv F
  0.166667 -0.166667 -0.333333    0.00925926  60 t-inv F


--------------------------------------------------------------------------------------------------------




 Dimension of arrays:
   k-points           NKPTS =     60   k-points in BZ     NKDIM =     60   number of bands    NBANDS=    256
   number of dos      NEDOS =    301   number of ions     NIONS =     16
   non local maximal  LDIM  =      6   non local SUM 2l+1 LMDIM =     18
   total plane-waves  NPLWV = 207360
   max r-space proj   IRMAX =      1   max aug-charges    IRDMAX=  22929
   dimension x,y,z NGX =    48 NGY =   48 NGZ =   90
   dimension x,y,z NGXF=    96 NGYF=   96 NGZF=  180
   support grid    NGXF=    96 NGYF=   96 NGZF=  180
   ions per type =               8   4   4
   NGX,Y,Z   is equivalent  to a cutoff of  15.19, 15.15, 14.39 a.u.
   NGXF,Y,Z  is equivalent  to a cutoff of  30.37, 30.31, 28.77 a.u.

 SYSTEM =  CuFeS2                                  
 POSCAR =  Fe4 Cu4 S8                              

 Startparameter for this run:
   NWRITE =      2    write-flag & timer
   PREC   = accura    normal or accurate (medium, high low for compatibility)
   ISTART =      1    job   : 0-new  1-cont  2-samecut
   ICHARG =      1    charge: 1-file 2-atom 10-const
   ISPIN  =      1    spin polarized calculation?
   LNONCOLLINEAR =      T non collinear calculations
   LSORBIT =      T    spin-orbit coupling
   INIWAV =      1    electr: 0-lowe 1-rand  2-diag
   LASPH  =      T    aspherical Exc in radial PAW
   METAGGA=      F    non-selfconsistent MetaGGA calc.

 Electronic Relaxation 1
   ENCUT  =  700.0 eV  51.45 Ry    7.17 a.u.  11.34 11.36 22.44*2*pi/ulx,y,z
   ENINI  =  700.0     initial cutoff
   ENAUG  =  758.2 eV  augmentation charge cutoff
   NELM   =    200;   NELMIN=  2; NELMDL=  0     # of ELM steps 
   EDIFF  = 0.1E-07   stopping-criterion for ELM
   LREAL  =      F    real-space projection
   NLSPLINE    = F    spline interpolate recip. space projectors
   LCOMPAT=      F    compatible to vasp.4.4
   GGA_COMPAT  = T    GGA compatible to vasp.4.4-vasp.4.6
   LMAXPAW     = -100 max onsite density
   LMAXMIX     =    4 max onsite mixed and CHGCAR
   VOSKOWN=      0    Vosko Wilk Nusair interpolation
   ROPT   =    0.00000   0.00000   0.00000
 Ionic relaxation
   EDIFFG = -.1E-04   stopping-criterion for IOM
   NSW    =      0    number of steps for IOM
   NBLOCK =      1;   KBLOCK =      1    inner block; outer block 
   IBRION =     -1    ionic relax: 0-MD 1-quasi-New 2-CG
   NFREE  =      0    steps in history (QN), initial steepest desc. (CG)
   ISIF   =      2    stress and relaxation
   IWAVPR =     10    prediction:  0-non 1-charg 2-wave 3-comb
   ISYM   =      2    0-nonsym 1-usesym 2-fastsym
   LCORR  =      T    Harris-Foulkes like correction to forces

   POTIM  = 0.5000    time-step for ionic-motion
   TEIN   =    0.0    initial temperature
   TEBEG  =    0.0;   TEEND  =   0.0 temperature during run
   SMASS  =  -3.00    Nose mass-parameter (am)
   estimated Nose-frequenzy (Omega)   =  0.10E-29 period in steps =****** mass=  -0.631E-27a.u.
   SCALEE = 1.0000    scale energy and forces
   NPACO  =    256;   APACO  = 16.0  distance and # of slots for P.C.
   PSTRESS=    0.0 pullay stress

  Mass of Ions in am
   POMASS =  32.07 63.55 55.85
  Ionic Valenz
   ZVAL   =   6.00 17.00 14.00
  Atomic Wigner-Seitz radii
   RWIGS  =  -1.00 -1.00 -1.00
  virtual crystal weights 
   VCA    =   1.00  1.00  1.00
   NELECT =     172.0000    total number of electrons
   NUPDOWN=      -1.0000    fix difference up-down

 DOS related values:
   EMIN   =  10.00;   EMAX   =-10.00  energy-range for DOS
   EFERMI =   0.00
   ISMEAR =    -5;   SIGMA  =   0.03  broadening in eV -4-tet -1-fermi 0-gaus

 Electronic relaxation 2 (details)
   IALGO  =     38    algorithm
   LDIAG  =      T    sub-space diagonalisation (order eigenvalues)
   LSUBROT=      F    optimize rotation matrix (better conditioning)
   TURBO    =      0    0=normal 1=particle mesh
   IRESTART =      0    0=no restart 2=restart with 2 vectors
   NREBOOT  =      0    no. of reboots
   NMIN     =      0    reboot dimension
   EREF     =   0.00    reference energy to select bands
   IMIX   =      4    mixing-type and parameters
     AMIX     =   0.40;   BMIX     =  1.00
     AMIX_MAG =   1.60;   BMIX_MAG =  1.00
     AMIN     =   0.10
     WC   =   100.;   INIMIX=   1;  MIXPRE=   1;  MAXMIX= -45

 Intra band minimization:
   WEIMIN = 0.0000     energy-eigenvalue tresh-hold
   EBREAK =  0.98E-11  absolut break condition
   DEPER  =   0.30     relativ break condition  

   TIME   =   0.40     timestep for ELM

  volume/ion in A,a.u.               =      17.96       121.21
  Fermi-wavevector in a.u.,A,eV,Ry     =   1.379623  2.607109 25.896767  1.903359
  Thomas-Fermi vector in A             =   2.504575
 
 Write flags
   LWAVE        =      T    write WAVECAR
   LDOWNSAMPLE  =      F    k-point downsampling of WAVECAR
   LCHARG       =      T    write CHGCAR
   LVTOT        =      F    write LOCPOT, total local potential
   LVHAR        =      F    write LOCPOT, Hartree potential only
   LELF         =      F    write electronic localiz. function (ELF)
   LORBIT       =     11    0 simple, 1 ext, 2 COOP (PROOUT), +10 PAW based schemes


 Dipole corrections
   LMONO  =      F    monopole corrections only (constant potential shift)
   LDIPOL =      F    correct potential (dipole corrections)
   IDIPOL =      0    1-x, 2-y, 3-z, 4-all directions 
   EPSILON=  1.0000000 bulk dielectric constant

 LDA+U is selected, type is set to LDAUTYPE =  2
   angular momentum for each species LDAUL =     2    2    2
   U (eV)           for each species LDAUU =   0.0  0.1  4.7
   J (eV)           for each species LDAUJ =   0.0  0.0  0.0
 Exchange correlation treatment:
   GGA     =    PS    GGA type
   LEXCH   =    14    internal setting for exchange type
   VOSKOWN=      0    Vosko Wilk Nusair interpolation
   LHFCALC =     F    Hartree Fock is set to
   LHFONE  =     F    Hartree Fock one center treatment
   AEXX    =    0.0000 exact exchange contribution

 Linear response parameters
   LEPSILON=     F    determine dielectric tensor
   LRPA    =     F    only Hartree local field effects (RPA)
   LNABLA  =     F    use nabla operator in PAW spheres
   LVEL    =     F    velocity operator in full k-point grid
   LINTERFAST=   F  fast interpolation
   KINTER  =     0    interpolate to denser k-point grid
   CSHIFT  =0.1000    complex shift for real part using Kramers Kronig
   OMEGAMAX=  -1.0    maximum frequency
   DEG_THRESHOLD= 0.2000000E-02 threshold for treating states as degnerate
   RTIME   =   -0.100 relaxation time in fs
  (WPLASMAI=    0.000 imaginary part of plasma frequency in eV, 0.658/RTIME)
   DFIELD  = 0.0000000 0.0000000 0.0000000 field for delta impulse in time
 
 Orbital magnetization related:
   ORBITALMAG=     F  switch on orbital magnetization
   LCHIMAG   =     F  perturbation theory with respect to B field
   DQ        =  0.001000  dq finite difference perturbation B field
   LLRAUG    =     F  two centre corrections for induced B field

 PEAD related settings:
   LPEAD      =     T    switch on PEAD
   IPEAD      =     4    finite difference order for dpsi/dk
   LCALCPOL   =     T    calculate macroscopic polarization
   LCALCEPS   =     F    calculate dielectric tensor
   EFIELD_PEAD=    0.0000    0.0000    0.0000
   SKIP_EDOTP =     F
   LRPA       =     F
   SKIP_SCF   =     F


--------------------------------------------------------------------------------------------------------


 Static calculation
 charge density and potential will be updated during run
 non collinear spin polarized calculation
 Variant of blocked Davidson
 Davidson routine will perform the subspace rotation
 perform sub-space diagonalisation
    after iterative eigenvector-optimisation
 modified Broyden-mixing scheme, WC =      100.0
 initial mixing is a Kerker type mixing with AMIX =  0.4000 and BMIX =      1.0000
 Hartree-type preconditioning will be used
 using additional bands          170
 reciprocal scheme for non local part
 use partial core corrections
 calculate Harris-corrections to forces 
   (improved forces if not selfconsistent)
 use gradient corrections 
 use of overlap-Matrix (Vanderbilt PP)
 Fermi weights with tetrahedron method with Bloechl corrections


--------------------------------------------------------------------------------------------------------


  energy-cutoff  :      700.00
  volume of cell :      287.39
      direct lattice vectors                 reciprocal lattice vectors
     5.252782000  0.000000000  0.137500000     0.190505847  0.000000000 -0.004986799
     0.000000000  5.266172664  0.000000000     0.000000000  0.189891229  0.000000000
     0.272144000  0.000000000 10.396453000    -0.002519566  0.000000000  0.096252605

  length of vectors
     5.254581333  5.266172664 10.400014295     0.190571105  0.189891229  0.096285576


 
 old parameters found on file WAVECAR:
  energy-cutoff  :      700.00
  volume of cell :      286.99
      direct lattice vectors                 reciprocal lattice vectors
     5.252782000  0.000000000  0.137500000     0.190505847  0.000000000 -0.004986799
     0.000000000  5.258786000  0.000000000     0.000000000  0.190157957  0.000000000
     0.272144000  0.000000000 10.396453000    -0.002519566  0.000000000  0.096252605

  length of vectors

 
 k-points in units of 2pi/SCALE and weight: Automatic mesh                          
   0.00000000  0.00000000  0.00000000       0.009
   0.03175097  0.00000000 -0.00083113       0.019
   0.06350195  0.00000000 -0.00166227       0.019
   0.09525292  0.00000000 -0.00249340       0.009
   0.00000000  0.03164854  0.00000000       0.009
   0.03175097  0.03164854 -0.00083113       0.019
   0.06350195  0.03164854 -0.00166227       0.019
   0.09525292  0.03164854 -0.00249340       0.009
   0.00000000  0.06329708  0.00000000       0.009
   0.03175097  0.06329708 -0.00083113       0.019
   0.06350195  0.06329708 -0.00166227       0.019
   0.09525292  0.06329708 -0.00249340       0.009
   0.00000000  0.09494561  0.00000000       0.009
   0.03175097  0.09494561 -0.00083113       0.019
   0.06350195  0.09494561 -0.00166227       0.019
   0.09525292  0.09494561 -0.00249340       0.009
   0.00000000 -0.06329708  0.00000000       0.009
   0.03175097 -0.06329708 -0.00083113       0.019
   0.06350195 -0.06329708 -0.00166227       0.019
   0.09525292 -0.06329708 -0.00249340       0.009
   0.00000000 -0.03164854  0.00000000       0.009
   0.03175097 -0.03164854 -0.00083113       0.019
   0.06350195 -0.03164854 -0.00166227       0.019
   0.09525292 -0.03164854 -0.00249340       0.009
  -0.00083986  0.00000000  0.03208420       0.019
   0.03091112  0.00000000  0.03125307       0.019
   0.06266209  0.00000000  0.03042194       0.019
   0.09441307  0.00000000  0.02959080       0.019
  -0.06434180  0.00000000  0.03374647       0.019
  -0.03259083  0.00000000  0.03291533       0.019
  -0.00083986  0.03164854  0.03208420       0.019
   0.03091112  0.03164854  0.03125307       0.019
   0.06266209  0.03164854  0.03042194       0.019
   0.09441307  0.03164854  0.02959080       0.019
  -0.06434180  0.03164854  0.03374647       0.019
  -0.03259083  0.03164854  0.03291533       0.019
  -0.00083986  0.06329708  0.03208420       0.019
   0.03091112  0.06329708  0.03125307       0.019
   0.06266209  0.06329708  0.03042194       0.019
   0.09441307  0.06329708  0.02959080       0.019
  -0.06434180  0.06329708  0.03374647       0.019
  -0.03259083  0.06329708  0.03291533       0.019
  -0.00083986  0.09494561  0.03208420       0.019
   0.03091112  0.09494561  0.03125307       0.019
   0.06266209  0.09494561  0.03042194       0.019
   0.09441307  0.09494561  0.02959080       0.019
  -0.06434180  0.09494561  0.03374647       0.019
  -0.03259083  0.09494561  0.03291533       0.019
  -0.00083986 -0.06329708  0.03208420       0.019
   0.03091112 -0.06329708  0.03125307       0.019
   0.06266209 -0.06329708  0.03042194       0.019
   0.09441307 -0.06329708  0.02959080       0.019
  -0.06434180 -0.06329708  0.03374647       0.019
  -0.03259083 -0.06329708  0.03291533       0.019
  -0.00083986 -0.03164854  0.03208420       0.019
   0.03091112 -0.03164854  0.03125307       0.019
   0.06266209 -0.03164854  0.03042194       0.019
   0.09441307 -0.03164854  0.02959080       0.019
  -0.06434180 -0.03164854  0.03374647       0.019
  -0.03259083 -0.03164854  0.03291533       0.019
 
 k-points in reciprocal lattice and weights: Automatic mesh                          
   0.00000000  0.00000000  0.00000000       0.009
   0.16666667  0.00000000 -0.00000000       0.019
   0.33333333  0.00000000  0.00000000       0.019
   0.50000000  0.00000000 -0.00000000       0.009
   0.00000000  0.16666667  0.00000000       0.009
   0.16666667  0.16666667 -0.00000000       0.019
   0.33333333  0.16666667  0.00000000       0.019
   0.50000000  0.16666667 -0.00000000       0.009
   0.00000000  0.33333333  0.00000000       0.009
   0.16666667  0.33333333 -0.00000000       0.019
   0.33333333  0.33333333  0.00000000       0.019
   0.50000000  0.33333333 -0.00000000       0.009
   0.00000000  0.50000000  0.00000000       0.009
   0.16666667  0.50000000 -0.00000000       0.019
   0.33333333  0.50000000  0.00000000       0.019
   0.50000000  0.50000000 -0.00000000       0.009
   0.00000000 -0.33333333  0.00000000       0.009
   0.16666667 -0.33333333 -0.00000000       0.019
   0.33333333 -0.33333333  0.00000000       0.019
   0.50000000 -0.33333333 -0.00000000       0.009
   0.00000000 -0.16666667  0.00000000       0.009
   0.16666667 -0.16666667 -0.00000000       0.019
   0.33333333 -0.16666667  0.00000000       0.019
   0.50000000 -0.16666667 -0.00000000       0.009
   0.00000000  0.00000000  0.33333333       0.019
   0.16666667  0.00000000  0.33333333       0.019
   0.33333333  0.00000000  0.33333333       0.019
   0.50000000  0.00000000  0.33333333       0.019
  -0.33333333  0.00000000  0.33333333       0.019
  -0.16666667  0.00000000  0.33333333       0.019
   0.00000000  0.16666667  0.33333333       0.019
   0.16666667  0.16666667  0.33333333       0.019
   0.33333333  0.16666667  0.33333333       0.019
   0.50000000  0.16666667  0.33333333       0.019
  -0.33333333  0.16666667  0.33333333       0.019
  -0.16666667  0.16666667  0.33333333       0.019
   0.00000000  0.33333333  0.33333333       0.019
   0.16666667  0.33333333  0.33333333       0.019
   0.33333333  0.33333333  0.33333333       0.019
   0.50000000  0.33333333  0.33333333       0.019
  -0.33333333  0.33333333  0.33333333       0.019
  -0.16666667  0.33333333  0.33333333       0.019
   0.00000000  0.50000000  0.33333333       0.019
   0.16666667  0.50000000  0.33333333       0.019
   0.33333333  0.50000000  0.33333333       0.019
   0.50000000  0.50000000  0.33333333       0.019
  -0.33333333  0.50000000  0.33333333       0.019
  -0.16666667  0.50000000  0.33333333       0.019
   0.00000000 -0.33333333  0.33333333       0.019
   0.16666667 -0.33333333  0.33333333       0.019
   0.33333333 -0.33333333  0.33333333       0.019
   0.50000000 -0.33333333  0.33333333       0.019
  -0.33333333 -0.33333333  0.33333333       0.019
  -0.16666667 -0.33333333  0.33333333       0.019
   0.00000000 -0.16666667  0.33333333       0.019
   0.16666667 -0.16666667  0.33333333       0.019
   0.33333333 -0.16666667  0.33333333       0.019
   0.50000000 -0.16666667  0.33333333       0.019
  -0.33333333 -0.16666667  0.33333333       0.019
  -0.16666667 -0.16666667  0.33333333       0.019
 
 position of ions in fractional coordinates (direct lattice) 
   0.25252538  0.24339518  0.12556707
   0.74747462  0.74339518  0.12443293
   0.25000000  0.74323676  0.87500000
   0.75000000  0.24771716  0.87500000
   0.24747462  0.24339518  0.62443293
   0.75252538  0.74339518  0.62556707
   0.75000000  0.24323676  0.37500000
   0.25000000  0.74771716  0.37500000
   0.99781012  0.00564320  0.50000768
   0.50218988  0.00564320  0.24999232
   0.49781012  0.50564320  0.00000768
   0.00218988  0.50564320  0.74999232
   0.99893634  0.00548466  0.00015789
   0.50106366  0.00548466  0.74984211
   0.49893634  0.50548466  0.50015789
   0.00106366  0.50548466  0.24984211
 
 position of ions in cartesian coordinates  (Angst):
   1.36063311  1.28176106  1.34017443
   3.96018489  3.91484739  1.39643882
   1.55132150  3.91401310  9.13127138
   4.17771250  1.30452134  9.20002138
   1.46986589  1.28176106  6.52591532
   4.12309611  3.91484739  6.60715093
   4.04164050  1.28092677  4.00179487
   1.41524950  3.93760767  3.93304487
   5.37735313  0.02971808  5.33550521
   2.70592787  0.02971808  2.66808454
   2.61489013  2.66280441  0.06852871
   0.21560887  2.66280441  7.79756104
   5.24723779  0.02888314  0.13899528
   2.83604321  0.02888314  7.86459447
   2.75691879  2.66196947  5.26847178
   0.07358021  2.66196947  2.59761797
 
 Euler angles ALPHA=     0.0000000  BETA=     0.0000000

 transformation matrix from SAXIS to cartesian coordinates
 ---------------------------------------------------------
     1.0000000 m_x     0.0000000 m_y     0.0000000 m_z
     0.0000000 m_x     1.0000000 m_y     0.0000000 m_z
     0.0000000 m_x     0.0000000 m_y     1.0000000 m_z

 transformation matrix from cartesian coordinates to SAXIS
 ---------------------------------------------------------
     1.0000000 m_x     0.0000000 m_y     0.0000000 m_z
     0.0000000 m_x     1.0000000 m_y     0.0000000 m_z
     0.0000000 m_x     0.0000000 m_y     1.0000000 m_z




--------------------------------------------------------------------------------------------------------


 k-point  1 :   0.0000 0.0000 0.0000  plane waves:   24142
 k-point  2 :   0.1667 0.0000-0.0000  plane waves:   24168
 k-point  3 :   0.3333 0.0000 0.0000  plane waves:   24186
 k-point  4 :   0.5000 0.0000-0.0000  plane waves:   24248
 k-point  5 :   0.0000 0.1667 0.0000  plane waves:   24202
 k-point  6 :   0.1667 0.1667-0.0000  plane waves:   24194
 k-point  7 :   0.3333 0.1667 0.0000  plane waves:   24168
 k-point  8 :   0.5000 0.1667-0.0000  plane waves:   24232
 k-point  9 :   0.0000 0.3333 0.0000  plane waves:   24194
 k-point 10 :   0.1667 0.3333-0.0000  plane waves:   24172
 k-point 11 :   0.3333 0.3333 0.0000  plane waves:   24156
 k-point 12 :   0.5000 0.3333-0.0000  plane waves:   24156
 k-point 13 :   0.0000 0.5000 0.0000  plane waves:   24244
 k-point 14 :   0.1667 0.5000-0.0000  plane waves:   24192
 k-point 15 :   0.3333 0.5000 0.0000  plane waves:   24128
 k-point 16 :   0.5000 0.5000-0.0000  plane waves:   24064
 k-point 17 :   0.0000-0.3333 0.0000  plane waves:   24194
 k-point 18 :   0.1667-0.3333-0.0000  plane waves:   24172
 k-point 19 :   0.3333-0.3333 0.0000  plane waves:   24156
 k-point 20 :   0.5000-0.3333-0.0000  plane waves:   24156
 k-point 21 :   0.0000-0.1667 0.0000  plane waves:   24202
 k-point 22 :   0.1667-0.1667-0.0000  plane waves:   24194
 k-point 23 :   0.3333-0.1667 0.0000  plane waves:   24168
 k-point 24 :   0.5000-0.1667-0.0000  plane waves:   24232
 k-point 25 :   0.0000 0.0000 0.3333  plane waves:   24194
 k-point 26 :   0.1667 0.0000 0.3333  plane waves:   24164
 k-point 27 :   0.3333 0.0000 0.3333  plane waves:   24200
 k-point 28 :   0.5000 0.0000 0.3333  plane waves:   24224
 k-point 29 :  -0.3333 0.0000 0.3333  plane waves:   24164
 k-point 30 :  -0.1667 0.0000 0.3333  plane waves:   24212
 k-point 31 :   0.0000 0.1667 0.3333  plane waves:   24196
 k-point 32 :   0.1667 0.1667 0.3333  plane waves:   24174
 k-point 33 :   0.3333 0.1667 0.3333  plane waves:   24196
 k-point 34 :   0.5000 0.1667 0.3333  plane waves:   24178
 k-point 35 :  -0.3333 0.1667 0.3333  plane waves:   24152
 k-point 36 :  -0.1667 0.1667 0.3333  plane waves:   24176
 k-point 37 :   0.0000 0.3333 0.3333  plane waves:   24170
 k-point 38 :   0.1667 0.3333 0.3333  plane waves:   24178
 k-point 39 :   0.3333 0.3333 0.3333  plane waves:   24140
 k-point 40 :   0.5000 0.3333 0.3333  plane waves:   24144
 k-point 41 :  -0.3333 0.3333 0.3333  plane waves:   24144
 k-point 42 :  -0.1667 0.3333 0.3333  plane waves:   24172
 k-point 43 :   0.0000 0.5000 0.3333  plane waves:   24208
 k-point 44 :   0.1667 0.5000 0.3333  plane waves:   24200
 k-point 45 :   0.3333 0.5000 0.3333  plane waves:   24104
 k-point 46 :   0.5000 0.5000 0.3333  plane waves:   24132
 k-point 47 :  -0.3333 0.5000 0.3333  plane waves:   24116
 k-point 48 :  -0.1667 0.5000 0.3333  plane waves:   24160
 k-point 49 :   0.0000-0.3333 0.3333  plane waves:   24170
 k-point 50 :   0.1667-0.3333 0.3333  plane waves:   24178
 k-point 51 :   0.3333-0.3333 0.3333  plane waves:   24140
 k-point 52 :   0.5000-0.3333 0.3333  plane waves:   24144
 k-point 53 :  -0.3333-0.3333 0.3333  plane waves:   24144
 k-point 54 :  -0.1667-0.3333 0.3333  plane waves:   24172
 k-point 55 :   0.0000-0.1667 0.3333  plane waves:   24196
 k-point 56 :   0.1667-0.1667 0.3333  plane waves:   24174
 k-point 57 :   0.3333-0.1667 0.3333  plane waves:   24196
 k-point 58 :   0.5000-0.1667 0.3333  plane waves:   24178
 k-point 59 :  -0.3333-0.1667 0.3333  plane waves:   24152
 k-point 60 :  -0.1667-0.1667 0.3333  plane waves:   24176

 maximum and minimum number of plane-waves per node :     24248    24064

 maximum number of plane-waves:     24248
 maximum index in each direction: 
   IXMAX=   11   IYMAX=   11   IZMAX=   22
   IXMIN=  -11   IYMIN=  -11   IZMIN=  -22


 serial   3D FFT for wavefunctions
 parallel 3D FFT for charge:
    minimum data exchange during FFTs selected (reduces bandwidth)


 total amount of memory used by VASP MPI-rank0   410429. kBytes
=======================================================================

   base      :      30000. kBytes
   nonl-proj :     321650. kBytes
   fftplans  :       2735. kBytes
   grid      :      30965. kBytes
   one-center:        995. kBytes
   wavefun   :      24084. kBytes
 
     INWAV:  cpu time   15.6454: real time   15.7878
 Broyden mixing: mesh for mixing (old mesh)
   NGX = 23   NGY = 23   NGZ = 45
  (NGX  = 96   NGY  = 96   NGZ  =180)
  gives a total of  23805 points

 initial charge density was supplied:
 number of electron     172.0000034 magnetization       0.0000000      0.0000029      0.0000000
 keeping initial charge density in first step


--------------------------------------------------------------------------------------------------------


 Maximum index for augmentation-charges          898 (set IRDMAX)


--------------------------------------------------------------------------------------------------------


 First call to EWALD:  gamma=   0.269
 Maximum number of real-space cells 3x 3x 2
 Maximum number of reciprocal cells 2x 2x 4

    FEWALD:  cpu time    0.0020: real time    0.0020


--------------------------------------- Iteration      1(   1)  ---------------------------------------


    POTLOK:  cpu time    0.2610: real time    0.2798
    SETDIJ:  cpu time    0.5931: real time    0.5951
     EDDAV:  cpu time   77.4274: real time   77.9181
 BZINTS: Fermi energy:  4.890097;172.000000 electrons
         Band energy:***********;  BLOECHL correction:  0.000000
       DOS:  cpu time    0.0399: real time    0.0401
    CHARGE:  cpu time    1.4643: real time    1.4761
    MIXING:  cpu time    0.0029: real time    0.0029
    --------------------------------------------
      LOOP:  cpu time   79.7887: real time   80.3122

 eigenvalue-minimisations  : 30720
 total energy-change (2. order) :-0.8218586E+02  (-0.1934831E+00)
 number of electron     172.0000034 magnetization       0.0000000      0.0002437      0.0000000
 augmentation part       70.5567732 magnetization       0.0000000     -0.0002562      0.0000000

 Broyden mixing:
  rms(total) = 0.79104E-01    rms(broyden)= 0.79104E-01
  rms(prec ) = 0.79168E-01
  weight for this iteration     100.00

 Free energy of the ion-electron system (eV)
  ---------------------------------------------------
  alpha Z        PSCENC =       589.60569823
  Ewald energy   TEWEN  =    -15624.63363385
  -Hartree energ DENC   =    -10734.26024652
  -exchange      EXHF   =         0.00000000
  -V(xc)+E(xc)   XCENC  =       821.63298981
  PAW double counting   =     28064.45549511   -28987.81490654
  entropy T*S    EENTRO =         0.00000000
  eigenvalues    EBANDS =     -2716.18753235
  atomic energy  EATOM  =     28505.01627691
  Solvation  Ediel_sol  =         0.00000000
  ---------------------------------------------------
  free energy    TOTEN  =       -82.18585921 eV

  energy without entropy =      -82.18585921  energy(sigma->0) =      -82.18585921


--------------------------------------------------------------------------------------------------------




--------------------------------------- Iteration      1(   2)  ---------------------------------------


    POTLOK:  cpu time    0.1291: real time    0.1309
    SETDIJ:  cpu time    0.5920: real time    0.5937
     EDDAV:  cpu time   80.7526: real time   81.1826
 BZINTS: Fermi energy:  4.998946;172.000000 electrons
         Band energy:***********;  BLOECHL correction:  0.000000
       DOS:  cpu time    0.0397: real time    0.0399
    CHARGE:  cpu time    1.4616: real time    1.4734
    MIXING:  cpu time    0.0019: real time    0.0166
    --------------------------------------------
      LOOP:  cpu time   82.9770: real time   83.4371

 eigenvalue-minimisations  : 30720
 total energy-change (2. order) :-0.8931920E-02  (-0.6535217E-02)
 number of electron     172.0000034 magnetization       0.0000000      0.0002897      0.0000000
 augmentation part       70.5573935 magnetization       0.0000000     -0.0002072      0.0000000

 Broyden mixing:
  rms(total) = 0.47385E-01    rms(broyden)= 0.47385E-01
  rms(prec ) = 0.47698E-01
  weight for this iteration     100.00

 eigenvalues of (default mixing * dielectric matrix)
  average eigenvalue GAMMA=   0.6354
  0.6354

 Free energy of the ion-electron system (eV)
  ---------------------------------------------------
  alpha Z        PSCENC =       589.60569823
  Ewald energy   TEWEN  =    -15624.63363385
  -Hartree energ DENC   =    -10733.98497996
  -exchange      EXHF   =         0.00000000
  -V(xc)+E(xc)   XCENC  =       821.61924048
  PAW double counting   =     28065.31337369   -28988.64818627
  entropy T*S    EENTRO =         0.00000000
  eigenvalues    EBANDS =     -2716.48258036
  atomic energy  EATOM  =     28505.01627691
  Solvation  Ediel_sol  =         0.00000000
  ---------------------------------------------------
  free energy    TOTEN  =       -82.19479113 eV

  energy without entropy =      -82.19479113  energy(sigma->0) =      -82.19479113


--------------------------------------------------------------------------------------------------------




--------------------------------------- Iteration      1(   3)  ---------------------------------------


    POTLOK:  cpu time    0.1312: real time    0.1320
    SETDIJ:  cpu time    0.5920: real time    0.5938
     EDDAV:  cpu time  333.7951: real time  336.0341
 BZINTS: Fermi energy:  4.909680;172.000000 electrons
         Band energy:***********;  BLOECHL correction:  0.000000
       DOS:  cpu time    0.0342: real time    0.0344
    CHARGE:  cpu time    1.4706: real time    1.4997
    MIXING:  cpu time    0.0025: real time    0.1334
    --------------------------------------------
      LOOP:  cpu time  336.0257: real time  338.4274

 eigenvalue-minimisations  : 57344
 total energy-change (2. order) :-0.1160112E-02  (-0.1721692E-02)
 number of electron     172.0000034 magnetization       0.0000000      0.0004216      0.0000000
 augmentation part       70.5585741 magnetization       0.0000000     -0.0006102      0.0000000

 Broyden mixing:
  rms(total) = 0.14354E-01    rms(broyden)= 0.14353E-01
  rms(prec ) = 0.15446E-01
  weight for this iteration     100.00

 eigenvalues of (default mixing * dielectric matrix)
  average eigenvalue GAMMA=   0.5885
  0.6660  0.5110

 Free energy of the ion-electron system (eV)
  ---------------------------------------------------
  alpha Z        PSCENC =       589.60569823
  Ewald energy   TEWEN  =    -15624.63363385
  -Hartree energ DENC   =    -10734.15831562
  -exchange      EXHF   =         0.00000000
  -V(xc)+E(xc)   XCENC  =       821.62806526
  PAW double counting   =     28066.04865826   -28989.40221494
  entropy T*S    EENTRO =         0.00000000
  eigenvalues    EBANDS =     -2716.30048549
  atomic energy  EATOM  =     28505.01627691
  Solvation  Ediel_sol  =         0.00000000
  ---------------------------------------------------
  free energy    TOTEN  =       -82.19595124 eV

  energy without entropy =      -82.19595124  energy(sigma->0) =      -82.19595124


--------------------------------------------------------------------------------------------------------




--------------------------------------- Iteration      1(   4)  ---------------------------------------


    POTLOK:  cpu time    0.1319: real time    0.1379
    SETDIJ:  cpu time    0.5921: real time    0.5937
     EDDAV:  cpu time   86.6151: real time   87.0796
 BZINTS: Fermi energy:  4.893067;172.000000 electrons
         Band energy:***********;  BLOECHL correction:  0.000000
       DOS:  cpu time    0.0343: real time    0.0344
    CHARGE:  cpu time    1.4718: real time    1.4838
    MIXING:  cpu time    0.0019: real time    0.0107
    --------------------------------------------
      LOOP:  cpu time   88.8471: real time   89.3401

 eigenvalue-minimisations  : 31488
 total energy-change (2. order) :-0.2609067E-04  (-0.2846567E-02)
 number of electron     172.0000034 magnetization      -0.0000000      0.0001020      0.0000000
 augmentation part       70.5574432 magnetization      -0.0000000      0.0005423      0.0000000

 Broyden mixing:
  rms(total) = 0.14024E-01    rms(broyden)= 0.14024E-01
  rms(prec ) = 0.14635E-01
  weight for this iteration     100.00

 eigenvalues of (default mixing * dielectric matrix)
  average eigenvalue GAMMA=   0.7546
  1.3523  0.6265  0.2850

 Free energy of the ion-electron system (eV)
  ---------------------------------------------------
  alpha Z        PSCENC =       589.60569823
  Ewald energy   TEWEN  =    -15624.63363385
  -Hartree energ DENC   =    -10733.99423179
  -exchange      EXHF   =         0.00000000
  -V(xc)+E(xc)   XCENC  =       821.61724771
  PAW double counting   =     28066.53346719   -28989.89298829
  entropy T*S    EENTRO =         0.00000000
  eigenvalues    EBANDS =     -2716.44781343
  atomic energy  EATOM  =     28505.01627691
  Solvation  Ediel_sol  =         0.00000000
  ---------------------------------------------------
  free energy    TOTEN  =       -82.19597733 eV

  energy without entropy =      -82.19597733  energy(sigma->0) =      -82.19597733


--------------------------------------------------------------------------------------------------------




--------------------------------------- Iteration      1(   5)  ---------------------------------------


    POTLOK:  cpu time    0.1307: real time    0.1316
    SETDIJ:  cpu time    0.5918: real time    0.5936
     EDDAV:  cpu time  345.7774: real time  347.4422
 BZINTS: Fermi energy:  4.884609;172.000000 electrons
         Band energy:***********;  BLOECHL correction:  0.000000
       DOS:  cpu time    0.0345: real time    0.0346
 


 total charge     
 
# of ion       s       p       d       tot
------------------------------------------
    1        1.314   2.409   0.000   3.723
    2        1.314   2.409   0.000   3.723
    3        1.315   2.406   0.000   3.721
    4        1.313   2.412   0.000   3.725
    5        1.314   2.409   0.000   3.723
    6        1.314   2.409   0.000   3.723
    7        1.315   2.406   0.000   3.721
    8        1.313   2.412   0.000   3.725
    9        0.260   6.203   8.917  15.379
   10        0.260   6.203   8.917  15.379
   11        0.260   6.203   8.917  15.379
   12        0.260   6.203   8.917  15.379
   13        0.349   6.350   5.822  12.521
   14        0.349   6.350   5.822  12.521
   15        0.349   6.350   5.822  12.521
   16        0.349   6.350   5.822  12.521
--------------------------------------------------
tot         12.946  69.484  58.954 141.385
 


 magnetization (x)
 
# of ion       s       p       d       tot
------------------------------------------
    1       -0.000  -0.000   0.000  -0.000
    2        0.000  -0.000   0.000   0.000
    3       -0.000  -0.000   0.000  -0.000
    4       -0.000  -0.000   0.000  -0.000
    5        0.000  -0.000   0.000   0.000
    6       -0.000  -0.000   0.000  -0.000
    7       -0.000  -0.000   0.000  -0.000
    8       -0.000  -0.000   0.000  -0.000
    9        0.000  -0.000   0.000   0.000
   10        0.000   0.000  -0.000  -0.000
   11        0.000  -0.000   0.000   0.000
   12        0.000   0.000  -0.000  -0.000
   13        0.000   0.000   0.000   0.000
   14       -0.000  -0.000  -0.000  -0.000
   15        0.000   0.000   0.000   0.000
   16       -0.000  -0.000  -0.000  -0.000
--------------------------------------------------
tot         -0.000  -0.000  -0.000  -0.001
 


 magnetization (y)
 
# of ion       s       p       d       tot
------------------------------------------
    1       -0.000  -0.000   0.000  -0.000
    2       -0.000  -0.000   0.000  -0.000
    3       -0.000  -0.000   0.000  -0.000
    4        0.000  -0.000   0.000  -0.000
    5       -0.000  -0.000   0.000  -0.000
    6       -0.000  -0.000   0.000  -0.000
    7       -0.000  -0.000   0.000  -0.000
    8        0.000  -0.000   0.000  -0.000
    9       -0.000  -0.000  -0.000  -0.000
   10       -0.000  -0.000   0.000   0.000
   11       -0.000  -0.000  -0.000  -0.000
   12       -0.000  -0.000   0.000   0.000
   13        0.000   0.000  -0.000   0.000
   14        0.000   0.000  -0.000  -0.000
   15        0.000   0.000  -0.000   0.000
   16        0.000   0.000  -0.000  -0.000
--------------------------------------------------
tot         -0.000  -0.001  -0.001  -0.002
 


 magnetization (z)
 
# of ion       s       p       d       tot
------------------------------------------
    1       -0.000  -0.013   0.000  -0.013
    2        0.000   0.013   0.000   0.013
    3        0.000   0.000   0.000   0.000
    4       -0.000  -0.000   0.000  -0.000
    5        0.000   0.013   0.000   0.013
    6       -0.000  -0.013   0.000  -0.013
    7        0.000   0.000   0.000   0.000
    8       -0.000  -0.000   0.000  -0.000
    9        0.000   0.001  -0.002  -0.001
   10       -0.000  -0.001   0.002   0.001
   11        0.000   0.001  -0.002  -0.001
   12       -0.000  -0.001   0.002   0.001
   13        0.020   0.054   3.665   3.739
   14       -0.020  -0.054  -3.665  -3.739
   15        0.020   0.054   3.665   3.739
   16       -0.020  -0.054  -3.665  -3.739
--------------------------------------------------
tot         -0.000  -0.000   0.000   0.000
 
    CHARGE:  cpu time    1.6545: real time    1.6669
    MIXING:  cpu time    0.0017: real time    0.0017
    --------------------------------------------
      LOOP:  cpu time  348.1908: real time  349.8707

 eigenvalue-minimisations  : 57856
 total energy-change (2. order) :-0.3819553E-03  (-0.2627278E-02)
 number of electron     172.0000034 magnetization      -0.0000000      0.0001479      0.0000000
 augmentation part       70.5582389 magnetization      -0.0000000     -0.0010004      0.0000000

 Broyden mixing:
  rms(total) = 0.78266E-02    rms(broyden)= 0.78264E-02
  rms(prec ) = 0.81085E-02
  weight for this iteration     100.00

 eigenvalues of (default mixing * dielectric matrix)
  average eigenvalue GAMMA=   0.7160
  1.5734  0.6307  0.3746  0.2851

 Free energy of the ion-electron system (eV)
  ---------------------------------------------------
  alpha Z        PSCENC =       589.60569823
  Ewald energy   TEWEN  =    -15624.63363385
  -Hartree energ DENC   =    -10734.01925898
  -exchange      EXHF   =         0.00000000
  -V(xc)+E(xc)   XCENC  =       821.61551771
  PAW double counting   =     28067.74985653   -28991.11892053
  entropy T*S    EENTRO =         0.00000000
  eigenvalues    EBANDS =     -2716.41189530
  atomic energy  EATOM  =     28505.01627691
  Solvation  Ediel_sol  =         0.00000000
  ---------------------------------------------------
  free energy    TOTEN  =       -82.19635929 eV

  energy without entropy =      -82.19635929  energy(sigma->0) =      -82.19635929


--------------------------------------------------------------------------------------------------------




--------------------------------------- Iteration      1(   6)  ---------------------------------------


    POTLOK:  cpu time    0.1307: real time    0.1315
    SETDIJ:  cpu time    0.5922: real time    0.5940
     EDDAV:  cpu time   86.2626: real time   86.7175
 BZINTS: Fermi energy:  4.884261;172.000000 electrons
         Band energy:***********;  BLOECHL correction:  0.000000
       DOS:  cpu time    0.0345: real time    0.0346
    CHARGE:  cpu time    1.4668: real time    1.4788
    MIXING:  cpu time    0.0019: real time    0.0019
    --------------------------------------------
      LOOP:  cpu time   88.4886: real time   88.9583

 eigenvalue-minimisations  : 31232
 total energy-change (2. order) : 0.2086409E-03  (-0.1999547E-02)
 number of electron     172.0000034 magnetization       0.0000000     -0.0001627      0.0000000
 augmentation part       70.5581183 magnetization       0.0000000      0.0005511      0.0000000

 Broyden mixing:
  rms(total) = 0.55765E-02    rms(broyden)= 0.55764E-02
  rms(prec ) = 0.55815E-02
  weight for this iteration     100.00

 eigenvalues of (default mixing * dielectric matrix)
  average eigenvalue GAMMA=   0.7668
  1.8751  0.8116  0.6209  0.3074  0.2189

 Free energy of the ion-electron system (eV)
  ---------------------------------------------------
  alpha Z        PSCENC =       589.60569823
  Ewald energy   TEWEN  =    -15624.63363385
  -Hartree energ DENC   =    -10734.07407341
  -exchange      EXHF   =         0.00000000
  -V(xc)+E(xc)   XCENC  =       821.61831201
  PAW double counting   =     28068.12179172   -28991.49471201
  entropy T*S    EENTRO =         0.00000000
  eigenvalues    EBANDS =     -2716.35581024
  atomic energy  EATOM  =     28505.01627691
  Solvation  Ediel_sol  =         0.00000000
  ---------------------------------------------------
  free energy    TOTEN  =       -82.19615065 eV

  energy without entropy =      -82.19615065  energy(sigma->0) =      -82.19615065


--------------------------------------------------------------------------------------------------------




--------------------------------------- Iteration      1(   7)  ---------------------------------------


    POTLOK:  cpu time    0.1309: real time    0.1317
    SETDIJ:  cpu time    0.5919: real time    0.5938
     EDDAV:  cpu time  218.0338: real time  219.1027
 BZINTS: Fermi energy:  4.883448;172.000000 electrons
         Band energy:***********;  BLOECHL correction:  0.000000
       DOS:  cpu time    0.0347: real time    0.0348
    CHARGE:  cpu time    1.4632: real time    1.4750
    MIXING:  cpu time    0.0022: real time    0.0170
    --------------------------------------------
      LOOP:  cpu time  220.2566: real time  221.3549

 eigenvalue-minimisations  : 44544
 total energy-change (2. order) :-0.3768568E-05  (-0.8589241E-03)
 number of electron     172.0000034 magnetization       0.0000000     -0.0003016      0.0000000
 augmentation part       70.5576814 magnetization       0.0000000     -0.0007861      0.0000000

 Broyden mixing:
  rms(total) = 0.29375E-02    rms(broyden)= 0.29375E-02
  rms(prec ) = 0.29644E-02
  weight for this iteration     100.00

 eigenvalues of (default mixing * dielectric matrix)
  average eigenvalue GAMMA=   0.7197
  1.9531  0.9182  0.6220  0.3037  0.3037  0.2174

 Free energy of the ion-electron system (eV)
  ---------------------------------------------------
  alpha Z        PSCENC =       589.60569823
  Ewald energy   TEWEN  =    -15624.63363385
  -Hartree energ DENC   =    -10734.09401062
  -exchange      EXHF   =         0.00000000
  -V(xc)+E(xc)   XCENC  =       821.61869611
  PAW double counting   =     28068.39981429   -28991.77450956
  entropy T*S    EENTRO =         0.00000000
  eigenvalues    EBANDS =     -2716.33448592
  atomic energy  EATOM  =     28505.01627691
  Solvation  Ediel_sol  =         0.00000000
  ---------------------------------------------------
  free energy    TOTEN  =       -82.19615442 eV

  energy without entropy =      -82.19615442  energy(sigma->0) =      -82.19615442


--------------------------------------------------------------------------------------------------------




--------------------------------------- Iteration      1(   8)  ---------------------------------------


    POTLOK:  cpu time    0.1315: real time    0.1323
    SETDIJ:  cpu time    0.5927: real time    0.5944
     EDDAV:  cpu time   88.3168: real time   88.7833
 BZINTS: Fermi energy:  4.882783;172.000000 electrons
         Band energy:***********;  BLOECHL correction:  0.000000
       DOS:  cpu time    0.0346: real time    0.0348
    CHARGE:  cpu time    1.4622: real time    1.4742
    MIXING:  cpu time    0.0022: real time    0.0022
    --------------------------------------------
      LOOP:  cpu time   90.5401: real time   91.0211

 eigenvalue-minimisations  : 31488
 total energy-change (2. order) :-0.1275807E-03  (-0.6125835E-03)
 number of electron     172.0000034 magnetization       0.0000000     -0.0004679      0.0000000
 augmentation part       70.5578136 magnetization       0.0000000      0.0001054      0.0000000

 Broyden mixing:
  rms(total) = 0.29049E-02    rms(broyden)= 0.29049E-02
  rms(prec ) = 0.29070E-02
  weight for this iteration     100.00

 eigenvalues of (default mixing * dielectric matrix)
  average eigenvalue GAMMA=   0.7046
  2.0578  1.0663  0.6213  0.4977  0.3073  0.2205  0.1614

 Free energy of the ion-electron system (eV)
  ---------------------------------------------------
  alpha Z        PSCENC =       589.60569823
  Ewald energy   TEWEN  =    -15624.63363385
  -Hartree energ DENC   =    -10734.08076909
  -exchange      EXHF   =         0.00000000
  -V(xc)+E(xc)   XCENC  =       821.61802576
  PAW double counting   =     28068.40642409   -28991.77951447
  entropy T*S    EENTRO =         0.00000000
  eigenvalues    EBANDS =     -2716.34878958
  atomic energy  EATOM  =     28505.01627691
  Solvation  Ediel_sol  =         0.00000000
  ---------------------------------------------------
  free energy    TOTEN  =       -82.19628200 eV

  energy without entropy =      -82.19628200  energy(sigma->0) =      -82.19628200


--------------------------------------------------------------------------------------------------------




--------------------------------------- Iteration      1(   9)  ---------------------------------------


    POTLOK:  cpu time    0.1319: real time    0.1329
    SETDIJ:  cpu time    0.5910: real time    0.5933
     EDDAV:  cpu time  194.5016: real time  195.4620
 BZINTS: Fermi energy:  4.882777;172.000000 electrons
         Band energy:***********;  BLOECHL correction:  0.000000
       DOS:  cpu time    0.0347: real time    0.0349
    CHARGE:  cpu time    1.4606: real time    1.4729
    MIXING:  cpu time    0.0022: real time    0.0022
    --------------------------------------------
      LOOP:  cpu time  196.7221: real time  197.6983

 eigenvalue-minimisations  : 42240
 total energy-change (2. order) : 0.7102619E-04  (-0.2438923E-03)
 number of electron     172.0000034 magnetization       0.0000000     -0.0006327      0.0000000
 augmentation part       70.5579547 magnetization       0.0000000     -0.0005938      0.0000000

 Broyden mixing:
  rms(total) = 0.13049E-02    rms(broyden)= 0.13049E-02
  rms(prec ) = 0.13210E-02
  weight for this iteration     100.00

 eigenvalues of (default mixing * dielectric matrix)
  average eigenvalue GAMMA=   0.6899
  2.1646  1.1734  0.6077  0.6077  0.2955  0.2955  0.2267  0.1481

 Free energy of the ion-electron system (eV)
  ---------------------------------------------------
  alpha Z        PSCENC =       589.60569823
  Ewald energy   TEWEN  =    -15624.63363385
  -Hartree energ DENC   =    -10734.07180993
  -exchange      EXHF   =         0.00000000
  -V(xc)+E(xc)   XCENC  =       821.61758265
  PAW double counting   =     28068.39190094   -28991.76380471
  entropy T*S    EENTRO =         0.00000000
  eigenvalues    EBANDS =     -2716.35842121
  atomic energy  EATOM  =     28505.01627691
  Solvation  Ediel_sol  =         0.00000000
  ---------------------------------------------------
  free energy    TOTEN  =       -82.19621097 eV

  energy without entropy =      -82.19621097  energy(sigma->0) =      -82.19621097


--------------------------------------------------------------------------------------------------------




--------------------------------------- Iteration      1(  10)  ---------------------------------------


    POTLOK:  cpu time    0.1323: real time    0.1335
    SETDIJ:  cpu time    0.5922: real time    0.5940
     EDDAV:  cpu time  111.9477: real time  112.5254
 BZINTS: Fermi energy:  4.883042;172.000000 electrons
         Band energy:***********;  BLOECHL correction:  0.000000
       DOS:  cpu time    0.0346: real time    0.0347
 


 total charge     
 
# of ion       s       p       d       tot
------------------------------------------
    1        1.314   2.409   0.000   3.723
    2        1.314   2.409   0.000   3.723
    3        1.315   2.406   0.000   3.721
    4        1.313   2.412   0.000   3.725
    5        1.314   2.409   0.000   3.723
    6        1.314   2.409   0.000   3.723
    7        1.315   2.406   0.000   3.721
    8        1.313   2.412   0.000   3.725
    9        0.260   6.202   8.916  15.378
   10        0.260   6.202   8.916  15.378
[...]
     0.0000000     0.0000000     0.0000000     0.0000000     0.0000000     0.0000000     0.0000000

 Ion:    5  E_soc:     -0.0017380
 l=   1
     0.0000000    -0.0002482    -0.0003674
    -0.0002482     0.0000000    -0.0002535
    -0.0003674    -0.0002535     0.0000000
 l=   2
     0.0000000     0.0000000     0.0000000     0.0000000     0.0000000
     0.0000000     0.0000000     0.0000000     0.0000000     0.0000000
     0.0000000     0.0000000     0.0000000     0.0000000     0.0000000
     0.0000000     0.0000000     0.0000000     0.0000000     0.0000000
     0.0000000     0.0000000     0.0000000     0.0000000     0.0000000
 l=   3
     0.0000000     0.0000000     0.0000000     0.0000000     0.0000000     0.0000000     0.0000000
     0.0000000     0.0000000     0.0000000     0.0000000     0.0000000     0.0000000     0.0000000
     0.0000000     0.0000000     0.0000000     0.0000000     0.0000000     0.0000000     0.0000000
     0.0000000     0.0000000     0.0000000     0.0000000     0.0000000     0.0000000     0.0000000
     0.0000000     0.0000000     0.0000000     0.0000000     0.0000000     0.0000000     0.0000000
     0.0000000     0.0000000     0.0000000     0.0000000     0.0000000     0.0000000     0.0000000
     0.0000000     0.0000000     0.0000000     0.0000000     0.0000000     0.0000000     0.0000000

 Ion:    6  E_soc:     -0.0017380
 l=   1
     0.0000000    -0.0002482    -0.0003674
    -0.0002482     0.0000000    -0.0002535
    -0.0003674    -0.0002535     0.0000000
 l=   2
     0.0000000     0.0000000     0.0000000     0.0000000     0.0000000
     0.0000000     0.0000000     0.0000000     0.0000000     0.0000000
     0.0000000     0.0000000     0.0000000     0.0000000     0.0000000
     0.0000000     0.0000000     0.0000000     0.0000000     0.0000000
     0.0000000     0.0000000     0.0000000     0.0000000     0.0000000
 l=   3
     0.0000000     0.0000000     0.0000000     0.0000000     0.0000000     0.0000000     0.0000000
     0.0000000     0.0000000     0.0000000     0.0000000     0.0000000     0.0000000     0.0000000
     0.0000000     0.0000000     0.0000000     0.0000000     0.0000000     0.0000000     0.0000000
     0.0000000     0.0000000     0.0000000     0.0000000     0.0000000     0.0000000     0.0000000
     0.0000000     0.0000000     0.0000000     0.0000000     0.0000000     0.0000000     0.0000000
     0.0000000     0.0000000     0.0000000     0.0000000     0.0000000     0.0000000     0.0000000
     0.0000000     0.0000000     0.0000000     0.0000000     0.0000000     0.0000000     0.0000000

 Ion:    7  E_soc:     -0.0017630
 l=   1
     0.0000000    -0.0002528    -0.0003807
    -0.0002528     0.0000000    -0.0002480
    -0.0003807    -0.0002480     0.0000000
 l=   2
     0.0000000     0.0000000     0.0000000     0.0000000     0.0000000
     0.0000000     0.0000000     0.0000000     0.0000000     0.0000000
     0.0000000     0.0000000     0.0000000     0.0000000     0.0000000
     0.0000000     0.0000000     0.0000000     0.0000000     0.0000000
     0.0000000     0.0000000     0.0000000     0.0000000     0.0000000
 l=   3
     0.0000000     0.0000000     0.0000000     0.0000000     0.0000000     0.0000000     0.0000000
     0.0000000     0.0000000     0.0000000     0.0000000     0.0000000     0.0000000     0.0000000
     0.0000000     0.0000000     0.0000000     0.0000000     0.0000000     0.0000000     0.0000000
     0.0000000     0.0000000     0.0000000     0.0000000     0.0000000     0.0000000     0.0000000
     0.0000000     0.0000000     0.0000000     0.0000000     0.0000000     0.0000000     0.0000000
     0.0000000     0.0000000     0.0000000     0.0000000     0.0000000     0.0000000     0.0000000
     0.0000000     0.0000000     0.0000000     0.0000000     0.0000000     0.0000000     0.0000000

 Ion:    8  E_soc:     -0.0017089
 l=   1
     0.0000000    -0.0002532    -0.0003531
    -0.0002532     0.0000000    -0.0002482
    -0.0003531    -0.0002482     0.0000000
 l=   2
     0.0000000     0.0000000     0.0000000     0.0000000     0.0000000
     0.0000000     0.0000000     0.0000000     0.0000000     0.0000000
     0.0000000     0.0000000     0.0000000     0.0000000     0.0000000
     0.0000000     0.0000000     0.0000000     0.0000000     0.0000000
     0.0000000     0.0000000     0.0000000     0.0000000     0.0000000
 l=   3
     0.0000000     0.0000000     0.0000000     0.0000000     0.0000000     0.0000000     0.0000000
     0.0000000     0.0000000     0.0000000     0.0000000     0.0000000     0.0000000     0.0000000
     0.0000000     0.0000000     0.0000000     0.0000000     0.0000000     0.0000000     0.0000000
     0.0000000     0.0000000     0.0000000     0.0000000     0.0000000     0.0000000     0.0000000
     0.0000000     0.0000000     0.0000000     0.0000000     0.0000000     0.0000000     0.0000000
     0.0000000     0.0000000     0.0000000     0.0000000     0.0000000     0.0000000     0.0000000
     0.0000000     0.0000000     0.0000000     0.0000000     0.0000000     0.0000000     0.0000000

 Ion:    9  E_soc:     -0.0618340
 l=   1
     0.0000000    -0.0085619    -0.0085510
    -0.0085619     0.0000000    -0.0085621
    -0.0085510    -0.0085621     0.0000000
 l=   2
     0.0000000    -0.0004017     0.0000000    -0.0004003    -0.0013495
    -0.0004017     0.0000000    -0.0010639    -0.0002941    -0.0003380
     0.0000000    -0.0010639     0.0000000    -0.0010584     0.0000000
    -0.0004003    -0.0002941    -0.0010584     0.0000000    -0.0003362
    -0.0013495    -0.0003380     0.0000000    -0.0003362     0.0000000
 l=   3
     0.0000000     0.0000000     0.0000000     0.0000000     0.0000000     0.0000000     0.0000000
     0.0000000     0.0000000     0.0000000     0.0000000     0.0000000     0.0000000     0.0000000
     0.0000000     0.0000000     0.0000000     0.0000000     0.0000000     0.0000000     0.0000000
     0.0000000     0.0000000     0.0000000     0.0000000     0.0000000     0.0000000     0.0000000
     0.0000000     0.0000000     0.0000000     0.0000000     0.0000000     0.0000000     0.0000000
     0.0000000     0.0000000     0.0000000     0.0000000     0.0000000     0.0000000     0.0000000
     0.0000000     0.0000000     0.0000000     0.0000000     0.0000000     0.0000000     0.0000000

 Ion:   10  E_soc:     -0.0618340
 l=   1
     0.0000000    -0.0085619    -0.0085510
    -0.0085619     0.0000000    -0.0085621
    -0.0085510    -0.0085621     0.0000000
 l=   2
     0.0000000    -0.0004017     0.0000000    -0.0004003    -0.0013495
    -0.0004017     0.0000000    -0.0010639    -0.0002941    -0.0003380
     0.0000000    -0.0010639     0.0000000    -0.0010584     0.0000000
    -0.0004003    -0.0002941    -0.0010584     0.0000000    -0.0003362
    -0.0013495    -0.0003380     0.0000000    -0.0003362     0.0000000
 l=   3
     0.0000000     0.0000000     0.0000000     0.0000000     0.0000000     0.0000000     0.0000000
     0.0000000     0.0000000     0.0000000     0.0000000     0.0000000     0.0000000     0.0000000
     0.0000000     0.0000000     0.0000000     0.0000000     0.0000000     0.0000000     0.0000000
     0.0000000     0.0000000     0.0000000     0.0000000     0.0000000     0.0000000     0.0000000
     0.0000000     0.0000000     0.0000000     0.0000000     0.0000000     0.0000000     0.0000000
     0.0000000     0.0000000     0.0000000     0.0000000     0.0000000     0.0000000     0.0000000
     0.0000000     0.0000000     0.0000000     0.0000000     0.0000000     0.0000000     0.0000000

 Ion:   11  E_soc:     -0.0618340
 l=   1
     0.0000000    -0.0085619    -0.0085510
    -0.0085619     0.0000000    -0.0085621
    -0.0085510    -0.0085621     0.0000000
 l=   2
     0.0000000    -0.0004017     0.0000000    -0.0004003    -0.0013495
    -0.0004017     0.0000000    -0.0010639    -0.0002941    -0.0003380
     0.0000000    -0.0010639     0.0000000    -0.0010584     0.0000000
    -0.0004003    -0.0002941    -0.0010584     0.0000000    -0.0003362
    -0.0013495    -0.0003380     0.0000000    -0.0003362     0.0000000
 l=   3
     0.0000000     0.0000000     0.0000000     0.0000000     0.0000000     0.0000000     0.0000000
     0.0000000     0.0000000     0.0000000     0.0000000     0.0000000     0.0000000     0.0000000
     0.0000000     0.0000000     0.0000000     0.0000000     0.0000000     0.0000000     0.0000000
     0.0000000     0.0000000     0.0000000     0.0000000     0.0000000     0.0000000     0.0000000
     0.0000000     0.0000000     0.0000000     0.0000000     0.0000000     0.0000000     0.0000000
     0.0000000     0.0000000     0.0000000     0.0000000     0.0000000     0.0000000     0.0000000
     0.0000000     0.0000000     0.0000000     0.0000000     0.0000000     0.0000000     0.0000000

 Ion:   12  E_soc:     -0.0618340
 l=   1
     0.0000000    -0.0085619    -0.0085510
    -0.0085619     0.0000000    -0.0085621
    -0.0085510    -0.0085621     0.0000000
 l=   2
     0.0000000    -0.0004017     0.0000000    -0.0004003    -0.0013495
    -0.0004017     0.0000000    -0.0010639    -0.0002941    -0.0003380
     0.0000000    -0.0010639     0.0000000    -0.0010584     0.0000000
    -0.0004003    -0.0002941    -0.0010584     0.0000000    -0.0003362
    -0.0013495    -0.0003380     0.0000000    -0.0003362     0.0000000
 l=   3
     0.0000000     0.0000000     0.0000000     0.0000000     0.0000000     0.0000000     0.0000000
     0.0000000     0.0000000     0.0000000     0.0000000     0.0000000     0.0000000     0.0000000
     0.0000000     0.0000000     0.0000000     0.0000000     0.0000000     0.0000000     0.0000000
     0.0000000     0.0000000     0.0000000     0.0000000     0.0000000     0.0000000     0.0000000
     0.0000000     0.0000000     0.0000000     0.0000000     0.0000000     0.0000000     0.0000000
     0.0000000     0.0000000     0.0000000     0.0000000     0.0000000     0.0000000     0.0000000
     0.0000000     0.0000000     0.0000000     0.0000000     0.0000000     0.0000000     0.0000000

 Ion:   13  E_soc:     -0.0364051
 l=   1
     0.0000000    -0.0042789    -0.0043113
    -0.0042789     0.0000000    -0.0042784
    -0.0043113    -0.0042784     0.0000000
 l=   2
     0.0000000    -0.0003497     0.0000000    -0.0003506    -0.0008667
    -0.0003497     0.0000000    -0.0013052    -0.0002964    -0.0004277
     0.0000000    -0.0013052     0.0000000    -0.0013081     0.0000000
    -0.0003506    -0.0002964    -0.0013081     0.0000000    -0.0004295
    -0.0008667    -0.0004277     0.0000000    -0.0004295     0.0000000
 l=   3
     0.0000000     0.0000000     0.0000000     0.0000000     0.0000000     0.0000000     0.0000000
     0.0000000     0.0000000     0.0000000     0.0000000     0.0000000     0.0000000     0.0000000
     0.0000000     0.0000000     0.0000000     0.0000000     0.0000000     0.0000000     0.0000000
     0.0000000     0.0000000     0.0000000     0.0000000     0.0000000     0.0000000     0.0000000
     0.0000000     0.0000000     0.0000000     0.0000000     0.0000000     0.0000000     0.0000000
     0.0000000     0.0000000     0.0000000     0.0000000     0.0000000     0.0000000     0.0000000
     0.0000000     0.0000000     0.0000000     0.0000000     0.0000000     0.0000000     0.0000000

 Ion:   14  E_soc:     -0.0364051
 l=   1
     0.0000000    -0.0042789    -0.0043113
    -0.0042789     0.0000000    -0.0042784
    -0.0043113    -0.0042784     0.0000000
 l=   2
     0.0000000    -0.0003497     0.0000000    -0.0003506    -0.0008667
    -0.0003497     0.0000000    -0.0013052    -0.0002964    -0.0004277
     0.0000000    -0.0013052     0.0000000    -0.0013081     0.0000000
    -0.0003506    -0.0002964    -0.0013081     0.0000000    -0.0004295
    -0.0008667    -0.0004277     0.0000000    -0.0004295     0.0000000
 l=   3
     0.0000000     0.0000000     0.0000000     0.0000000     0.0000000     0.0000000     0.0000000
     0.0000000     0.0000000     0.0000000     0.0000000     0.0000000     0.0000000     0.0000000
     0.0000000     0.0000000     0.0000000     0.0000000     0.0000000     0.0000000     0.0000000
     0.0000000     0.0000000     0.0000000     0.0000000     0.0000000     0.0000000     0.0000000
     0.0000000     0.0000000     0.0000000     0.0000000     0.0000000     0.0000000     0.0000000
     0.0000000     0.0000000     0.0000000     0.0000000     0.0000000     0.0000000     0.0000000
     0.0000000     0.0000000     0.0000000     0.0000000     0.0000000     0.0000000     0.0000000

 Ion:   15  E_soc:     -0.0364051
 l=   1
     0.0000000    -0.0042789    -0.0043113
    -0.0042789     0.0000000    -0.0042784
    -0.0043113    -0.0042784     0.0000000
 l=   2
     0.0000000    -0.0003497     0.0000000    -0.0003506    -0.0008667
    -0.0003497     0.0000000    -0.0013052    -0.0002964    -0.0004277
     0.0000000    -0.0013052     0.0000000    -0.0013081     0.0000000
    -0.0003506    -0.0002964    -0.0013081     0.0000000    -0.0004295
    -0.0008667    -0.0004277     0.0000000    -0.0004295     0.0000000
 l=   3
     0.0000000     0.0000000     0.0000000     0.0000000     0.0000000     0.0000000     0.0000000
     0.0000000     0.0000000     0.0000000     0.0000000     0.0000000     0.0000000     0.0000000
     0.0000000     0.0000000     0.0000000     0.0000000     0.0000000     0.0000000     0.0000000
     0.0000000     0.0000000     0.0000000     0.0000000     0.0000000     0.0000000     0.0000000
     0.0000000     0.0000000     0.0000000     0.0000000     0.0000000     0.0000000     0.0000000
     0.0000000     0.0000000     0.0000000     0.0000000     0.0000000     0.0000000     0.0000000
     0.0000000     0.0000000     0.0000000     0.0000000     0.0000000     0.0000000     0.0000000

 Ion:   16  E_soc:     -0.0364051
 l=   1
     0.0000000    -0.0042789    -0.0043113
    -0.0042789     0.0000000    -0.0042784
    -0.0043113    -0.0042784     0.0000000
 l=   2
     0.0000000    -0.0003497     0.0000000    -0.0003506    -0.0008667
    -0.0003497     0.0000000    -0.0013052    -0.0002964    -0.0004277
     0.0000000    -0.0013052     0.0000000    -0.0013081     0.0000000
    -0.0003506    -0.0002964    -0.0013081     0.0000000    -0.0004295
    -0.0008667    -0.0004277     0.0000000    -0.0004295     0.0000000
 l=   3
     0.0000000     0.0000000     0.0000000     0.0000000     0.0000000     0.0000000     0.0000000
     0.0000000     0.0000000     0.0000000     0.0000000     0.0000000     0.0000000     0.0000000
     0.0000000     0.0000000     0.0000000     0.0000000     0.0000000     0.0000000     0.0000000
     0.0000000     0.0000000     0.0000000     0.0000000     0.0000000     0.0000000     0.0000000
     0.0000000     0.0000000     0.0000000     0.0000000     0.0000000     0.0000000     0.0000000
     0.0000000     0.0000000     0.0000000     0.0000000     0.0000000     0.0000000     0.0000000
     0.0000000     0.0000000     0.0000000     0.0000000     0.0000000     0.0000000     0.0000000
 


 total charge     
 
# of ion       s       p       d       tot
------------------------------------------
    1        1.314   2.409   0.000   3.723
    2        1.314   2.409   0.000   3.723
    3        1.315   2.406   0.000   3.721
    4        1.313   2.412   0.000   3.725
    5        1.314   2.409   0.000   3.723
    6        1.314   2.409   0.000   3.723
    7        1.315   2.406   0.000   3.721
    8        1.313   2.412   0.000   3.725
    9        0.260   6.202   8.916  15.378
   10        0.260   6.202   8.916  15.378
   11        0.260   6.202   8.916  15.378
   12        0.260   6.202   8.916  15.378
   13        0.349   6.350   5.823  12.522
   14        0.349   6.350   5.823  12.522
   15        0.349   6.350   5.823  12.522
   16        0.349   6.350   5.823  12.522
--------------------------------------------------
tot         12.946  69.484  58.955 141.384
 


 magnetization (x)
 
# of ion       s       p       d       tot
------------------------------------------
    1       -0.000   0.000   0.000   0.000
    2        0.000  -0.000   0.000  -0.000
    3       -0.000  -0.000   0.000  -0.000
    4       -0.000  -0.000   0.000  -0.000
    5        0.000  -0.000   0.000  -0.000
    6       -0.000   0.000   0.000   0.000
    7       -0.000  -0.000   0.000  -0.000
    8       -0.000  -0.000   0.000  -0.000
    9        0.000  -0.000  -0.000  -0.000
   10        0.000   0.000  -0.000  -0.000
   11        0.000  -0.000  -0.000  -0.000
   12        0.000   0.000  -0.000  -0.000
   13       -0.000   0.000   0.001   0.001
   14       -0.000  -0.000  -0.001  -0.001
   15       -0.000   0.000   0.001   0.001
   16       -0.000  -0.000  -0.001  -0.001
--------------------------------------------------
tot         -0.000  -0.000  -0.000  -0.001
 


 magnetization (y)
 
# of ion       s       p       d       tot
------------------------------------------
    1        0.000  -0.000   0.000  -0.000
    2        0.000  -0.000   0.000  -0.000
    3       -0.000   0.000   0.000   0.000
    4        0.000  -0.000   0.000  -0.000
    5        0.000  -0.000   0.000  -0.000
    6        0.000  -0.000   0.000  -0.000
    7       -0.000   0.000   0.000   0.000
    8        0.000  -0.000   0.000  -0.000
    9       -0.000   0.000  -0.000  -0.000
   10       -0.000   0.000   0.000   0.000
   11       -0.000   0.000  -0.000  -0.000
   12       -0.000   0.000   0.000   0.000
   13       -0.000  -0.000  -0.001  -0.001
   14       -0.000  -0.000  -0.001  -0.001
   15       -0.000  -0.000  -0.001  -0.001
   16       -0.000  -0.000  -0.001  -0.001
--------------------------------------------------
tot         -0.000  -0.000  -0.005  -0.005
 


 magnetization (z)
 
# of ion       s       p       d       tot
------------------------------------------
    1       -0.000  -0.013   0.000  -0.013
    2        0.000   0.013   0.000   0.013
    3        0.000   0.000   0.000   0.000
    4       -0.000  -0.000   0.000  -0.000
    5        0.000   0.013   0.000   0.013
    6       -0.000  -0.013   0.000  -0.013
    7        0.000   0.000   0.000   0.000
    8       -0.000  -0.000   0.000  -0.000
    9        0.000   0.001  -0.002  -0.001
   10       -0.000  -0.001   0.002   0.001
   11        0.000   0.001  -0.002  -0.001
   12       -0.000  -0.001   0.002   0.001
   13        0.020   0.054   3.664   3.738
   14       -0.020  -0.054  -3.664  -3.738
   15        0.020   0.054   3.664   3.738
   16       -0.020  -0.054  -3.664  -3.738
--------------------------------------------------
tot         -0.000  -0.000   0.000   0.000
 
 BZINTS: Fermi energy:  4.882816;172.000000 electrons
         Band energy:***********;  BLOECHL correction:  0.000000
 BZINTS: Fermi energy:  4.882816;172.000000 electrons
         Band energy:***********;  BLOECHL correction:  0.000000
 BZINTS: Fermi energy:  4.882816;172.000000 electrons
         Band energy:***********;  BLOECHL correction:  0.000000
 BZINTS: Fermi energy:  4.882816;172.000000 electrons
         Band energy:***********;  BLOECHL correction:  0.000000

 total amount of memory used by VASP MPI-rank0   410429. kBytes
=======================================================================

   base      :      30000. kBytes
   nonl-proj :     321650. kBytes
   fftplans  :       2735. kBytes
   grid      :      30965. kBytes
   one-center:        995. kBytes
   wavefun   :      24084. kBytes
 
  
  
 General timing and accounting informations for this job:
 ========================================================
  
                  Total CPU time used (sec):     9425.755
                            User time (sec):     9413.993
                          System time (sec):       11.762
                         Elapsed time (sec):     9663.167
  
                   Maximum memory used (kb):      866400.
                   Average memory used (kb):           0.
  
                          Minor page faults:      1061869
                          Major page faults:         5579
                 Voluntary context switches:         7048
