 vasp.5.4.4.18Apr17-6-g9f103f2a35 (build Oct 30 2023 17:30:16) complex          
  
 executed on             LinuxIFC date 2024.06.30  18:45:48
 running on  256 total cores
 distrk:  each k-point on  256 cores,    1 groups
 distr:  one band on NCORES_PER_BAND=   1 cores,  256 groups


--------------------------------------------------------------------------------------------------------


 INCAR:
 POTCAR:    PAW_PBE S 06Sep2000                   
 POTCAR:     PAW_PBE Cu_pv 06Sep2000              
 POTCAR:     PAW_PBE Fe_pv 02Aug2007              

 ----------------------------------------------------------------------------- 
|                                                                             |
|           W    W    AA    RRRRR   N    N  II  N    N   GGGG   !!!           |
|           W    W   A  A   R    R  NN   N  II  NN   N  G    G  !!!           |
|           W    W  A    A  R    R  N N  N  II  N N  N  G       !!!           |
|           W WW W  AAAAAA  RRRRR   N  N N  II  N  N N  G  GGG   !            |
|           WW  WW  A    A  R   R   N   NN  II  N   NN  G    G                |
|           W    W  A    A  R    R  N    N  II  N    N   GGGG   !!!           |
|                                                                             |
|      For optimal performance we recommend to set                            |
|        NCORE= 4 - approx SQRT( number of cores)                             |
|      NCORE specifies how many cores store one orbital (NPAR=cpu/NCORE).     |
|      This setting can  greatly improve the performance of VASP for DFT.     |
|      The default,   NCORE=1            might be grossly inefficient         |
|      on modern multi-core architectures or massively parallel machines.     |
|      Do your own testing !!!!                                               |
|      Unfortunately you need to use the default for GW and RPA calculations. |
|      (for HF NCORE is supported but not extensively tested yet)             |
|                                                                             |
 ----------------------------------------------------------------------------- 

 POTCAR:    PAW_PBE S 06Sep2000                   
   SHA256 =  0fc7481fb0695f01bdc6462160264c5c84044ae9ec85a907d398b887a2bc3132 S/
   COPYR  = (c) Copyright 06Sep2000 Georg Kresse                                
   COPYR  = This file is part of the software VASP. Any use, copying, and all ot
   COPYR  = If you do not have a valid VASP license, you may not use, copy or di
   VRHFIN =S : s2p4                                                             
   LEXCH  = PE                                                                  
   EATOM  =   276.8230 eV,   20.3459 Ry                                         
                                                                                
   TITEL  = PAW_PBE S 06Sep2000                                                 
   LULTRA =        F    use ultrasoft PP ?                                      
   IUNSCR =        1    unscreen: 0-lin 1-nonlin 2-no                           
   RPACOR =    1.500    partial core radius                                     
   POMASS =   32.066; ZVAL   =    6.000    mass and valenz                      
   RCORE  =    1.900    outmost cutoff radius                                   
   RWIGS  =    2.200; RWIGS  =    1.164    wigner-seitz radius (au A)           
   ENMAX  =  258.689; ENMIN  =  194.016 eV                                      
   ICORE  =        2    local potential                                         
   LCOR   =        T    correct aug charges                                     
   LPAW   =        T    paw PP                                                  
   EAUG   =  335.092                                                            
   DEXC   =    0.000                                                            
   RMAX   =    1.942    core radius for proj-oper                               
   RAUG   =    1.300    factor for augmentation sphere                          
   RDEP   =    1.954    radius for radial grids                                 
   RDEPT  =    1.744    core radius for aug-charge                              
                                                                                
   Atomic configuration                                                         
    6 entries                                                                   
     n  l   j            E        occ.                                          
     1  0  0.50     -2405.8406   2.0000                                         
     2  0  0.50      -211.7007   2.0000                                         
     2  1  1.50      -156.4958   6.0000                                         
     3  0  0.50       -17.2562   2.0000                                         
     3  1  0.50        -7.0085   4.0000                                         
     3  2  1.50        -6.8029   0.0000                                         
   Description                                                                  
     l       E           TYP  RCUT    TYP  RCUT                                 
     0    -17.2561641     23  1.900                                             
     0    -15.8743224     23  1.900                                             
     1     -7.0085400     23  1.900                                             
     1     -2.7779785     23  1.900                                             
     2     -6.8029130     23  1.900                                             
  local pseudopotential read in
  partial core-charges read in
  partial kinetic energy density read in
  atomic valenz-charges read in
  non local Contribution for L=           0  read in
    real space projection operators read in
  non local Contribution for L=           0  read in
    real space projection operators read in
  non local Contribution for L=           1  read in
    real space projection operators read in
  non local Contribution for L=           1  read in
    real space projection operators read in
    PAW grid and wavefunctions read in
 
   number of l-projection  operators is LMAX  =           4
   number of lm-projection operators is LMMAX =           8
 
 POTCAR:     PAW_PBE Cu_pv 06Sep2000              
   SHA256 =  cb7b504e2ea725fe1f25c85a9ac77d4012ce94cd394135b722c4e25ec297f1cb Cu
   COPYR  = (c) Copyright 06Sep2000 Georg Kresse                                
   COPYR  = This file is part of the software VASP. Any use, copying, and all ot
   COPYR  = If you do not have a valid VASP license, you may not use, copy or di
   VRHFIN =Cu: d10 p1                                                           
   LEXCH  = PE                                                                  
   EATOM  =  4120.1201 eV,  302.8203 Ry                                         
                                                                                
   TITEL  = PAW_PBE Cu_pv 06Sep2000                                             
   LULTRA =        F    use ultrasoft PP ?                                      
   IUNSCR =        1    unscreen: 0-lin 1-nonlin 2-no                           
   RPACOR =    1.500    partial core radius                                     
   POMASS =   63.546; ZVAL   =   17.000    mass and valenz                      
   RCORE  =    2.000    outmost cutoff radius                                   
   RWIGS  =    2.000; RWIGS  =    1.058    wigner-seitz radius (au A)           
   ENMAX  =  368.648; ENMIN  =  276.486 eV                                      
   RCLOC  =    1.304    cutoff for local pot                                    
   LCOR   =        T    correct aug charges                                     
   LPAW   =        T    paw PP                                                  
   EAUG   =  758.233                                                            
   DEXC   =    0.000                                                            
   RMAX   =    2.046    core radius for proj-oper                               
   RAUG   =    1.300    factor for augmentation sphere                          
   RDEP   =    2.025    radius for radial grids                                 
   RDEPT  =    1.558    core radius for aug-charge                              
                                                                                
   Atomic configuration                                                         
    8 entries                                                                   
     n  l   j            E        occ.                                          
     1  0  0.50     -8850.2467   2.0000                                         
     2  0  0.50     -1062.3498   2.0000                                         
     2  1  1.50      -916.8226   6.0000                                         
     3  0  0.50      -114.6929   2.0000                                         
     3  1  1.50       -72.1325   6.0000                                         
     3  2  2.50        -5.0394  10.0000                                         
     4  0  0.50        -4.6097   1.0000                                         
     4  3  2.50        -1.3606   0.0000                                         
   Description                                                                  
     l       E           TYP  RCUT    TYP  RCUT                                 
     1    -72.1324777     23  1.700                                             
     1     -1.3605826     23  1.700                                             
     2     -5.0393776     23  2.000                                             
     2     -6.3999602     23  2.000                                             
     0     -4.6097062     23  1.800                                             
     0     14.1620818     23  1.800                                             
  local pseudopotential read in
  partial core-charges read in
  partial kinetic energy density read in
  atomic valenz-charges read in
  non local Contribution for L=           1  read in
    real space projection operators read in
  non local Contribution for L=           1  read in
    real space projection operators read in
  non local Contribution for L=           2  read in
    real space projection operators read in
  non local Contribution for L=           2  read in
    real space projection operators read in
  non local Contribution for L=           0  read in
    real space projection operators read in
  non local Contribution for L=           0  read in
    real space projection operators read in
    PAW grid and wavefunctions read in
 
   number of l-projection  operators is LMAX  =           6
   number of lm-projection operators is LMMAX =          18
 
 POTCAR:     PAW_PBE Fe_pv 02Aug2007              
   SHA256 =  5d22e414b1f82158bf2c7ecb8b97b28fd0923e48cadc1c3bf74d524558f5dd32 Fe
   COPYR  = (c) Copyright 02Aug2007 Georg Kresse                                
   COPYR  = This file is part of the software VASP. Any use, copying, and all ot
   COPYR  = If you do not have a valid VASP license, you may not use, copy or di
   VRHFIN =Fe:  3pd7s1                                                          
   LEXCH  = PE                                                                  
   EATOM  =  2457.4239 eV,  180.6156 Ry                                         
                                                                                
   TITEL  = PAW_PBE Fe_pv 02Aug2007                                             
   LULTRA =        F    use ultrasoft PP ?                                      
   IUNSCR =        1    unscreen: 0-lin 1-nonlin 2-no                           
   RPACOR =    1.750    partial core radius                                     
   POMASS =   55.847; ZVAL   =   14.000    mass and valenz                      
   RCORE  =    2.200    outmost cutoff radius                                   
   RWIGS  =    2.200; RWIGS  =    1.164    wigner-seitz radius (au A)           
   ENMAX  =  293.238; ENMIN  =  219.928 eV                                      
   ICORE  =        3    local potential                                         
   LCOR   =        T    correct aug charges                                     
   LPAW   =        T    paw PP                                                  
   EAUG   =  578.342                                                            
   DEXC   =    0.000                                                            
   RMAX   =    2.249    core radius for proj-oper                               
   RAUG   =    1.300    factor for augmentation sphere                          
   RDEP   =    2.296    radius for radial grids                                 
   RDEPT  =    1.766    core radius for aug-charge                              
                                                                                
   Atomic configuration                                                         
    8 entries                                                                   
     n  l   j            E        occ.                                          
     1  0  0.50     -6993.8440   2.0000                                         
     2  0  0.50      -814.6047   2.0000                                         
     2  1  1.50      -693.3689   6.0000                                         
     3  0  0.50       -89.4732   2.0000                                         
     3  1  1.50       -55.6373   6.0000                                         
     3  2  2.50        -3.8151   7.0000                                         
     4  0  0.50        -4.2551   1.0000                                         
     4  3  2.50        -1.3606   0.0000                                         
   Description                                                                  
     l       E           TYP  RCUT    TYP  RCUT                                 
     1    -55.6372668     23  2.000                                             
     1     -5.4423304     23  2.000                                             
     2     -3.8151096     23  2.200                                             
     2     -5.1756922     23  2.200                                             
     0     -4.2550951     23  2.200                                             
     0     27.2116520     23  2.200                                             
     3     -1.3605826     23  2.200                                             
  local pseudopotential read in
  partial core-charges read in
  partial kinetic energy density read in
  atomic valenz-charges read in
  non local Contribution for L=           1  read in
    real space projection operators read in
  non local Contribution for L=           1  read in
    real space projection operators read in
  non local Contribution for L=           2  read in
    real space projection operators read in
  non local Contribution for L=           2  read in
    real space projection operators read in
  non local Contribution for L=           0  read in
    real space projection operators read in
  non local Contribution for L=           0  read in
    real space projection operators read in
    PAW grid and wavefunctions read in
 
   number of l-projection  operators is LMAX  =           6
   number of lm-projection operators is LMMAX =          18
 

 ----------------------------------------------------------------------------- 
|                                                                             |
|  ADVICE TO THIS USER RUNNING 'VASP/VAMP'   (HEAR YOUR MASTER'S VOICE ...):  |
|                                                                             |
|      You have a (more or less) 'large supercell' and for larger cells       |
|      it might be more efficient to use real space projection opertators     |
|      So try LREAL= Auto  in the INCAR   file.                               |
|      Mind:          For very  accurate calculation you might also keep the  |
|      reciprocal projection scheme          (i.e. LREAL=.FALSE.)             |
|                                                                             |
 ----------------------------------------------------------------------------- 


 ----------------------------------------------------------------------------- 
|                                                                             |
|  ADVICE TO THIS USER RUNNING 'VASP/VAMP'   (HEAR YOUR MASTER'S VOICE ...):  |
|                                                                             |
|      You enforced a specific xc-type in the INCAR file,                     |
|      a different type was found on the POTCAR file                          |
|          I HOPE YOU KNOW, WHAT YOU ARE  DOING                               |
|                                                                             |
 ----------------------------------------------------------------------------- 

  PAW_PBE S 06Sep2000                   :
 energy of atom  1       EATOM= -276.8230
 kinetic energy error for atom=    0.0007 (will be added to EATOM!!)
   PAW_PBE Cu_pv 06Sep2000              :
 energy of atom  2       EATOM=-4120.1201
 kinetic energy error for atom=    0.0094 (will be added to EATOM!!)
   PAW_PBE Fe_pv 02Aug2007              :
 energy of atom  3       EATOM=-2457.4239
 kinetic energy error for atom=    0.0025 (will be added to EATOM!!)
 
 
 POSCAR: generated by phonopy                    
  positions in direct lattice
  velocities in cartesian coordinates
 exchange correlation table for  LEXCH =       14
   RHO(1)=    0.500       N(1)  =     2000
   RHO(2)=  100.500       N(2)  =     4000
 


--------------------------------------------------------------------------------------------------------


 ion  position               nearest neighbor table
   1  0.126  0.123  0.125-  41 2.26  37 2.27  61 2.27  49 2.28
   2  0.626  0.123  0.125-  42 2.26  38 2.27  62 2.27  50 2.28
   3  0.126  0.623  0.125-  43 2.26  39 2.27  63 2.27  51 2.28
   4  0.626  0.623  0.125-  44 2.26  40 2.27  64 2.27  52 2.28
   5  0.374  0.373  0.125-  39 2.26  41 2.27  52 2.27  62 2.28
   6  0.874  0.373  0.125-  40 2.26  42 2.27  51 2.27  61 2.28
   7  0.374  0.873  0.125-  37 2.26  43 2.27  50 2.27  64 2.28
   8  0.874  0.873  0.125-  38 2.26  44 2.27  49 2.27  63 2.28
   9  0.125  0.372  0.875-  41 2.26  45 2.26  55 2.27  51 2.27
  10  0.625  0.372  0.875-  42 2.26  46 2.26  52 2.27  56 2.27
  11  0.125  0.872  0.875-  43 2.26  47 2.26  53 2.27  49 2.27
  12  0.625  0.872  0.875-  44 2.26  48 2.26  50 2.27  54 2.27
  13  0.375  0.125  0.875-  41 2.26  46 2.26  50 2.28  53 2.28
  14  0.875  0.125  0.875-  45 2.26  42 2.26  49 2.28  54 2.28
  15  0.375  0.625  0.875-  43 2.26  48 2.26  52 2.28  55 2.28
  16  0.875  0.625  0.875-  47 2.26  44 2.26  51 2.28  56 2.28
  17  0.124  0.123  0.625-  45 2.26  33 2.27  57 2.27  53 2.28
  18  0.624  0.123  0.625-  46 2.26  34 2.27  58 2.27  54 2.28
  19  0.124  0.623  0.625-  47 2.26  35 2.27  59 2.27  55 2.28
  20  0.624  0.623  0.625-  48 2.26  36 2.27  60 2.27  56 2.28
  21  0.376  0.373  0.625-  36 2.26  46 2.27  55 2.27  57 2.28
  22  0.876  0.373  0.625-  35 2.26  45 2.27  56 2.27  58 2.28
  23  0.376  0.873  0.625-  34 2.26  48 2.27  53 2.27  59 2.28
  24  0.876  0.873  0.625-  33 2.26  47 2.27  54 2.27  60 2.28
  25  0.375  0.122  0.375-  34 2.26  37 2.26  57 2.27  62 2.27
  26  0.875  0.122  0.375-  33 2.26  38 2.26  61 2.27  58 2.27
  27  0.375  0.622  0.375-  36 2.26  39 2.26  59 2.27  64 2.27
  28  0.875  0.622  0.375-  35 2.26  40 2.26  63 2.27  60 2.27
  29  0.125  0.375  0.375-  39 2.26  35 2.26  61 2.28  57 2.28
  30  0.625  0.375  0.375-  36 2.26  40 2.26  62 2.28  58 2.28
  31  0.125  0.875  0.375-  37 2.26  33 2.26  63 2.28  59 2.28
  32  0.625  0.875  0.375-  34 2.26  38 2.26  64 2.28  60 2.28
  33  0.999  0.002  0.500-  24 2.26  31 2.26  26 2.26  17 2.27
  34  0.499  0.002  0.500-  23 2.26  32 2.26  25 2.26  18 2.27
  35  0.999  0.502  0.500-  22 2.26  29 2.26  28 2.26  19 2.27
  36  0.499  0.502  0.500-  21 2.26  30 2.26  27 2.26  20 2.27
  37  0.251  0.002  0.250-   7 2.26  31 2.26  25 2.26   1 2.27
  38  0.751  0.002  0.250-   8 2.26  32 2.26  26 2.26   2 2.27
  39  0.251  0.502  0.250-   5 2.26  29 2.26  27 2.26   3 2.27
  40  0.751  0.502  0.250-   6 2.26  30 2.26  28 2.26   4 2.27
  41  0.249  0.252  0.000-   1 2.26  13 2.26   9 2.26   5 2.27
  42  0.749  0.252  0.000-   2 2.26  14 2.26  10 2.26   6 2.27
  43  0.249  0.752  0.000-   3 2.26  15 2.26  11 2.26   7 2.27
  44  0.749  0.752  0.000-   4 2.26  16 2.26  12 2.26   8 2.27
  45  0.001  0.252  0.750-  17 2.26  14 2.26   9 2.26  22 2.27
  46  0.501  0.252  0.750-  18 2.26  13 2.26  10 2.26  21 2.27
  47  0.001  0.752  0.750-  19 2.26  16 2.26  11 2.26  24 2.27
  48  0.501  0.752  0.750-  20 2.26  15 2.26  12 2.26  23 2.27
  49  1.000  0.002  0.000-   8 2.27  11 2.27  14 2.28   1 2.28
  50  0.500  0.002  0.000-   7 2.27  12 2.27  13 2.28   2 2.28
  51  1.000  0.502  0.000-   6 2.27   9 2.27  16 2.28   3 2.28
  52  0.500  0.502  0.000-   5 2.27  10 2.27  15 2.28   4 2.28
  53  0.250  0.002  0.750-  23 2.27  11 2.27  13 2.28  17 2.28
  54  0.750  0.002  0.750-  24 2.27  12 2.27  14 2.28  18 2.28
  55  0.250  0.502  0.750-  21 2.27   9 2.27  15 2.28  19 2.28
  56  0.750  0.502  0.750-  22 2.27  10 2.27  16 2.28  20 2.28
  57  0.250  0.252  0.500-  17 2.27  25 2.27  29 2.28  21 2.28
  58  0.750  0.252  0.500-  18 2.27  26 2.27  30 2.28  22 2.28
  59  0.250  0.752  0.500-  19 2.27  27 2.27  31 2.28  23 2.28
  60  0.750  0.752  0.500-  20 2.27  28 2.27  32 2.28  24 2.28
  61  0.000  0.252  0.250-   1 2.27  26 2.27  29 2.28   6 2.28
  62  0.500  0.252  0.250-   2 2.27  25 2.27  30 2.28   5 2.28
  63  0.000  0.752  0.250-   3 2.27  28 2.27  31 2.28   8 2.28
  64  0.500  0.752  0.250-   4 2.27  27 2.27  32 2.28   7 2.28
 
  LATTYP: Found a simple monoclinic cell.
 ALAT       =    15.0536425427
 B/A-ratio  =     0.6986383775
 C/A-ratio  =     1.5711727551
 COS(beta)  =    -0.9516127975
  
  Lattice vectors:
  
 A1 = ( -10.8792635861,   0.0000000000, -10.4045075630)
 A2 = (   0.0000000000, -10.5170524021,   0.0000000000)
 A3 = (  11.2425969964,   0.0000000000,  20.8090151260)


Analysis of symmetry for initial positions (statically):
=====================================================================
 Subroutine PRICEL returns following result:
 
  LATTYP: Found a base centered monoclinic cell.
 ALAT       =    11.4983127844
 B/A-ratio  =     0.4573302449
 C/A-ratio  =     0.9054241058
 COS(beta)  =    -0.8088885846
  
  Lattice vectors:
  
 A1 = (  -2.4473158388,  -2.6292631005,   5.2022537815)
 A2 = (  -2.4473158388,   2.6292631005,   5.2022537815)
 A3 = (  -0.3633334103,   0.0000000000, -10.4045075630)
 
   8 primitive cells build up your supercell.
 

 Routine SETGRP: Setting up the symmetry group for a 
 simple monoclinic supercell.


 Subroutine GETGRP returns: Found  2 space group operations
 (whereof  1 operations were pure point group operations)
 out of a pool of  4 trial point group operations.


The static configuration has the point symmetry C_1 .
 The point group associated with its full space group is C_2 .


Analysis of symmetry for dynamics (positions and initial velocities):
=====================================================================
 Subroutine PRICEL returns following result:
 
  LATTYP: Found a base centered monoclinic cell.
 ALAT       =    11.4983127844
 B/A-ratio  =     0.4573302449
 C/A-ratio  =     0.9054241058
 COS(beta)  =    -0.8088885846
  
  Lattice vectors:
  
 A1 = (  -2.4473158388,  -2.6292631005,   5.2022537815)
 A2 = (  -2.4473158388,   2.6292631005,   5.2022537815)
 A3 = (  -0.3633334103,   0.0000000000, -10.4045075630)
 
   8 primitive cells build up your supercell.
 

 Routine SETGRP: Setting up the symmetry group for a 
 simple monoclinic supercell.


 Subroutine GETGRP returns: Found  2 space group operations
 (whereof  1 operations were pure point group operations)
 out of a pool of  4 trial point group operations.


The dynamic configuration has the point symmetry C_1 .
 The point group associated with its full space group is C_2 .


Analysis of structural, dynamic, and magnetic symmetry:
=====================================================================
 Subroutine PRICEL returns following result:
 
  LATTYP: Found a base centered monoclinic cell.
 ALAT       =    11.4983127844
 B/A-ratio  =     0.4573302449
 C/A-ratio  =     0.9054241058
 COS(beta)  =    -0.8088885846
  
  Lattice vectors:
  
 A1 = (  -2.4473158388,  -2.6292631005,   5.2022537815)
 A2 = (  -2.4473158388,   2.6292631005,   5.2022537815)
 A3 = (  -0.3633334103,   0.0000000000, -10.4045075630)
 
   8 primitive cells build up your supercell.
 

 Routine SETGRP: Setting up the symmetry group for a 
 simple monoclinic supercell.


 Subroutine GETGRP returns: Found  2 space group operations
 (whereof  1 operations were pure point group operations)
 out of a pool of  4 trial point group operations.


The magnetic configuration has the point symmetry C_1 .
 The point group associated with its full space group is C_2 .


 Subroutine INISYM returns: Found  2 space group operations
 (whereof  1 operations are pure point group operations),
 and found     8 'primitive' translations

 
 
 KPOINTS: Automatic mesh                          

Automatic generation of k-mesh.
Space group operators:
 irot       det(A)        alpha          n_x          n_y          n_z        tau_x        tau_y        tau_z
    1     1.000000     0.000000     1.000000     0.000000     0.000000     0.000000     0.000000     0.000000
    2     1.000000   180.000000     0.000000     1.000000     0.000000    -0.250000     0.000000    -0.250000
 
 Subroutine IBZKPT returns following result:
 ===========================================
 
 Found      8 irreducible k-points:
 
 Following reciprocal coordinates:
            Coordinates               Weight
  0.000000  0.000000  0.000000      1.000000
  0.500000  0.000000  0.000000      1.000000
  0.000000  0.500000  0.000000      1.000000
  0.500000  0.500000  0.000000      1.000000
  0.000000  0.000000  0.500000      1.000000
  0.500000  0.000000  0.500000      1.000000
  0.000000  0.500000  0.500000      1.000000
  0.500000  0.500000  0.500000      1.000000
 
 Following cartesian coordinates:
            Coordinates               Weight
  0.000000  0.000000  0.000000      1.000000
  0.047547  0.000000 -0.001660      1.000000
  0.000000  0.047542  0.000000      1.000000
  0.047547  0.047542 -0.001660      1.000000
  0.000000  0.000000  0.048056      1.000000
  0.047547  0.000000  0.046396      1.000000
  0.000000  0.047542  0.048056      1.000000
  0.047547  0.047542  0.046396      1.000000
 
 TETIRR: Found     24 inequivalent tetrahedra from       48
 
 Subroutine IBZKPT_HF returns following result:
 ==============================================
 
 Found      8 k-points in 1st BZ
 the following      8 k-points will be used (e.g. in the exchange kernel)
 Following reciprocal coordinates:   # in IRBZ
  0.000000  0.000000  0.000000    0.12500000   1 t-inv F
  0.500000  0.000000  0.000000    0.12500000   2 t-inv F
  0.000000  0.500000  0.000000    0.12500000   3 t-inv F
  0.500000  0.500000  0.000000    0.12500000   4 t-inv F
  0.000000  0.000000  0.500000    0.12500000   5 t-inv F
  0.500000  0.000000  0.500000    0.12500000   6 t-inv F
  0.000000  0.500000  0.500000    0.12500000   7 t-inv F
  0.500000  0.500000  0.500000    0.12500000   8 t-inv F


--------------------------------------------------------------------------------------------------------




 Dimension of arrays:
   k-points           NKPTS =      8   k-points in BZ     NKDIM =      8   number of bands    NBANDS=    512
   number of dos      NEDOS =    301   number of ions     NIONS =     64
   non local maximal  LDIM  =      6   non local SUM 2l+1 LMDIM =     18
   total plane-waves  NPLWV = 829440
   max r-space proj   IRMAX =      1   max aug-charges    IRDMAX=  22906
   dimension x,y,z NGX =    96 NGY =   96 NGZ =   90
   dimension x,y,z NGXF=   192 NGYF=  192 NGZF=  180
   support grid    NGXF=   192 NGYF=  192 NGZF=  180
   ions per type =              32  16  16
   NGX,Y,Z   is equivalent  to a cutoff of  15.18, 15.17, 14.37 a.u.
   NGXF,Y,Z  is equivalent  to a cutoff of  30.35, 30.35, 28.74 a.u.

 SYSTEM =  CuFeS2                                  
 POSCAR =  generated by phonopy                    

 Startparameter for this run:
   NWRITE =      2    write-flag & timer
   PREC   = accura    normal or accurate (medium, high low for compatibility)
   ISTART =      0    job   : 0-new  1-cont  2-samecut
   ICHARG =      1    charge: 1-file 2-atom 10-const
   ISPIN  =      2    spin polarized calculation?
   LNONCOLLINEAR =      F non collinear calculations
   LSORBIT =      F    spin-orbit coupling
   INIWAV =      1    electr: 0-lowe 1-rand  2-diag
   LASPH  =      F    aspherical Exc in radial PAW
   METAGGA=      F    non-selfconsistent MetaGGA calc.

 Electronic Relaxation 1
   ENCUT  =  700.0 eV  51.45 Ry    7.17 a.u.  22.69 22.69 22.46*2*pi/ulx,y,z
   ENINI  =  700.0     initial cutoff
   ENAUG  =  758.2 eV  augmentation charge cutoff
   NELM   =    500;   NELMIN=  2; NELMDL= -5     # of ELM steps 
   EDIFF  = 0.1E-07   stopping-criterion for ELM
   LREAL  =      F    real-space projection
   NLSPLINE    = F    spline interpolate recip. space projectors
   LCOMPAT=      F    compatible to vasp.4.4
   GGA_COMPAT  = T    GGA compatible to vasp.4.4-vasp.4.6
   LMAXPAW     = -100 max onsite density
   LMAXMIX     =    4 max onsite mixed and CHGCAR
   VOSKOWN=      0    Vosko Wilk Nusair interpolation
   ROPT   =    0.00000   0.00000   0.00000
 Ionic relaxation
   EDIFFG = -.1E-04   stopping-criterion for IOM
   NSW    =      0    number of steps for IOM
   NBLOCK =      1;   KBLOCK =      1    inner block; outer block 
   IBRION =     -1    ionic relax: 0-MD 1-quasi-New 2-CG
   NFREE  =      0    steps in history (QN), initial steepest desc. (CG)
   ISIF   =      2    stress and relaxation
   IWAVPR =     10    prediction:  0-non 1-charg 2-wave 3-comb
   ISYM   =      2    0-nonsym 1-usesym 2-fastsym
   LCORR  =      T    Harris-Foulkes like correction to forces

   POTIM  = 0.5000    time-step for ionic-motion
   TEIN   =    0.0    initial temperature
   TEBEG  =    0.0;   TEEND  =   0.0 temperature during run
   SMASS  =  -3.00    Nose mass-parameter (am)
   estimated Nose-frequenzy (Omega)   =  0.10E-29 period in steps =****** mass=  -0.253E-26a.u.
   SCALEE = 1.0000    scale energy and forces
   NPACO  =    256;   APACO  = 16.0  distance and # of slots for P.C.
   PSTRESS=    0.0 pullay stress

  Mass of Ions in am
   POMASS =  32.07 63.55 55.85
  Ionic Valenz
   ZVAL   =   6.00 17.00 14.00
  Atomic Wigner-Seitz radii
   RWIGS  =  -1.00 -1.00 -1.00
  virtual crystal weights 
   VCA    =   1.00  1.00  1.00
   NELECT =     688.0000    total number of electrons
   NUPDOWN=      -1.0000    fix difference up-down

 DOS related values:
   EMIN   =  10.00;   EMAX   =-10.00  energy-range for DOS
   EFERMI =   0.00
   ISMEAR =    -5;   SIGMA  =   0.03  broadening in eV -4-tet -1-fermi 0-gaus

 Electronic relaxation 2 (details)
   IALGO  =     38    algorithm
   LDIAG  =      T    sub-space diagonalisation (order eigenvalues)
   LSUBROT=      F    optimize rotation matrix (better conditioning)
   TURBO    =      0    0=normal 1=particle mesh
   IRESTART =      0    0=no restart 2=restart with 2 vectors
   NREBOOT  =      0    no. of reboots
   NMIN     =      0    reboot dimension
   EREF     =   0.00    reference energy to select bands
   IMIX   =      4    mixing-type and parameters
     AMIX     =   0.40;   BMIX     =  1.00
     AMIX_MAG =   1.60;   BMIX_MAG =  1.00
     AMIN     =   0.10
     WC   =   100.;   INIMIX=   1;  MIXPRE=   1;  MAXMIX= -45

 Intra band minimization:
   WEIMIN = 0.0000     energy-eigenvalue tresh-hold
   EBREAK =  0.49E-11  absolut break condition
   DEPER  =   0.30     relativ break condition  

   TIME   =   0.40     timestep for ELM

  volume/ion in A,a.u.               =      17.98       121.33
  Fermi-wavevector in a.u.,A,eV,Ry     =   1.379166  2.606246 25.879628  1.902099
  Thomas-Fermi vector in A             =   2.504161
 
 Write flags
   LWAVE        =      T    write WAVECAR
   LDOWNSAMPLE  =      F    k-point downsampling of WAVECAR
   LCHARG       =      T    write CHGCAR
   LVTOT        =      F    write LOCPOT, total local potential
   LVHAR        =      F    write LOCPOT, Hartree potential only
   LELF         =      F    write electronic localiz. function (ELF)
   LORBIT       =     11    0 simple, 1 ext, 2 COOP (PROOUT), +10 PAW based schemes


 Dipole corrections
   LMONO  =      F    monopole corrections only (constant potential shift)
   LDIPOL =      F    correct potential (dipole corrections)
   IDIPOL =      0    1-x, 2-y, 3-z, 4-all directions 
   EPSILON=  1.0000000 bulk dielectric constant

 LDA+U is selected, type is set to LDAUTYPE =  2
   angular momentum for each species LDAUL =     2    2    2
   U (eV)           for each species LDAUU =   0.0  0.1  4.7
   J (eV)           for each species LDAUJ =   0.0  0.0  0.0
 Exchange correlation treatment:
   GGA     =    PS    GGA type
   LEXCH   =    14    internal setting for exchange type
   VOSKOWN=      0    Vosko Wilk Nusair interpolation
   LHFCALC =     F    Hartree Fock is set to
   LHFONE  =     F    Hartree Fock one center treatment
   AEXX    =    0.0000 exact exchange contribution

 Linear response parameters
   LEPSILON=     F    determine dielectric tensor
   LRPA    =     F    only Hartree local field effects (RPA)
   LNABLA  =     F    use nabla operator in PAW spheres
   LVEL    =     F    velocity operator in full k-point grid
   LINTERFAST=   F  fast interpolation
   KINTER  =     0    interpolate to denser k-point grid
   CSHIFT  =0.1000    complex shift for real part using Kramers Kronig
   OMEGAMAX=  -1.0    maximum frequency
   DEG_THRESHOLD= 0.2000000E-02 threshold for treating states as degnerate
   RTIME   =   -0.100 relaxation time in fs
  (WPLASMAI=    0.000 imaginary part of plasma frequency in eV, 0.658/RTIME)
   DFIELD  = 0.0000000 0.0000000 0.0000000 field for delta impulse in time
 
 Orbital magnetization related:
   ORBITALMAG=     F  switch on orbital magnetization
   LCHIMAG   =     F  perturbation theory with respect to B field
   DQ        =  0.001000  dq finite difference perturbation B field
   LLRAUG    =     F  two centre corrections for induced B field

 PEAD related settings:
   LPEAD      =     T    switch on PEAD
   IPEAD      =     4    finite difference order for dpsi/dk
   LCALCPOL   =     T    calculate macroscopic polarization
   LCALCEPS   =     F    calculate dielectric tensor
   EFIELD_PEAD=    0.0000    0.0000    0.0000
   SKIP_EDOTP =     F
   LRPA       =     F
   SKIP_SCF   =     F


--------------------------------------------------------------------------------------------------------


 Static calculation
 charge density and potential will be updated during run
 spin polarized calculation
 Variant of blocked Davidson
 Davidson routine will perform the subspace rotation
 perform sub-space diagonalisation
    after iterative eigenvector-optimisation
 modified Broyden-mixing scheme, WC =      100.0
 initial mixing is a Kerker type mixing with AMIX =  0.4000 and BMIX =      1.0000
 Hartree-type preconditioning will be used
 using additional bands          168
 reciprocal scheme for non local part
 use partial core corrections
 calculate Harris-corrections to forces 
   (improved forces if not selfconsistent)
 use gradient corrections 
 use of overlap-Matrix (Vanderbilt PP)
 Fermi weights with tetrahedron method with Bloechl corrections


--------------------------------------------------------------------------------------------------------


  energy-cutoff  :      700.00
  volume of cell :     1150.70
      direct lattice vectors                 reciprocal lattice vectors
    10.515930176  0.000000000  0.000000000     0.095093823  0.000000000 -0.003320749
     0.000000000 10.517052402  0.000000000     0.000000000  0.095083676  0.000000000
     0.363333410  0.000000000 10.404507563     0.000000000  0.000000000  0.096112189

  length of vectors
    10.515930176 10.517052402 10.410849571     0.095151787  0.095083676  0.096112189


 
 k-points in units of 2pi/SCALE and weight: Automatic mesh                          
   0.00000000  0.00000000  0.00000000       0.125
   0.04754691  0.00000000 -0.00166037       0.125
   0.00000000  0.04754184  0.00000000       0.125
   0.04754691  0.04754184 -0.00166037       0.125
   0.00000000  0.00000000  0.04805609       0.125
   0.04754691  0.00000000  0.04639572       0.125
   0.00000000  0.04754184  0.04805609       0.125
   0.04754691  0.04754184  0.04639572       0.125
 
 k-points in reciprocal lattice and weights: Automatic mesh                          
   0.00000000  0.00000000  0.00000000       0.125
   0.50000000  0.00000000  0.00000000       0.125
   0.00000000  0.50000000  0.00000000       0.125
   0.50000000  0.50000000  0.00000000       0.125
   0.00000000  0.00000000  0.50000000       0.125
   0.50000000  0.00000000  0.50000000       0.125
   0.00000000  0.50000000  0.50000000       0.125
   0.50000000  0.50000000  0.50000000       0.125
 
 position of ions in fractional coordinates (direct lattice) 
   0.12617790  0.12283610  0.12534962
   0.62617788  0.12283610  0.12534962
   0.12617790  0.62283610  0.12534962
   0.62617788  0.62283610  0.12534962
   0.37382212  0.37283610  0.12465038
   0.87382212  0.37283610  0.12465038
   0.37382212  0.87283610  0.12465038
   0.87382212  0.87283610  0.12465038
   0.12500000  0.37232044  0.87500000
   0.62500000  0.37232044  0.87500000
   0.12500000  0.87232044  0.87500000
   0.62500000  0.87232044  0.87500000
   0.37500000  0.12456868  0.87500000
   0.87500000  0.12456868  0.87500000
   0.37500000  0.62456867  0.87500000
   0.87500000  0.62456867  0.87500000
   0.12382211  0.12283610  0.62465038
   0.62382212  0.12283610  0.62465038
   0.12382211  0.62283610  0.62465038
   0.62382212  0.62283610  0.62465038
   0.37617788  0.37283610  0.62534962
   0.87617788  0.37283610  0.62534962
   0.37617788  0.87283610  0.62534962
   0.87617788  0.87283610  0.62534962
   0.37500000  0.12232043  0.37500000
   0.87500000  0.12232043  0.37500000
   0.37500000  0.62232044  0.37500000
   0.87500000  0.62232044  0.37500000
   0.12500000  0.37456867  0.37500000
   0.62500000  0.37456867  0.37500000
   0.12500000  0.87456867  0.37500000
   0.62500000  0.87456867  0.37500000
   0.99936941  0.00189852  0.50000341
   0.49936941  0.00189852  0.50000341
   0.99936941  0.50189852  0.50000341
   0.49936941  0.50189852  0.50000341
   0.25063059  0.00189852  0.24999659
   0.75063059  0.00189852  0.24999659
   0.25063059  0.50189852  0.24999659
   0.75063059  0.50189852  0.24999659
   0.24936941  0.25189852  0.00000341
   0.74936941  0.25189852  0.00000341
   0.24936941  0.75189852  0.00000341
   0.74936941  0.75189852  0.00000341
   0.00063059  0.25189852  0.74999659
   0.50063059  0.25189852  0.74999659
   0.00063059  0.75189852  0.74999659
   0.50063059  0.75189852  0.74999659
   0.99968738  0.00182083  0.00005749
   0.49968738  0.00182083  0.00005749
   0.99968738  0.50182083  0.00005749
   0.49968738  0.50182083  0.00005749
   0.25031262  0.00182083  0.74994251
   0.75031262  0.00182083  0.74994251
   0.25031262  0.50182083  0.74994251
   0.75031262  0.50182083  0.74994251
   0.24968738  0.25182083  0.50005749
   0.74968738  0.25182083  0.50005749
   0.24968738  0.75182083  0.50005749
   0.74968738  0.75182083  0.50005749
   0.00031262  0.25182083  0.24994251
   0.50031262  0.25182083  0.24994251
   0.00031262  0.75182083  0.24994251
   0.50031262  0.75182083  0.24994251
 
 position of ions in cartesian coordinates  (Angst):
   1.37242169  1.29187365  1.30420110
   6.63038662  1.29187365  1.30420110
   1.37242169  6.55039985  1.30420110
   6.63038662  6.55039985  1.30420110
   3.97637691  3.92113675  1.29692579
   9.23434200  3.92113675  1.29692579
   3.97637691  9.17966295  1.29692579
   9.23434200  9.17966295  1.29692579
   1.63240801  3.91571354  9.10394412
   6.89037309  3.91571354  9.10394412
   1.63240801  9.17423974  9.10394412
   6.89037309  9.17423974  9.10394412
   4.26139055  1.31009537  9.10394412
   9.51935564  1.31009537  9.10394412
   4.26139055  6.56862141  9.10394412
   9.51935564  6.56862141  9.10394412
   1.52906099  1.29187365  6.49917957
   6.78702616  1.29187365  6.49917957
   1.52906099  6.55039985  6.49917957
   6.78702616  6.55039985  6.49917957
   4.18307078  3.92113675  6.50645489
   9.44103587  3.92113675  6.50645489
   4.18307078  9.17966295  6.50645489
   9.44103587  9.17966295  6.50645489
   4.07972384  1.28645035  3.90169034
   9.33768893  1.28645035  3.90169034
   4.07972384  6.54497664  3.90169034
   9.33768893  6.54497664  3.90169034
   1.45074130  3.93935831  3.90169034
   6.70870639  3.93935831  3.90169034
   1.45074130  9.19788451  3.90169034
   6.70870639  9.19788451  3.90169034
  10.69096684  0.01996681  5.20228922
   5.43300175  0.01996681  5.20228922
  10.69096684  5.27849301  5.20228922
   5.43300175  5.27849301  5.20228922
   2.72644594  0.01996681  2.60109145
   7.98441103  0.01996681  2.60109145
   2.72644594  5.27849301  2.60109145
   7.98441103  5.27849301  2.60109145
   2.62235250  2.64922991  0.00003544
   7.88031759  2.64922991  0.00003544
   2.62235250  7.90775611  0.00003544
   7.88031759  7.90775611  0.00003544
   0.27913010  2.64922991  7.80334523
   5.53709519  2.64922991  7.80334523
   0.27913010  7.90775611  7.80334523
   5.53709519  7.90775611  7.80334523
  10.51266360  0.01914981  0.00059813
   5.25469851  0.01914981  0.00059813
  10.51266360  5.27767601  0.00059813
   5.25469851  5.27767601  0.00059813
   2.90474918  0.01914981  7.80278254
   8.16271427  0.01914981  7.80278254
   2.90474918  5.27767601  7.80278254
   8.16271427  5.27767601  7.80278254
   2.80738267  2.64841291  5.20285191
   8.06534776  2.64841291  5.20285191
   2.80738267  7.90693912  5.20285191
   8.06534776  7.90693912  5.20285191
   0.09409993  2.64841291  2.60052876
   5.35206502  2.64841291  2.60052876
   0.09409993  7.90693912  2.60052876
   5.35206502  7.90693912  2.60052876
 


--------------------------------------------------------------------------------------------------------


 k-point  1 :   0.0000 0.0000 0.0000  plane waves:   48443
 k-point  2 :   0.5000 0.0000 0.0000  plane waves:   48426
 k-point  3 :   0.0000 0.5000 0.0000  plane waves:   48446
 k-point  4 :   0.5000 0.5000 0.0000  plane waves:   48404
 k-point  5 :   0.0000 0.0000 0.5000  plane waves:   48376
 k-point  6 :   0.5000 0.0000 0.5000  plane waves:   48394
 k-point  7 :   0.0000 0.5000 0.5000  plane waves:   48340
 k-point  8 :   0.5000 0.5000 0.5000  plane waves:   48320

 maximum and minimum number of plane-waves per node :     48446    48320

 maximum number of plane-waves:     48446
 maximum index in each direction: 
   IXMAX=   22   IYMAX=   22   IZMAX=   22
   IXMIN=  -23   IYMIN=  -23   IZMIN=  -22


 serial   3D FFT for wavefunctions
 parallel 3D FFT for charge:
    minimum data exchange during FFTs selected (reduces bandwidth)


 total amount of memory used by VASP MPI-rank0   349631. kBytes
=======================================================================

   base      :      30000. kBytes
   nonl-proj :     217907. kBytes
   fftplans  :       4588. kBytes
   grid      :      69719. kBytes
   one-center:       1990. kBytes
   wavefun   :      25427. kBytes
 
     INWAV:  cpu time    0.0000: real time    0.0000
 Broyden mixing: mesh for mixing (old mesh)
   NGX = 45   NGY = 45   NGZ = 45
  (NGX  =192   NGY  =192   NGZ  =180)
  gives a total of  91125 points

 initial charge density was supplied:
 number of electron     688.0000287 magnetization       0.0000000
 keeping initial charge density in first step


--------------------------------------------------------------------------------------------------------


 Maximum index for augmentation-charges          896 (set IRDMAX)


--------------------------------------------------------------------------------------------------------


 First call to EWALD:  gamma=   0.169
 Maximum number of real-space cells 3x 3x 3
 Maximum number of reciprocal cells 3x 3x 3

    FEWALD:  cpu time    0.0031: real time    0.0031


--------------------------------------- Iteration      1(   1)  ---------------------------------------


    POTLOK:  cpu time    0.3320: real time    0.3975
    SETDIJ:  cpu time    0.0151: real time    0.0153
     EDDAV:  cpu time   88.6636: real time   89.3952
 BZINTS: Fermi energy: 14.963887;688.000000 electrons
         Band energy:***********;  BLOECHL correction: -0.015295
       DOS:  cpu time    0.0410: real time    0.0412
    --------------------------------------------
      LOOP:  cpu time   89.0518: real time   89.8492

 eigenvalue-minimisations  : 16384
 total energy-change (2. order) : 0.6052958E+04  (-0.5158745E+05)
 number of electron     688.0000287 magnetization       0.0000000
 augmentation part      688.0000287 magnetization       0.0000000

 Free energy of the ion-electron system (eV)
  ---------------------------------------------------
  alpha Z        PSCENC =      2356.08184027
  Ewald energy   TEWEN  =    -62471.85692533
  -Hartree energ DENC   =    -42951.04803731
  -exchange      EXHF   =         0.00000000
  -V(xc)+E(xc)   XCENC  =      3286.47496483
  PAW double counting   =    112259.81449706  -115953.62387450
  entropy T*S    EENTRO =         0.00000000
  eigenvalues    EBANDS =     -4492.94959739
  atomic energy  EATOM  =    114020.06510763
  Solvation  Ediel_sol  =         0.00000000
  ---------------------------------------------------
  free energy    TOTEN  =      6052.95797526 eV

  energy without entropy =     6052.95797526  energy(sigma->0) =     6052.95797526


--------------------------------------------------------------------------------------------------------




--------------------------------------- Iteration      1(   2)  ---------------------------------------


     EDDAV:  cpu time  102.8454: real time  103.6139
 BZINTS: Fermi energy:  5.473370;688.000000 electrons
         Band energy:***********;  BLOECHL correction:  0.000000
       DOS:  cpu time    0.0067: real time    0.0067
    --------------------------------------------
      LOOP:  cpu time  102.8520: real time  103.6206

 eigenvalue-minimisations  : 18176
 total energy-change (2. order) :-0.6131488E+04  (-0.6021424E+04)
 number of electron     688.0000287 magnetization       0.0000000
 augmentation part      688.0000287 magnetization       0.0000000

 Free energy of the ion-electron system (eV)
  ---------------------------------------------------
  alpha Z        PSCENC =      2356.08184027
  Ewald energy   TEWEN  =    -62471.85692533
  -Hartree energ DENC   =    -42951.04803731
  -exchange      EXHF   =         0.00000000
  -V(xc)+E(xc)   XCENC  =      3286.47496483
  PAW double counting   =    112259.81449706  -115953.62387450
  entropy T*S    EENTRO =         0.00000000
  eigenvalues    EBANDS =    -10624.43716461
  atomic energy  EATOM  =    114020.06510763
  Solvation  Ediel_sol  =         0.00000000
  ---------------------------------------------------
  free energy    TOTEN  =       -78.52959197 eV

  energy without entropy =      -78.52959197  energy(sigma->0) =      -78.52959197


--------------------------------------------------------------------------------------------------------




--------------------------------------- Iteration      1(   3)  ---------------------------------------


     EDDAV:  cpu time  151.7740: real time  152.8220
 BZINTS: Fermi energy:  5.003107;688.000000 electrons
         Band energy:***********;  BLOECHL correction:  0.000000
       DOS:  cpu time    0.0065: real time    0.0065
    --------------------------------------------
      LOOP:  cpu time  151.7804: real time  152.8285

 eigenvalue-minimisations  : 22272
 total energy-change (2. order) :-0.2459201E+03  (-0.2450581E+03)
 number of electron     688.0000287 magnetization       0.0000000
 augmentation part      688.0000287 magnetization       0.0000000

 Free energy of the ion-electron system (eV)
  ---------------------------------------------------
  alpha Z        PSCENC =      2356.08184027
  Ewald energy   TEWEN  =    -62471.85692533
  -Hartree energ DENC   =    -42951.04803731
  -exchange      EXHF   =         0.00000000
  -V(xc)+E(xc)   XCENC  =      3286.47496483
  PAW double counting   =    112259.81449706  -115953.62387450
  entropy T*S    EENTRO =         0.00000000
  eigenvalues    EBANDS =    -10870.35730276
  atomic energy  EATOM  =    114020.06510763
  Solvation  Ediel_sol  =         0.00000000
  ---------------------------------------------------
  free energy    TOTEN  =      -324.44973011 eV

  energy without entropy =     -324.44973011  energy(sigma->0) =     -324.44973011


--------------------------------------------------------------------------------------------------------




--------------------------------------- Iteration      1(   4)  ---------------------------------------


     EDDAV:  cpu time  123.9467: real time  124.8360
 BZINTS: Fermi energy:  4.894182;688.000000 electrons
         Band energy:***********;  BLOECHL correction:  0.000000
       DOS:  cpu time    0.0056: real time    0.0056
    --------------------------------------------
      LOOP:  cpu time  123.9522: real time  124.8416

 eigenvalue-minimisations  : 19712
 total energy-change (2. order) :-0.3435179E+01  (-0.3435013E+01)
 number of electron     688.0000287 magnetization       0.0000000
 augmentation part      688.0000287 magnetization       0.0000000

 Free energy of the ion-electron system (eV)
  ---------------------------------------------------
  alpha Z        PSCENC =      2356.08184027
  Ewald energy   TEWEN  =    -62471.85692533
  -Hartree energ DENC   =    -42951.04803731
  -exchange      EXHF   =         0.00000000
  -V(xc)+E(xc)   XCENC  =      3286.47496483
  PAW double counting   =    112259.81449706  -115953.62387450
  entropy T*S    EENTRO =         0.00000000
  eigenvalues    EBANDS =    -10873.79248165
  atomic energy  EATOM  =    114020.06510763
  Solvation  Ediel_sol  =         0.00000000
  ---------------------------------------------------
  free energy    TOTEN  =      -327.88490900 eV

  energy without entropy =     -327.88490900  energy(sigma->0) =     -327.88490900


--------------------------------------------------------------------------------------------------------




--------------------------------------- Iteration      1(   5)  ---------------------------------------


     EDDAV:  cpu time  145.2124: real time  146.2228
 BZINTS: Fermi energy:  4.831826;688.000000 electrons
         Band energy:***********;  BLOECHL correction:  0.000000
       DOS:  cpu time    0.0055: real time    0.0056
    CHARGE:  cpu time    1.3967: real time    1.4073
    MIXING:  cpu time    0.0062: real time    0.0062
    --------------------------------------------
      LOOP:  cpu time  146.6207: real time  147.6418

 eigenvalue-minimisations  : 21504
 total energy-change (2. order) :-0.1037172E+00  (-0.1037166E+00)
 number of electron     688.0000287 magnetization       0.0000000
 augmentation part      282.2380420 magnetization       0.0000000

 Broyden mixing:
  rms(total) = 0.25486E-01    rms(broyden)= 0.25482E-01
  rms(prec ) = 0.25583E-01
  weight for this iteration     100.00

 Free energy of the ion-electron system (eV)
  ---------------------------------------------------
  alpha Z        PSCENC =      2356.08184027
  Ewald energy   TEWEN  =    -62471.85692533
  -Hartree energ DENC   =    -42951.04803731
  -exchange      EXHF   =         0.00000000
  -V(xc)+E(xc)   XCENC  =      3286.47496483
  PAW double counting   =    112259.81449706  -115953.62387450
  entropy T*S    EENTRO =         0.00000000
  eigenvalues    EBANDS =    -10873.89619880
  atomic energy  EATOM  =    114020.06510763
  Solvation  Ediel_sol  =         0.00000000
  ---------------------------------------------------
  free energy    TOTEN  =      -327.98862615 eV

  energy without entropy =     -327.98862615  energy(sigma->0) =     -327.98862615


--------------------------------------------------------------------------------------------------------




--------------------------------------- Iteration      1(   6)  ---------------------------------------


    POTLOK:  cpu time    0.1384: real time    0.1419
    SETDIJ:  cpu time    0.0131: real time    0.0132
     EDDAV:  cpu time  173.0231: real time  174.1914
 BZINTS: Fermi energy:  5.001071;688.000000 electrons
         Band energy:***********;  BLOECHL correction:  0.000000
       DOS:  cpu time    0.0064: real time    0.0065
    CHARGE:  cpu time    1.3956: real time    1.4059
    MIXING:  cpu time    0.0029: real time    0.1691
    --------------------------------------------
      LOOP:  cpu time  174.5796: real time  175.9280

 eigenvalue-minimisations  : 23808
 total energy-change (2. order) :-0.5110715E-02  (-0.5141079E-02)
 number of electron     688.0000287 magnetization       0.0000000
 augmentation part      282.2115934 magnetization       0.0000000

 Broyden mixing:
  rms(total) = 0.97228E-02    rms(broyden)= 0.97199E-02
  rms(prec ) = 0.10124E-01
  weight for this iteration     100.00

 eigenvalues of (default mixing * dielectric matrix)
  average eigenvalue GAMMA=   0.7242
  0.7242

 Free energy of the ion-electron system (eV)
  ---------------------------------------------------
  alpha Z        PSCENC =      2356.08184027
  Ewald energy   TEWEN  =    -62471.85692533
  -Hartree energ DENC   =    -42951.61245506
  -exchange      EXHF   =         0.00000000
  -V(xc)+E(xc)   XCENC  =      3286.49924346
  PAW double counting   =    112280.70058723  -115974.70219088
  entropy T*S    EENTRO =         0.00000000
  eigenvalues    EBANDS =    -10873.16894418
  atomic energy  EATOM  =    114020.06510763
  Solvation  Ediel_sol  =         0.00000000
  ---------------------------------------------------
  free energy    TOTEN  =      -327.99373687 eV

  energy without entropy =     -327.99373687  energy(sigma->0) =     -327.99373687


--------------------------------------------------------------------------------------------------------




--------------------------------------- Iteration      1(   7)  ---------------------------------------


    POTLOK:  cpu time    0.1401: real time    0.1411
    SETDIJ:  cpu time    0.0133: real time    0.0133
     EDDAV:  cpu time  148.1172: real time  149.1456
 BZINTS: Fermi energy:  4.987232;688.000000 electrons
         Band energy:***********;  BLOECHL correction:  0.000000
       DOS:  cpu time    0.0062: real time    0.0063
    CHARGE:  cpu time    1.3941: real time    1.4045
    MIXING:  cpu time    0.0021: real time    0.0338
    --------------------------------------------
      LOOP:  cpu time  149.6730: real time  150.7445

 eigenvalue-minimisations  : 21504
 total energy-change (2. order) :-0.2985611E-03  (-0.3426152E-03)
 number of electron     688.0000287 magnetization       0.0000000
 augmentation part      282.2256138 magnetization       0.0000000

 Broyden mixing:
  rms(total) = 0.87539E-02    rms(broyden)= 0.87529E-02
  rms(prec ) = 0.91217E-02
  weight for this iteration     100.00

 eigenvalues of (default mixing * dielectric matrix)
  average eigenvalue GAMMA=   0.5490
  0.5490  0.5490

 Free energy of the ion-electron system (eV)
  ---------------------------------------------------
  alpha Z        PSCENC =      2356.08184027
  Ewald energy   TEWEN  =    -62471.85692533
  -Hartree energ DENC   =    -42950.68753734
  -exchange      EXHF   =         0.00000000
  -V(xc)+E(xc)   XCENC  =      3286.46953233
  PAW double counting   =    112273.37433681  -115967.20783135
  entropy T*S    EENTRO =         0.00000000
  eigenvalues    EBANDS =    -10874.23255845
  atomic energy  EATOM  =    114020.06510763
  Solvation  Ediel_sol  =         0.00000000
  ---------------------------------------------------
  free energy    TOTEN  =      -327.99403543 eV

  energy without entropy =     -327.99403543  energy(sigma->0) =     -327.99403543


--------------------------------------------------------------------------------------------------------




--------------------------------------- Iteration      1(   8)  ---------------------------------------


    POTLOK:  cpu time    0.1392: real time    0.1410
    SETDIJ:  cpu time    0.0132: real time    0.0133
     EDDAV:  cpu time  154.8519: real time  155.9308
 BZINTS: Fermi energy:  4.978933;688.000000 electrons
         Band energy:***********;  BLOECHL correction:  0.000000
       DOS:  cpu time    0.0063: real time    0.0063
    CHARGE:  cpu time    1.5872: real time    1.5985
    MIXING:  cpu time    0.0023: real time    0.0217
    --------------------------------------------
      LOOP:  cpu time  156.6001: real time  157.7115

 eigenvalue-minimisations  : 22528
 total energy-change (2. order) :-0.1468571E-04  (-0.3625120E-04)
 number of electron     688.0000287 magnetization       0.0000000
 augmentation part      282.2230453 magnetization       0.0000000

 Broyden mixing:
  rms(total) = 0.76314E-02    rms(broyden)= 0.76311E-02
  rms(prec ) = 0.77182E-02
  weight for this iteration     100.00

 eigenvalues of (default mixing * dielectric matrix)
  average eigenvalue GAMMA=   0.4315
  0.5176  0.5176  0.2591

 Free energy of the ion-electron system (eV)
  ---------------------------------------------------
  alpha Z        PSCENC =      2356.08184027
  Ewald energy   TEWEN  =    -62471.85692533
  -Hartree energ DENC   =    -42951.00819445
  -exchange      EXHF   =         0.00000000
  -V(xc)+E(xc)   XCENC  =      3286.48080366
  PAW double counting   =    112271.89388280  -115965.76053576
  entropy T*S    EENTRO =         0.00000000
  eigenvalues    EBANDS =    -10873.89002894
  atomic energy  EATOM  =    114020.06510763
  Solvation  Ediel_sol  =         0.00000000
  ---------------------------------------------------
  free energy    TOTEN  =      -327.99405012 eV

  energy without entropy =     -327.99405012  energy(sigma->0) =     -327.99405012


--------------------------------------------------------------------------------------------------------




--------------------------------------- Iteration      1(   9)  ---------------------------------------


    POTLOK:  cpu time    0.1411: real time    0.1420
    SETDIJ:  cpu time    0.0129: real time    0.0129
     EDDAV:  cpu time  133.6144: real time  134.5558
 BZINTS: Fermi energy:  4.973645;688.000000 electrons
         Band energy:***********;  BLOECHL correction:  0.000000
       DOS:  cpu time    0.0063: real time    0.0063
    CHARGE:  cpu time    1.3966: real time    1.4051
    MIXING:  cpu time    0.0019: real time    0.0019
    --------------------------------------------
      LOOP:  cpu time  135.1731: real time  136.1241

 eigenvalue-minimisations  : 20480
 total energy-change (2. order) : 0.2807355E-06  (-0.2050488E-05)
 number of electron     688.0000287 magnetization       0.0000000
 augmentation part      282.2219858 magnetization       0.0000000

 Broyden mixing:
  rms(total) = 0.67456E-02    rms(broyden)= 0.67455E-02
  rms(prec ) = 0.67669E-02
  weight for this iteration     100.00

 eigenvalues of (default mixing * dielectric matrix)
  average eigenvalue GAMMA=   0.5520
  0.7525  0.7525  0.3515  0.3515

 Free energy of the ion-electron system (eV)
  ---------------------------------------------------
  alpha Z        PSCENC =      2356.08184027
  Ewald energy   TEWEN  =    -62471.85692533
  -Hartree energ DENC   =    -42951.04461600
  -exchange      EXHF   =         0.00000000
  -V(xc)+E(xc)   XCENC  =      3286.47985404
  PAW double counting   =    112270.85895180  -115964.72857815
  entropy T*S    EENTRO =         0.00000000
  eigenvalues    EBANDS =    -10873.84968409
  atomic energy  EATOM  =    114020.06510763
  Solvation  Ediel_sol  =         0.00000000
  ---------------------------------------------------
  free energy    TOTEN  =      -327.99404984 eV

  energy without entropy =     -327.99404984  energy(sigma->0) =     -327.99404984


--------------------------------------------------------------------------------------------------------




--------------------------------------- Iteration      1(  10)  ---------------------------------------


    POTLOK:  cpu time    0.1410: real time    0.1432
    SETDIJ:  cpu time    0.0131: real time    0.0131
     EDDAV:  cpu time  168.6638: real time  169.8204
 BZINTS: Fermi energy:  4.969417;688.000000 electrons
         Band energy:***********;  BLOECHL correction:  0.000000
       DOS:  cpu time    0.0063: real time    0.0064
    CHARGE:  cpu time    1.3952: real time    1.4045
    MIXING:  cpu time    0.0019: real time    0.0019
    --------------------------------------------
      LOOP:  cpu time  170.2214: real time  171.3895

 eigenvalue-minimisations  : 24064
 total energy-change (2. order) : 0.6467890E-06  (-0.1835346E-06)
 number of electron     688.0000287 magnetization       0.0000000
 augmentation part      282.2214997 magnetization       0.0000000

 Broyden mixing:
  rms(total) = 0.51036E-02    rms(broyden)= 0.51036E-02
  rms(prec ) = 0.51255E-02
  weight for this iteration     100.00

 eigenvalues of (default mixing * dielectric matrix)
  average eigenvalue GAMMA=   0.8548
  1.4581  1.4581  0.5056  0.5056  0.3465

 Free energy of the ion-electron system (eV)
  ---------------------------------------------------
  alpha Z        PSCENC =      2356.08184027
  Ewald energy   TEWEN  =    -62471.85692533
  -Hartree energ DENC   =    -42951.09795298
  -exchange      EXHF   =         0.00000000
  -V(xc)+E(xc)   XCENC  =      3286.47971784
  PAW double counting   =    112268.05266258  -115961.91069956
  entropy T*S    EENTRO =         0.00000000
  eigenvalues    EBANDS =    -10873.80779963
  atomic energy  EATOM  =    114020.06510763
  Solvation  Ediel_sol  =         0.00000000
  ---------------------------------------------------
  free energy    TOTEN  =      -327.99404919 eV

  energy without entropy =     -327.99404919  energy(sigma->0) =     -327.99404919


--------------------------------------------------------------------------------------------------------




--------------------------------------- Iteration      1(  11)  ---------------------------------------


    POTLOK:  cpu time    0.1393: real time    0.1422
    SETDIJ:  cpu time    0.0132: real time    0.0132
     EDDAV:  cpu time  123.1553: real time  124.0348
 BZINTS: Fermi energy:  4.967129;688.000000 electrons
         Band energy:***********;  BLOECHL correction:  0.000000
       DOS:  cpu time    0.0064: real time    0.0064
    CHARGE:  cpu time    1.3950: real time    1.4053
    MIXING:  cpu time    0.0020: real time    0.0020
    --------------------------------------------
      LOOP:  cpu time  124.7112: real time  125.6039

 eigenvalue-minimisations  : 19456
 total energy-change (2. order) : 0.1725493E-05  (-0.2869078E-06)
 number of electron     688.0000287 magnetization       0.0000000
 augmentation part      282.2229433 magnetization       0.0000000

 Broyden mixing:
  rms(total) = 0.75662E-03    rms(broyden)= 0.75662E-03
  rms(prec ) = 0.78976E-03
  weight for this iteration     100.00

 eigenvalues of (default mixing * dielectric matrix)
  average eigenvalue GAMMA=   0.8890
  1.5813  1.5813  0.6532  0.6532  0.5309  0.3340

 Free energy of the ion-electron system (eV)
  ---------------------------------------------------
  alpha Z        PSCENC =      2356.08184027
  Ewald energy   TEWEN  =    -62471.85692533
  -Hartree energ DENC   =    -42951.10342018
  -exchange      EXHF   =         0.00000000
  -V(xc)+E(xc)   XCENC  =      3286.47743688
  PAW double counting   =    112260.50690081  -115954.31334455
  entropy T*S    EENTRO =         0.00000000
  eigenvalues    EBANDS =    -10873.85164300
  atomic energy  EATOM  =    114020.06510763
  Solvation  Ediel_sol  =         0.00000000
  ---------------------------------------------------
  free energy    TOTEN  =      -327.99404746 eV

  energy without entropy =     -327.99404746  energy(sigma->0) =     -327.99404746


--------------------------------------------------------------------------------------------------------




--------------------------------------- Iteration      1(  12)  ---------------------------------------


    POTLOK:  cpu time    0.1383: real time    0.1395
    SETDIJ:  cpu time    0.0131: real time    0.0132
     EDDAV:  cpu time  193.9827: real time  195.2839
 BZINTS: Fermi energy:  4.965699;688.000000 electrons
         Band energy:***********;  BLOECHL correction:  0.000000
       DOS:  cpu time    0.0064: real time    0.0064
    CHARGE:  cpu time    1.3945: real time    1.4047
    MIXING:  cpu time    0.0020: real time    0.0020
    --------------------------------------------
      LOOP:  cpu time  195.5370: real time  196.8497

 eigenvalue-minimisations  : 26624
 total energy-change (2. order) : 0.1237058E-06  (-0.7195091E-07)
 number of electron     688.0000287 magnetization       0.0000000
 augmentation part      282.2234835 magnetization       0.0000000

 Broyden mixing:
  rms(total) = 0.26728E-03    rms(broyden)= 0.26728E-03
  rms(prec ) = 0.28850E-03
  weight for this iteration     100.00

 eigenvalues of (default mixing * dielectric matrix)
  average eigenvalue GAMMA=   0.8670
  1.5879  1.5879  0.7435  0.7435  0.5343  0.5343  0.3375

 Free energy of the ion-electron system (eV)
  ---------------------------------------------------
  alpha Z        PSCENC =      2356.08184027
  Ewald energy   TEWEN  =    -62471.85692533
  -Hartree energ DENC   =    -42951.09879818
  -exchange      EXHF   =         0.00000000
  -V(xc)+E(xc)   XCENC  =      3286.47716351
  PAW double counting   =    112259.09151557  -115952.88984663
  entropy T*S    EENTRO =         0.00000000
  eigenvalues    EBANDS =    -10873.86410418
  atomic energy  EATOM  =    114020.06510763
  Solvation  Ediel_sol  =         0.00000000
  ---------------------------------------------------
  free energy    TOTEN  =      -327.99404734 eV

  energy without entropy =     -327.99404734  energy(sigma->0) =     -327.99404734


--------------------------------------------------------------------------------------------------------




--------------------------------------- Iteration      1(  13)  ---------------------------------------


    POTLOK:  cpu time    0.1407: real time    0.1419
    SETDIJ:  cpu time    0.0131: real time    0.0131
     EDDAV:  cpu time  119.5593: real time  120.4127
 BZINTS: Fermi energy:  4.965062;688.000000 electrons
         Band energy:***********;  BLOECHL correction:  0.000000
       DOS:  cpu time    0.0064: real time    0.0064
    CHARGE:  cpu time    1.5983: real time    1.6094
    MIXING:  cpu time    0.0023: real time    0.0023
    --------------------------------------------
      LOOP:  cpu time  121.3201: real time  122.1858

 eigenvalue-minimisations  : 18944
 total energy-change (2. order) :-0.4512549E-07  (-0.4101825E-08)
 number of electron     688.0000287 magnetization       0.0000000
 augmentation part      282.2233826 magnetization       0.0000000

 Broyden mixing:
  rms(total) = 0.19373E-03    rms(broyden)= 0.19372E-03
  rms(prec ) = 0.21167E-03
  weight for this iteration     100.00

 eigenvalues of (default mixing * dielectric matrix)
  average eigenvalue GAMMA=   1.0472
  2.0748  2.0748  1.0498  1.0498  0.3363  0.5341  0.6290  0.6290

 Free energy of the ion-electron system (eV)
  ---------------------------------------------------
  alpha Z        PSCENC =      2356.08184027
  Ewald energy   TEWEN  =    -62471.85692533
  -Hartree energ DENC   =    -42951.09886030
  -exchange      EXHF   =         0.00000000
  -V(xc)+E(xc)   XCENC  =      3286.47732013
  PAW double counting   =    112259.40412473  -115953.20524405
  entropy T*S    EENTRO =         0.00000000
  eigenvalues    EBANDS =    -10873.86141046
  atomic energy  EATOM  =    114020.06510763
  Solvation  Ediel_sol  =         0.00000000
  ---------------------------------------------------
  free energy    TOTEN  =      -327.99404738 eV

  energy without entropy =     -327.99404738  energy(sigma->0) =     -327.99404738


--------------------------------------------------------------------------------------------------------




--------------------------------------- Iteration      1(  14)  ---------------------------------------


    POTLOK:  cpu time    0.1504: real time    0.1521
    SETDIJ:  cpu time    0.0138: real time    0.0139
     EDDAV:  cpu time  146.3411: real time  147.3256
 BZINTS: Fermi energy:  4.964638;688.000000 electrons
         Band energy:***********;  BLOECHL correction:  0.000000
       DOS:  cpu time    0.0064: real time    0.0064
    CHARGE:  cpu time    1.5966: real time    1.6061
    MIXING:  cpu time    0.0023: real time    0.0023
    --------------------------------------------
      LOOP:  cpu time  148.1107: real time  149.1064

 eigenvalue-minimisations  : 19456
 total energy-change (2. order) : 0.4656613E-08  (-0.1127316E-07)
 number of electron     688.0000287 magnetization       0.0000000
 augmentation part      282.2235377 magnetization       0.0000000

 Broyden mixing:
  rms(total) = 0.64601E-04    rms(broyden)= 0.64596E-04
  rms(prec ) = 0.67756E-04
  weight for this iteration     100.00

 eigenvalues of (default mixing * dielectric matrix)
  average eigenvalue GAMMA=   1.0616
  2.6525  1.5336  1.5336  0.8681  0.8681  0.3363  0.6141  0.6141  0.5344

 Free energy of the ion-electron system (eV)
  ---------------------------------------------------
  alpha Z        PSCENC =      2356.08184027
  Ewald energy   TEWEN  =    -62471.85692533
  -Hartree energ DENC   =    -42951.09085456
  -exchange      EXHF   =         0.00000000
  -V(xc)+E(xc)   XCENC  =      3286.47723432
  PAW double counting   =    112259.30535866  -115953.10672294
  entropy T*S    EENTRO =         0.00000000
  eigenvalues    EBANDS =    -10873.86908543
  atomic energy  EATOM  =    114020.06510763
  Solvation  Ediel_sol  =         0.00000000
  ---------------------------------------------------
  free energy    TOTEN  =      -327.99404738 eV

  energy without entropy =     -327.99404738  energy(sigma->0) =     -327.99404738


--------------------------------------------------------------------------------------------------------




--------------------------------------- Iteration      1(  15)  ---------------------------------------


    POTLOK:  cpu time    0.1369: real time    0.1406
    SETDIJ:  cpu time    0.0132: real time    0.0133
     EDDAV:  cpu time   71.8907: real time   72.4357
 BZINTS: Fermi energy:  4.964484;688.000000 electrons
         Band energy:***********;  BLOECHL correction:  0.000000
       DOS:  cpu time    0.0064: real time    0.0064
    CHARGE:  cpu time    1.3969: real time    1.4071
    MIXING:  cpu time    0.0021: real time    0.0022
    --------------------------------------------
      LOOP:  cpu time   73.4462: real time   74.0053

 eigenvalue-minimisations  : 12288
 total energy-change (2. order) : 0.1468288E-07  (-0.7114198E-09)
 number of electron     688.0000287 magnetization       0.0000000
 augmentation part      282.2235598 magnetization       0.0000000

 Broyden mixing:
  rms(total) = 0.63123E-04    rms(broyden)= 0.63123E-04
  rms(prec ) = 0.63807E-04
  weight for this iteration     100.00

 eigenvalues of (default mixing * dielectric matrix)
  average eigenvalue GAMMA=   1.0813
  2.7043  1.6064  1.6064  1.0038  1.0038  0.3363  0.6840  0.6840  0.5482  0.6359

 Free energy of the ion-electron system (eV)
  ---------------------------------------------------
  alpha Z        PSCENC =      2356.08184027
  Ewald energy   TEWEN  =    -62471.85692533
  -Hartree energ DENC   =    -42951.09092363
  -exchange      EXHF   =         0.00000000
  -V(xc)+E(xc)   XCENC  =      3286.47713956
  PAW double counting   =    112259.10252984  -115952.90281146
  entropy T*S    EENTRO =         0.00000000
  eigenvalues    EBANDS =    -10873.87000424
  atomic energy  EATOM  =    114020.06510763
  Solvation  Ediel_sol  =         0.00000000
  ---------------------------------------------------
  free energy    TOTEN  =      -327.99404737 eV

  energy without entropy =     -327.99404737  energy(sigma->0) =     -327.99404737


--------------------------------------------------------------------------------------------------------




--------------------------------------- Iteration      1(  16)  ---------------------------------------


    POTLOK:  cpu time    0.1393: real time    0.1404
    SETDIJ:  cpu time    0.0131: real time    0.0132
     EDDAV:  cpu time  132.6162: real time  133.5074
 BZINTS: Fermi energy:  4.964339;688.000000 electrons
         Band energy:***********;  BLOECHL correction:  0.000000
       DOS:  cpu time    0.0064: real time    0.0065
    CHARGE:  cpu time    1.3969: real time    1.4074
    MIXING:  cpu time    0.0024: real time    0.0112
    --------------------------------------------
      LOOP:  cpu time  134.1743: real time  135.0861

 eigenvalue-minimisations  : 17408
 total energy-change (2. order) :-0.1685112E-07  ( 0.2391693E-10)
 number of electron     688.0000287 magnetization       0.0000000
 augmentation part      282.2235187 magnetization       0.0000000

 Broyden mixing:
  rms(total) = 0.21989E-04    rms(broyden)= 0.21989E-04
  rms(prec ) = 0.23085E-04
  weight for this iteration     100.00

 eigenvalues of (default mixing * dielectric matrix)
  average eigenvalue GAMMA=   1.1521
  2.8830  1.8150  1.8150  1.2682  1.2682  0.3363  0.8040  0.6673  0.6673  0.5487
  0.6005

 Free energy of the ion-electron system (eV)
  ---------------------------------------------------
  alpha Z        PSCENC =      2356.08184027
  Ewald energy   TEWEN  =    -62471.85692533
  -Hartree energ DENC   =    -42951.09214189
  -exchange      EXHF   =         0.00000000
  -V(xc)+E(xc)   XCENC  =      3286.47720515
  PAW double counting   =    112259.13321193  -115952.93414280
  entropy T*S    EENTRO =         0.00000000
  eigenvalues    EBANDS =    -10873.86820233
  atomic energy  EATOM  =    114020.06510763
  Solvation  Ediel_sol  =         0.00000000
  ---------------------------------------------------
  free energy    TOTEN  =      -327.99404738 eV

  energy without entropy =     -327.99404738  energy(sigma->0) =     -327.99404738


--------------------------------------------------------------------------------------------------------




--------------------------------------- Iteration      1(  17)  ---------------------------------------


    POTLOK:  cpu time    0.1375: real time    0.1396
    SETDIJ:  cpu time    0.0132: real time    0.0133
     EDDAV:  cpu time   67.3778: real time   67.9015
 BZINTS: Fermi energy:  4.964287;688.000000 electrons
         Band energy:***********;  BLOECHL correction:  0.000000
       DOS:  cpu time    0.0064: real time    0.0064
    --------------------------------------------
      LOOP:  cpu time   67.5350: real time   68.0608

 eigenvalue-minimisations  : 12032
 total energy-change (2. order) :-0.7756171E-08  ( 0.2172972E-09)
 number of electron     688.0000287 magnetization       0.0000000
 augmentation part      282.2235187 magnetization       0.0000000

 Free energy of the ion-electron system (eV)
  ---------------------------------------------------
  alpha Z        PSCENC =      2356.08184027
  Ewald energy   TEWEN  =    -62471.85692533
  -Hartree energ DENC   =    -42951.09212692
  -exchange      EXHF   =         0.00000000
  -V(xc)+E(xc)   XCENC  =      3286.47720926
  PAW double counting   =    112259.11189423  -115952.91272683
  entropy T*S    EENTRO =         0.00000000
  eigenvalues    EBANDS =    -10873.86831970
  atomic energy  EATOM  =    114020.06510763
  Solvation  Ediel_sol  =         0.00000000
  ---------------------------------------------------
  free energy    TOTEN  =      -327.99404739 eV

  energy without entropy =     -327.99404739  energy(sigma->0) =     -327.99404739


--------------------------------------------------------------------------------------------------------




 average (electrostatic) potential at core
  the test charge radii are     0.9698  0.8297  0.9500
  (the norm of the test charge is              1.0000)
       1 -86.6214       2 -86.6214       3 -86.6214       4 -86.6214       5 -86.6214
       6 -86.6214       7 -86.6214       8 -86.6214       9 -86.6429      10 -86.6429
      11 -86.6429      12 -86.6429      13 -86.5989      14 -86.5989      15 -86.5989
      16 -86.5989      17 -86.6214      18 -86.6214      19 -86.6214      20 -86.6214
      21 -86.6214      22 -86.6214      23 -86.6214      24 -86.6214      25 -86.6429
      26 -86.6429      27 -86.6429      28 -86.6429      29 -86.5989      30 -86.5989
      31 -86.5989      32 -86.5989      33 -80.6997      34 -80.6997      35 -80.6997
      36 -80.6997      37 -80.6997      38 -80.6997      39 -80.6997      40 -80.6997
      41 -80.6997      42 -80.6997      43 -80.6997      44 -80.6997      45 -80.6997
      46 -80.6997      47 -80.6997      48 -80.6997      49 -80.2252      50 -80.2252
      51 -80.2252      52 -80.2252      53 -80.2252      54 -80.2252      55 -80.2252
      56 -80.2252      57 -80.2252      58 -80.2252      59 -80.2252      60 -80.2252
      61 -80.2252      62 -80.2252      63 -80.2252      64 -80.2252
 
 
 
 E-fermi :   4.9643     XC(G=0): -10.4670     alpha+bet :-10.5461


 spin component 1

 k-point     1 :       0.0000    0.0000    0.0000
  band No.  band energies     occupation 
      1     -64.3096      1.00000
      2     -64.3096      1.00000
      3     -64.3096      1.00000
      4     -64.3096      1.00000
      5     -64.3096      1.00000
      6     -64.3095      1.00000
      7     -64.3095      1.00000
      8     -64.3095      1.00000
      9     -64.2802      1.00000
     10     -64.2802      1.00000
     11     -64.2802      1.00000
     12     -64.2802      1.00000
     13     -64.2802      1.00000
     14     -64.2802      1.00000
     15     -64.2802      1.00000
     16     -64.2802      1.00000
     17     -64.2783      1.00000
     18     -64.2783      1.00000
     19     -64.2783      1.00000
     20     -64.2783      1.00000
     21     -64.2783      1.00000
     22     -64.2783      1.00000
     23     -64.2783      1.00000
     24     -64.2783      1.00000
     25     -64.2739      1.00000
     26     -64.2739      1.00000
     27     -64.2739      1.00000
     28     -64.2739      1.00000
     29     -64.2739      1.00000
     30     -64.2739      1.00000
     31     -64.2739      1.00000
     32     -64.2739      1.00000
     33     -64.2603      1.00000
     34     -64.2603      1.00000
     35     -64.2603      1.00000
     36     -64.2603      1.00000
     37     -64.2603      1.00000
     38     -64.2603      1.00000
     39     -64.2603      1.00000
     40     -64.2603      1.00000
     41     -64.2592      1.00000
     42     -64.2592      1.00000
     43     -64.2592      1.00000
     44     -64.2592      1.00000
     45     -64.2592      1.00000
     46     -64.2592      1.00000
     47     -64.2592      1.00000
     48     -64.2592      1.00000
     49     -51.8876      1.00000
     50     -51.8876      1.00000
     51     -51.8876      1.00000
     52     -51.8876      1.00000
     53     -51.8876      1.00000
     54     -51.8876      1.00000
     55     -51.8876      1.00000
     56     -51.8876      1.00000
     57     -51.8430      1.00000
     58     -51.8430      1.00000
[...]
   -.421E+02 0.121E+02 -.373E+00   0.429E+02 -.122E+02 0.371E+00   -.855E+00 0.792E-01 0.115E-02   0.705E-05 0.207E-05 -.123E-05
   -.421E+02 0.121E+02 -.373E+00   0.429E+02 -.122E+02 0.371E+00   -.855E+00 0.792E-01 0.115E-02   0.701E-05 0.207E-05 -.117E-05
   -.421E+02 0.121E+02 -.373E+00   0.429E+02 -.122E+02 0.371E+00   -.855E+00 0.792E-01 0.115E-02   0.705E-05 0.150E-05 -.122E-05
   -.421E+02 0.121E+02 -.373E+00   0.429E+02 -.122E+02 0.371E+00   -.855E+00 0.792E-01 0.115E-02   0.701E-05 0.150E-05 -.116E-05
   0.421E+02 0.121E+02 0.373E+00   -.429E+02 -.122E+02 -.371E+00   0.855E+00 0.792E-01 -.115E-02   -.703E-05 0.177E-05 0.146E-05
   0.421E+02 0.121E+02 0.373E+00   -.429E+02 -.122E+02 -.371E+00   0.855E+00 0.792E-01 -.115E-02   -.704E-05 0.177E-05 0.146E-05
   0.421E+02 0.121E+02 0.373E+00   -.429E+02 -.122E+02 -.371E+00   0.855E+00 0.792E-01 -.115E-02   -.703E-05 0.175E-05 0.926E-06
   0.421E+02 0.121E+02 0.373E+00   -.429E+02 -.122E+02 -.371E+00   0.855E+00 0.792E-01 -.115E-02   -.705E-05 0.176E-05 0.925E-06
   0.124E-06 -.327E+02 0.477E-06   0.646E-06 0.335E+02 0.369E-05   0.000E+00 -.783E+00 -.132E-22   -.356E-07 0.109E-05 -.268E-06
   0.107E-06 -.327E+02 -.539E-06   0.512E-06 0.335E+02 -.380E-05   0.157E-22 -.783E+00 -.132E-22   0.894E-08 0.109E-05 0.270E-06
   0.124E-06 -.327E+02 0.477E-06   0.646E-06 0.335E+02 0.369E-05   -.165E-23 -.783E+00 0.132E-22   -.356E-07 0.104E-05 -.268E-06
   0.107E-06 -.327E+02 -.539E-06   0.512E-06 0.335E+02 -.380E-05   0.103E-22 -.783E+00 0.000E+00   0.894E-08 0.104E-05 0.270E-06
   -.187E-06 0.516E+02 0.125E-06   -.137E-05 -.525E+02 0.753E-07   -.610E-23 0.937E+00 0.827E-24   0.295E-06 -.605E-05 -.104E-07
   0.102E-06 0.516E+02 0.111E-06   0.765E-06 -.525E+02 -.295E-07   -.296E-22 0.937E+00 0.000E+00   -.272E-06 -.605E-05 0.939E-08
   -.187E-06 0.516E+02 0.125E-06   -.137E-05 -.525E+02 0.753E-07   0.607E-23 0.937E+00 -.331E-23   0.295E-06 -.606E-05 -.104E-07
   0.102E-06 0.516E+02 0.111E-06   0.765E-06 -.525E+02 -.295E-07   -.163E-22 0.937E+00 -.331E-23   -.272E-06 -.606E-05 0.939E-08
   0.260E+01 -.115E+02 0.212E+00   -.257E+01 0.110E+02 -.217E+00   -.336E-01 0.463E+00 0.456E-02   -.667E-04 0.742E-04 -.742E-04
   0.260E+01 -.115E+02 0.212E+00   -.257E+01 0.110E+02 -.217E+00   -.336E-01 0.463E+00 0.456E-02   -.672E-04 0.742E-04 -.749E-04
   0.260E+01 -.115E+02 0.212E+00   -.257E+01 0.110E+02 -.217E+00   -.336E-01 0.463E+00 0.456E-02   -.667E-04 0.738E-04 -.734E-04
   0.260E+01 -.115E+02 0.212E+00   -.257E+01 0.110E+02 -.217E+00   -.336E-01 0.463E+00 0.456E-02   -.671E-04 0.738E-04 -.741E-04
   -.260E+01 -.115E+02 -.212E+00   0.257E+01 0.110E+02 0.217E+00   0.336E-01 0.463E+00 -.456E-02   0.679E-04 0.743E-04 0.741E-04
   -.260E+01 -.115E+02 -.212E+00   0.257E+01 0.110E+02 0.217E+00   0.336E-01 0.463E+00 -.456E-02   0.659E-04 0.742E-04 0.750E-04
   -.260E+01 -.115E+02 -.212E+00   0.257E+01 0.110E+02 0.217E+00   0.336E-01 0.463E+00 -.456E-02   0.679E-04 0.739E-04 0.733E-04
   -.260E+01 -.115E+02 -.212E+00   0.257E+01 0.110E+02 0.217E+00   0.336E-01 0.463E+00 -.456E-02   0.659E-04 0.738E-04 0.742E-04
   0.260E+01 -.115E+02 0.212E+00   -.257E+01 0.110E+02 -.217E+00   -.336E-01 0.463E+00 0.456E-02   -.657E-04 0.750E-04 -.742E-04
   0.260E+01 -.115E+02 0.212E+00   -.257E+01 0.110E+02 -.217E+00   -.336E-01 0.463E+00 0.456E-02   -.679E-04 0.751E-04 -.751E-04
   0.260E+01 -.115E+02 0.212E+00   -.257E+01 0.110E+02 -.217E+00   -.336E-01 0.463E+00 0.456E-02   -.658E-04 0.729E-04 -.733E-04
   0.260E+01 -.115E+02 0.212E+00   -.257E+01 0.110E+02 -.217E+00   -.336E-01 0.463E+00 0.456E-02   -.680E-04 0.730E-04 -.742E-04
   -.260E+01 -.115E+02 -.212E+00   0.257E+01 0.110E+02 0.217E+00   0.336E-01 0.463E+00 -.456E-02   0.670E-04 0.750E-04 0.742E-04
   -.260E+01 -.115E+02 -.212E+00   0.257E+01 0.110E+02 0.217E+00   0.336E-01 0.463E+00 -.456E-02   0.667E-04 0.750E-04 0.751E-04
   -.260E+01 -.115E+02 -.212E+00   0.257E+01 0.110E+02 0.217E+00   0.336E-01 0.463E+00 -.456E-02   0.671E-04 0.730E-04 0.733E-04
   -.260E+01 -.115E+02 -.212E+00   0.257E+01 0.110E+02 0.217E+00   0.336E-01 0.463E+00 -.456E-02   0.668E-04 0.730E-04 0.742E-04
   -.299E+01 -.113E+02 0.411E+00   0.293E+01 0.107E+02 -.419E+00   0.638E-01 0.614E+00 0.813E-02   -.491E-05 -.402E-05 -.218E-04
   -.299E+01 -.113E+02 0.411E+00   0.293E+01 0.107E+02 -.419E+00   0.638E-01 0.614E+00 0.813E-02   -.646E-05 -.394E-05 -.211E-04
   -.299E+01 -.113E+02 0.411E+00   0.293E+01 0.107E+02 -.419E+00   0.638E-01 0.614E+00 0.813E-02   -.499E-05 -.569E-05 -.225E-04
   -.299E+01 -.113E+02 0.411E+00   0.293E+01 0.107E+02 -.419E+00   0.638E-01 0.614E+00 0.813E-02   -.654E-05 -.561E-05 -.218E-04
   0.299E+01 -.113E+02 -.411E+00   -.293E+01 0.107E+02 0.419E+00   -.638E-01 0.614E+00 -.813E-02   0.590E-05 -.399E-05 0.217E-04
   0.299E+01 -.113E+02 -.411E+00   -.293E+01 0.107E+02 0.419E+00   -.638E-01 0.614E+00 -.813E-02   0.547E-05 -.396E-05 0.211E-04
   0.299E+01 -.113E+02 -.411E+00   -.293E+01 0.107E+02 0.419E+00   -.638E-01 0.614E+00 -.813E-02   0.597E-05 -.565E-05 0.224E-04
   0.299E+01 -.113E+02 -.411E+00   -.293E+01 0.107E+02 0.419E+00   -.638E-01 0.614E+00 -.813E-02   0.555E-05 -.562E-05 0.218E-04
   -.299E+01 -.113E+02 0.411E+00   0.293E+01 0.107E+02 -.419E+00   0.638E-01 0.614E+00 0.813E-02   -.561E-05 -.460E-05 -.218E-04
   -.299E+01 -.113E+02 0.411E+00   0.293E+01 0.107E+02 -.419E+00   0.638E-01 0.614E+00 0.813E-02   -.590E-05 -.462E-05 -.211E-04
   -.299E+01 -.113E+02 0.411E+00   0.293E+01 0.107E+02 -.419E+00   0.638E-01 0.614E+00 0.813E-02   -.559E-05 -.495E-05 -.225E-04
   -.299E+01 -.113E+02 0.411E+00   0.293E+01 0.107E+02 -.419E+00   0.638E-01 0.614E+00 0.813E-02   -.587E-05 -.498E-05 -.218E-04
   0.299E+01 -.113E+02 -.411E+00   -.293E+01 0.107E+02 0.419E+00   -.638E-01 0.614E+00 -.813E-02   0.661E-05 -.456E-05 0.218E-04
   0.299E+01 -.113E+02 -.411E+00   -.293E+01 0.107E+02 0.419E+00   -.638E-01 0.614E+00 -.813E-02   0.490E-05 -.464E-05 0.211E-04
   0.299E+01 -.113E+02 -.411E+00   -.293E+01 0.107E+02 0.419E+00   -.638E-01 0.614E+00 -.813E-02   0.658E-05 -.492E-05 0.225E-04
   0.299E+01 -.113E+02 -.411E+00   -.293E+01 0.107E+02 0.419E+00   -.638E-01 0.614E+00 -.813E-02   0.487E-05 -.499E-05 0.218E-04
 -----------------------------------------------------------------------------------------------
   -.552E-04 -.197E+02 0.257E-03   -.857E-13 0.426E-13 0.137E-11   0.860E-15 0.197E+02 0.000E+00   0.391E-09 0.110E-02 -.111E-08
 
 
 POSITION                                       TOTAL-FORCE (eV/Angst)
 -----------------------------------------------------------------------------------
      1.37242      1.29187      1.30420        -0.000351     -0.000362      0.000016
      6.63039      1.29187      1.30420        -0.000351     -0.000362      0.000016
      1.37242      6.55040      1.30420        -0.000351     -0.000362      0.000016
      6.63039      6.55040      1.30420        -0.000351     -0.000362      0.000016
      3.97638      3.92114      1.29693         0.000351     -0.000362     -0.000016
      9.23434      3.92114      1.29693         0.000351     -0.000362     -0.000016
      3.97638      9.17966      1.29693         0.000351     -0.000362     -0.000016
      9.23434      9.17966      1.29693         0.000351     -0.000362     -0.000016
      1.63241      3.91571      9.10394         0.000000      0.000544     -0.000000
      6.89037      3.91571      9.10394         0.000000      0.000544     -0.000000
      1.63241      9.17424      9.10394         0.000000      0.000544     -0.000000
      6.89037      9.17424      9.10394         0.000000      0.000544     -0.000000
      4.26139      1.31010      9.10394         0.000000     -0.000267     -0.000000
      9.51936      1.31010      9.10394         0.000000     -0.000267     -0.000000
      4.26139      6.56862      9.10394         0.000000     -0.000267     -0.000000
      9.51936      6.56862      9.10394         0.000000     -0.000267     -0.000000
      1.52906      1.29187      6.49918         0.000351     -0.000362     -0.000016
      6.78703      1.29187      6.49918         0.000351     -0.000362     -0.000016
      1.52906      6.55040      6.49918         0.000351     -0.000362     -0.000016
      6.78703      6.55040      6.49918         0.000351     -0.000362     -0.000016
      4.18307      3.92114      6.50645        -0.000351     -0.000362      0.000016
      9.44104      3.92114      6.50645        -0.000351     -0.000362      0.000016
      4.18307      9.17966      6.50645        -0.000351     -0.000362      0.000016
      9.44104      9.17966      6.50645        -0.000351     -0.000362      0.000016
      4.07972      1.28645      3.90169         0.000000      0.000544     -0.000000
      9.33769      1.28645      3.90169         0.000000      0.000544     -0.000000
      4.07972      6.54498      3.90169         0.000000      0.000544     -0.000000
      9.33769      6.54498      3.90169         0.000000      0.000544     -0.000000
      1.45074      3.93936      3.90169         0.000000     -0.000267     -0.000000
      6.70871      3.93936      3.90169         0.000000     -0.000267     -0.000000
      1.45074      9.19788      3.90169         0.000000     -0.000267     -0.000000
      6.70871      9.19788      3.90169         0.000000     -0.000267     -0.000000
     10.69097      0.01997      5.20229        -0.000808     -0.000191     -0.000260
      5.43300      0.01997      5.20229        -0.000808     -0.000191     -0.000260
     10.69097      5.27849      5.20229        -0.000808     -0.000191     -0.000260
      5.43300      5.27849      5.20229        -0.000808     -0.000191     -0.000260
      2.72645      0.01997      2.60109         0.000808     -0.000191      0.000260
      7.98441      0.01997      2.60109         0.000808     -0.000191      0.000260
      2.72645      5.27849      2.60109         0.000808     -0.000191      0.000260
      7.98441      5.27849      2.60109         0.000808     -0.000191      0.000260
      2.62235      2.64923      0.00004        -0.000808     -0.000191     -0.000260
      7.88032      2.64923      0.00004        -0.000808     -0.000191     -0.000260
      2.62235      7.90776      0.00004        -0.000808     -0.000191     -0.000260
      7.88032      7.90776      0.00004        -0.000808     -0.000191     -0.000260
      0.27913      2.64923      7.80335         0.000808     -0.000191      0.000260
      5.53710      2.64923      7.80335         0.000808     -0.000191      0.000260
      0.27913      7.90776      7.80335         0.000808     -0.000191      0.000260
      5.53710      7.90776      7.80335         0.000808     -0.000191      0.000260
     10.51266      0.01915      0.00060        -0.000467      0.000415      0.000132
      5.25470      0.01915      0.00060        -0.000467      0.000415      0.000132
     10.51266      5.27768      0.00060        -0.000467      0.000415      0.000132
      5.25470      5.27768      0.00060        -0.000467      0.000415      0.000132
      2.90475      0.01915      7.80278         0.000467      0.000415     -0.000132
      8.16271      0.01915      7.80278         0.000467      0.000415     -0.000132
      2.90475      5.27768      7.80278         0.000467      0.000415     -0.000132
      8.16271      5.27768      7.80278         0.000467      0.000415     -0.000132
      2.80738      2.64841      5.20285        -0.000467      0.000415      0.000132
      8.06535      2.64841      5.20285        -0.000467      0.000415      0.000132
      2.80738      7.90694      5.20285        -0.000467      0.000415      0.000132
      8.06535      7.90694      5.20285        -0.000467      0.000415      0.000132
      0.09410      2.64841      2.60053         0.000467      0.000415     -0.000132
      5.35207      2.64841      2.60053         0.000467      0.000415     -0.000132
      0.09410      7.90694      2.60053         0.000467      0.000415     -0.000132
      5.35207      7.90694      2.60053         0.000467      0.000415     -0.000132
 -----------------------------------------------------------------------------------
    total drift:                               -0.000055     -0.023286      0.000257


--------------------------------------------------------------------------------------------------------



  FREE ENERGIE OF THE ION-ELECTRON SYSTEM (eV)
  ---------------------------------------------------
  free  energy   TOTEN  =      -327.99404739 eV

  energy  without entropy=     -327.99404739  energy(sigma->0) =     -327.99404739
 


--------------------------------------------------------------------------------------------------------


    POTLOK:  cpu time    0.1532: real time    0.1541


--------------------------------------------------------------------------------------------------------


 writing wavefunctions
     LOOP+:  cpu time 2416.9855: real time 2434.5305
    4ORBIT:  cpu time    0.0000: real time    0.0000
 


 total charge     
 
# of ion       s       p       d       tot
------------------------------------------
    1        1.314   2.410   0.000   3.723
    2        1.314   2.410   0.000   3.723
    3        1.314   2.410   0.000   3.723
    4        1.314   2.410   0.000   3.723
    5        1.314   2.410   0.000   3.723
    6        1.314   2.410   0.000   3.723
    7        1.314   2.410   0.000   3.723
    8        1.314   2.410   0.000   3.723
    9        1.314   2.408   0.000   3.722
   10        1.314   2.408   0.000   3.722
   11        1.314   2.408   0.000   3.722
   12        1.314   2.408   0.000   3.722
   13        1.313   2.412   0.000   3.724
   14        1.313   2.412   0.000   3.724
   15        1.313   2.412   0.000   3.724
   16        1.313   2.412   0.000   3.724
   17        1.314   2.410   0.000   3.723
   18        1.314   2.410   0.000   3.723
   19        1.314   2.410   0.000   3.723
   20        1.314   2.410   0.000   3.723
   21        1.314   2.410   0.000   3.723
   22        1.314   2.410   0.000   3.723
   23        1.314   2.410   0.000   3.723
   24        1.314   2.410   0.000   3.723
   25        1.314   2.408   0.000   3.722
   26        1.314   2.408   0.000   3.722
   27        1.314   2.408   0.000   3.722
   28        1.314   2.408   0.000   3.722
   29        1.313   2.412   0.000   3.724
   30        1.313   2.412   0.000   3.724
   31        1.313   2.412   0.000   3.724
   32        1.313   2.412   0.000   3.724
   33        0.259   6.202   8.917  15.378
   34        0.259   6.202   8.917  15.378
   35        0.259   6.202   8.917  15.378
   36        0.259   6.202   8.917  15.378
   37        0.259   6.202   8.917  15.378
   38        0.259   6.202   8.917  15.378
   39        0.259   6.202   8.917  15.378
   40        0.259   6.202   8.917  15.378
   41        0.259   6.202   8.917  15.378
   42        0.259   6.202   8.917  15.378
   43        0.259   6.202   8.917  15.378
   44        0.259   6.202   8.917  15.378
   45        0.259   6.202   8.917  15.378
   46        0.259   6.202   8.917  15.378
   47        0.259   6.202   8.917  15.378
   48        0.259   6.202   8.917  15.378
   49        0.350   6.350   5.820  12.520
   50        0.350   6.350   5.820  12.520
   51        0.350   6.350   5.820  12.520
   52        0.350   6.350   5.820  12.520
   53        0.350   6.350   5.820  12.520
   54        0.350   6.350   5.820  12.520
   55        0.350   6.350   5.820  12.520
   56        0.350   6.350   5.820  12.520
   57        0.350   6.350   5.820  12.520
   58        0.350   6.350   5.820  12.520
   59        0.350   6.350   5.820  12.520
   60        0.350   6.350   5.820  12.520
   61        0.350   6.350   5.820  12.520
   62        0.350   6.350   5.820  12.520
   63        0.350   6.350   5.820  12.520
   64        0.350   6.350   5.820  12.520
--------------------------------------------------
tot         51.786 277.952 235.785 565.523
 


 magnetization (x)
 
# of ion       s       p       d       tot
------------------------------------------
    1       -0.000  -0.008   0.000  -0.008
    2       -0.000  -0.008   0.000  -0.008
    3       -0.000  -0.008   0.000  -0.008
    4       -0.000  -0.008   0.000  -0.008
    5        0.000   0.008   0.000   0.008
    6        0.000   0.008   0.000   0.008
    7        0.000   0.008   0.000   0.008
    8        0.000   0.008   0.000   0.008
    9        0.000  -0.000   0.000  -0.000
   10       -0.000   0.000   0.000   0.000
   11        0.000  -0.000   0.000  -0.000
   12       -0.000   0.000   0.000   0.000
   13       -0.000   0.000   0.000   0.000
   14        0.000  -0.000   0.000  -0.000
   15       -0.000   0.000   0.000   0.000
   16        0.000  -0.000   0.000  -0.000
   17        0.000   0.008   0.000   0.008
   18        0.000   0.008   0.000   0.008
   19        0.000   0.008   0.000   0.008
   20        0.000   0.008   0.000   0.008
   21       -0.000  -0.008   0.000  -0.008
   22       -0.000  -0.008   0.000  -0.008
   23       -0.000  -0.008   0.000  -0.008
   24       -0.000  -0.008   0.000  -0.008
   25        0.000  -0.000   0.000  -0.000
   26       -0.000   0.000   0.000   0.000
   27        0.000  -0.000   0.000  -0.000
   28       -0.000   0.000   0.000   0.000
   29       -0.000   0.000   0.000   0.000
   30        0.000  -0.000   0.000  -0.000
   31       -0.000   0.000   0.000   0.000
   32        0.000  -0.000   0.000  -0.000
   33        0.000   0.001  -0.001  -0.000
   34        0.000   0.001  -0.001  -0.000
   35        0.000   0.001  -0.001  -0.000
   36        0.000   0.001  -0.001  -0.000
   37       -0.000  -0.001   0.001   0.000
   38       -0.000  -0.001   0.001   0.000
   39       -0.000  -0.001   0.001   0.000
   40       -0.000  -0.001   0.001   0.000
   41        0.000   0.001  -0.001  -0.000
   42        0.000   0.001  -0.001  -0.000
   43        0.000   0.001  -0.001  -0.000
   44        0.000   0.001  -0.001  -0.000
   45       -0.000  -0.001   0.001   0.000
   46       -0.000  -0.001   0.001   0.000
   47       -0.000  -0.001   0.001   0.000
   48       -0.000  -0.001   0.001   0.000
   49        0.020   0.054   3.671   3.744
   50        0.020   0.054   3.670   3.744
   51        0.020   0.054   3.670   3.744
   52        0.020   0.054   3.670   3.744
   53       -0.020  -0.054  -3.671  -3.744
   54       -0.020  -0.054  -3.670  -3.744
   55       -0.020  -0.054  -3.670  -3.744
   56       -0.020  -0.054  -3.670  -3.744
   57        0.020   0.054   3.670   3.744
   58        0.020   0.054   3.670   3.744
   59        0.020   0.054   3.670   3.744
   60        0.020   0.054   3.670   3.744
   61       -0.020  -0.054  -3.671  -3.744
   62       -0.020  -0.054  -3.670  -3.744
   63       -0.020  -0.054  -3.670  -3.744
   64       -0.020  -0.054  -3.670  -3.744
--------------------------------------------------
tot         -0.000  -0.000   0.000  -0.000
 
 BZINTS: Fermi energy:  4.964287;688.000000 electrons
         Band energy:***********;  BLOECHL correction:  0.000000

 total amount of memory used by VASP MPI-rank0   349631. kBytes
=======================================================================

   base      :      30000. kBytes
   nonl-proj :     217907. kBytes
   fftplans  :       4588. kBytes
   grid      :      69719. kBytes
   one-center:       1990. kBytes
   wavefun   :      25427. kBytes
 
  
  
 General timing and accounting informations for this job:
 ========================================================
  
                  Total CPU time used (sec):     2477.720
                            User time (sec):     2465.120
                          System time (sec):       12.600
                         Elapsed time (sec):     2497.141
  
                   Maximum memory used (kb):      706024.
                   Average memory used (kb):           0.
  
                          Minor page faults:       454424
                          Major page faults:         5739
                 Voluntary context switches:         7185
