       N       E                     dE             d eps       ncg     rms          rms(c)
DAV:   1     0.602494196674E+04    0.60249E+04   -0.51736E+05 16384   0.197E+03
DAV:   2    -0.101215610939E+03   -0.61262E+04   -0.60187E+04 18176   0.446E+02
DAV:   3    -0.346843844321E+03   -0.24563E+03   -0.24483E+03 22528   0.971E+01
DAV:   4    -0.350239308559E+03   -0.33955E+01   -0.33953E+01 19712   0.115E+01
DAV:   5    -0.350344230850E+03   -0.10492E+00   -0.10492E+00 21504   0.198E+00    0.368E+01
DAV:   6    -0.333258982480E+03    0.17085E+02   -0.20216E+01 26112   0.154E+01    0.206E+01
DAV:   7    -0.328561012181E+03    0.46980E+01   -0.11385E+01 20736   0.103E+01    0.150E+01
DAV:   8    -0.327641707281E+03    0.91930E+00   -0.42395E+00 26624   0.461E+00    0.572E+00
DAV:   9    -0.327607056542E+03    0.34651E-01   -0.20618E+00 22016   0.342E+00    0.469E+00
DAV:  10    -0.327587876247E+03    0.19180E-01   -0.12925E+00 21504   0.339E+00    0.288E+00
DAV:  11    -0.327586999798E+03    0.87645E-03   -0.47375E-01 20736   0.186E+00    0.122E+00
DAV:  12    -0.327596004840E+03   -0.90050E-02   -0.84894E-02 25600   0.680E-01    0.432E-01
DAV:  13    -0.327598566224E+03   -0.25614E-02   -0.78161E-03 20480   0.155E-01    0.224E-01
DAV:  14    -0.327599727814E+03   -0.11616E-02   -0.30744E-03 21504   0.681E-02    0.122E-01
DAV:  15    -0.327600315414E+03   -0.58760E-03   -0.14675E-03 20480   0.444E-02    0.698E-02
DAV:  16    -0.327600511861E+03   -0.19645E-03   -0.53689E-04 21504   0.298E-02    0.440E-02
DAV:  17    -0.327600627002E+03   -0.11514E-03   -0.51295E-04 20480   0.214E-02    0.233E-02
DAV:  18    -0.327600654503E+03   -0.27501E-04   -0.18264E-04 21504   0.138E-02    0.107E-02
DAV:  19    -0.327600656828E+03   -0.23245E-05   -0.10239E-05 18944   0.508E-03    0.747E-03
DAV:  20    -0.327600657753E+03   -0.92552E-06   -0.52090E-06 22528   0.273E-03    0.369E-03
DAV:  21    -0.327600658070E+03   -0.31706E-06   -0.14330E-06 21504   0.151E-03    0.166E-03
DAV:  22    -0.327600658190E+03   -0.11985E-06   -0.15522E-07 21504   0.493E-04    0.115E-03
DAV:  23    -0.327600658248E+03   -0.57960E-07   -0.65064E-08 15872   0.283E-04    0.501E-04
DAV:  24    -0.327600658277E+03   -0.29511E-07   -0.56204E-08 15872   0.247E-04    0.284E-04
DAV:  25    -0.327600658280E+03   -0.24884E-08   -0.11039E-08 14336   0.124E-04
   1 F= -.32760066E+03 E0= -.32760066E+03  d E =0.000000E+00  mag=     0.0000
