 vasp.5.4.4.18Apr17-6-g9f103f2a35 (build Oct 30 2023 17:30:16) complex          
  
 executed on             LinuxIFC date 2024.06.30  20:56:50
 running on  256 total cores
 distrk:  each k-point on  256 cores,    1 groups
 distr:  one band on NCORES_PER_BAND=   1 cores,  256 groups


--------------------------------------------------------------------------------------------------------


 INCAR:
 POTCAR:    PAW_PBE S 06Sep2000                   
 POTCAR:     PAW_PBE Cu_pv 06Sep2000              
 POTCAR:     PAW_PBE Fe_pv 02Aug2007              

 ----------------------------------------------------------------------------- 
|                                                                             |
|           W    W    AA    RRRRR   N    N  II  N    N   GGGG   !!!           |
|           W    W   A  A   R    R  NN   N  II  NN   N  G    G  !!!           |
|           W    W  A    A  R    R  N N  N  II  N N  N  G       !!!           |
|           W WW W  AAAAAA  RRRRR   N  N N  II  N  N N  G  GGG   !            |
|           WW  WW  A    A  R   R   N   NN  II  N   NN  G    G                |
|           W    W  A    A  R    R  N    N  II  N    N   GGGG   !!!           |
|                                                                             |
|      For optimal performance we recommend to set                            |
|        NCORE= 4 - approx SQRT( number of cores)                             |
|      NCORE specifies how many cores store one orbital (NPAR=cpu/NCORE).     |
|      This setting can  greatly improve the performance of VASP for DFT.     |
|      The default,   NCORE=1            might be grossly inefficient         |
|      on modern multi-core architectures or massively parallel machines.     |
|      Do your own testing !!!!                                               |
|      Unfortunately you need to use the default for GW and RPA calculations. |
|      (for HF NCORE is supported but not extensively tested yet)             |
|                                                                             |
 ----------------------------------------------------------------------------- 

 POTCAR:    PAW_PBE S 06Sep2000                   
   SHA256 =  0fc7481fb0695f01bdc6462160264c5c84044ae9ec85a907d398b887a2bc3132 S/
   COPYR  = (c) Copyright 06Sep2000 Georg Kresse                                
   COPYR  = This file is part of the software VASP. Any use, copying, and all ot
   COPYR  = If you do not have a valid VASP license, you may not use, copy or di
   VRHFIN =S : s2p4                                                             
   LEXCH  = PE                                                                  
   EATOM  =   276.8230 eV,   20.3459 Ry                                         
                                                                                
   TITEL  = PAW_PBE S 06Sep2000                                                 
   LULTRA =        F    use ultrasoft PP ?                                      
   IUNSCR =        1    unscreen: 0-lin 1-nonlin 2-no                           
   RPACOR =    1.500    partial core radius                                     
   POMASS =   32.066; ZVAL   =    6.000    mass and valenz                      
   RCORE  =    1.900    outmost cutoff radius                                   
   RWIGS  =    2.200; RWIGS  =    1.164    wigner-seitz radius (au A)           
   ENMAX  =  258.689; ENMIN  =  194.016 eV                                      
   ICORE  =        2    local potential                                         
   LCOR   =        T    correct aug charges                                     
   LPAW   =        T    paw PP                                                  
   EAUG   =  335.092                                                            
   DEXC   =    0.000                                                            
   RMAX   =    1.942    core radius for proj-oper                               
   RAUG   =    1.300    factor for augmentation sphere                          
   RDEP   =    1.954    radius for radial grids                                 
   RDEPT  =    1.744    core radius for aug-charge                              
                                                                                
   Atomic configuration                                                         
    6 entries                                                                   
     n  l   j            E        occ.                                          
     1  0  0.50     -2405.8406   2.0000                                         
     2  0  0.50      -211.7007   2.0000                                         
     2  1  1.50      -156.4958   6.0000                                         
     3  0  0.50       -17.2562   2.0000                                         
     3  1  0.50        -7.0085   4.0000                                         
     3  2  1.50        -6.8029   0.0000                                         
   Description                                                                  
     l       E           TYP  RCUT    TYP  RCUT                                 
     0    -17.2561641     23  1.900                                             
     0    -15.8743224     23  1.900                                             
     1     -7.0085400     23  1.900                                             
     1     -2.7779785     23  1.900                                             
     2     -6.8029130     23  1.900                                             
  local pseudopotential read in
  partial core-charges read in
  partial kinetic energy density read in
  atomic valenz-charges read in
  non local Contribution for L=           0  read in
    real space projection operators read in
  non local Contribution for L=           0  read in
    real space projection operators read in
  non local Contribution for L=           1  read in
    real space projection operators read in
  non local Contribution for L=           1  read in
    real space projection operators read in
    PAW grid and wavefunctions read in
 
   number of l-projection  operators is LMAX  =           4
   number of lm-projection operators is LMMAX =           8
 
 POTCAR:     PAW_PBE Cu_pv 06Sep2000              
   SHA256 =  cb7b504e2ea725fe1f25c85a9ac77d4012ce94cd394135b722c4e25ec297f1cb Cu
   COPYR  = (c) Copyright 06Sep2000 Georg Kresse                                
   COPYR  = This file is part of the software VASP. Any use, copying, and all ot
   COPYR  = If you do not have a valid VASP license, you may not use, copy or di
   VRHFIN =Cu: d10 p1                                                           
   LEXCH  = PE                                                                  
   EATOM  =  4120.1201 eV,  302.8203 Ry                                         
                                                                                
   TITEL  = PAW_PBE Cu_pv 06Sep2000                                             
   LULTRA =        F    use ultrasoft PP ?                                      
   IUNSCR =        1    unscreen: 0-lin 1-nonlin 2-no                           
   RPACOR =    1.500    partial core radius                                     
   POMASS =   63.546; ZVAL   =   17.000    mass and valenz                      
   RCORE  =    2.000    outmost cutoff radius                                   
   RWIGS  =    2.000; RWIGS  =    1.058    wigner-seitz radius (au A)           
   ENMAX  =  368.648; ENMIN  =  276.486 eV                                      
   RCLOC  =    1.304    cutoff for local pot                                    
   LCOR   =        T    correct aug charges                                     
   LPAW   =        T    paw PP                                                  
   EAUG   =  758.233                                                            
   DEXC   =    0.000                                                            
   RMAX   =    2.046    core radius for proj-oper                               
   RAUG   =    1.300    factor for augmentation sphere                          
   RDEP   =    2.025    radius for radial grids                                 
   RDEPT  =    1.558    core radius for aug-charge                              
                                                                                
   Atomic configuration                                                         
    8 entries                                                                   
     n  l   j            E        occ.                                          
     1  0  0.50     -8850.2467   2.0000                                         
     2  0  0.50     -1062.3498   2.0000                                         
     2  1  1.50      -916.8226   6.0000                                         
     3  0  0.50      -114.6929   2.0000                                         
     3  1  1.50       -72.1325   6.0000                                         
     3  2  2.50        -5.0394  10.0000                                         
     4  0  0.50        -4.6097   1.0000                                         
     4  3  2.50        -1.3606   0.0000                                         
   Description                                                                  
     l       E           TYP  RCUT    TYP  RCUT                                 
     1    -72.1324777     23  1.700                                             
     1     -1.3605826     23  1.700                                             
     2     -5.0393776     23  2.000                                             
     2     -6.3999602     23  2.000                                             
     0     -4.6097062     23  1.800                                             
     0     14.1620818     23  1.800                                             
  local pseudopotential read in
  partial core-charges read in
  partial kinetic energy density read in
  atomic valenz-charges read in
  non local Contribution for L=           1  read in
    real space projection operators read in
  non local Contribution for L=           1  read in
    real space projection operators read in
  non local Contribution for L=           2  read in
    real space projection operators read in
  non local Contribution for L=           2  read in
    real space projection operators read in
  non local Contribution for L=           0  read in
    real space projection operators read in
  non local Contribution for L=           0  read in
    real space projection operators read in
    PAW grid and wavefunctions read in
 
   number of l-projection  operators is LMAX  =           6
   number of lm-projection operators is LMMAX =          18
 
 POTCAR:     PAW_PBE Fe_pv 02Aug2007              
   SHA256 =  5d22e414b1f82158bf2c7ecb8b97b28fd0923e48cadc1c3bf74d524558f5dd32 Fe
   COPYR  = (c) Copyright 02Aug2007 Georg Kresse                                
   COPYR  = This file is part of the software VASP. Any use, copying, and all ot
   COPYR  = If you do not have a valid VASP license, you may not use, copy or di
   VRHFIN =Fe:  3pd7s1                                                          
   LEXCH  = PE                                                                  
   EATOM  =  2457.4239 eV,  180.6156 Ry                                         
                                                                                
   TITEL  = PAW_PBE Fe_pv 02Aug2007                                             
   LULTRA =        F    use ultrasoft PP ?                                      
   IUNSCR =        1    unscreen: 0-lin 1-nonlin 2-no                           
   RPACOR =    1.750    partial core radius                                     
   POMASS =   55.847; ZVAL   =   14.000    mass and valenz                      
   RCORE  =    2.200    outmost cutoff radius                                   
   RWIGS  =    2.200; RWIGS  =    1.164    wigner-seitz radius (au A)           
   ENMAX  =  293.238; ENMIN  =  219.928 eV                                      
   ICORE  =        3    local potential                                         
   LCOR   =        T    correct aug charges                                     
   LPAW   =        T    paw PP                                                  
   EAUG   =  578.342                                                            
   DEXC   =    0.000                                                            
   RMAX   =    2.249    core radius for proj-oper                               
   RAUG   =    1.300    factor for augmentation sphere                          
   RDEP   =    2.296    radius for radial grids                                 
   RDEPT  =    1.766    core radius for aug-charge                              
                                                                                
   Atomic configuration                                                         
    8 entries                                                                   
     n  l   j            E        occ.                                          
     1  0  0.50     -6993.8440   2.0000                                         
     2  0  0.50      -814.6047   2.0000                                         
     2  1  1.50      -693.3689   6.0000                                         
     3  0  0.50       -89.4732   2.0000                                         
     3  1  1.50       -55.6373   6.0000                                         
     3  2  2.50        -3.8151   7.0000                                         
     4  0  0.50        -4.2551   1.0000                                         
     4  3  2.50        -1.3606   0.0000                                         
   Description                                                                  
     l       E           TYP  RCUT    TYP  RCUT                                 
     1    -55.6372668     23  2.000                                             
     1     -5.4423304     23  2.000                                             
     2     -3.8151096     23  2.200                                             
     2     -5.1756922     23  2.200                                             
     0     -4.2550951     23  2.200                                             
     0     27.2116520     23  2.200                                             
     3     -1.3605826     23  2.200                                             
  local pseudopotential read in
  partial core-charges read in
  partial kinetic energy density read in
  atomic valenz-charges read in
  non local Contribution for L=           1  read in
    real space projection operators read in
  non local Contribution for L=           1  read in
    real space projection operators read in
  non local Contribution for L=           2  read in
    real space projection operators read in
  non local Contribution for L=           2  read in
    real space projection operators read in
  non local Contribution for L=           0  read in
    real space projection operators read in
  non local Contribution for L=           0  read in
    real space projection operators read in
    PAW grid and wavefunctions read in
 
   number of l-projection  operators is LMAX  =           6
   number of lm-projection operators is LMMAX =          18
 

 ----------------------------------------------------------------------------- 
|                                                                             |
|  ADVICE TO THIS USER RUNNING 'VASP/VAMP'   (HEAR YOUR MASTER'S VOICE ...):  |
|                                                                             |
|      You have a (more or less) 'large supercell' and for larger cells       |
|      it might be more efficient to use real space projection opertators     |
|      So try LREAL= Auto  in the INCAR   file.                               |
|      Mind:          For very  accurate calculation you might also keep the  |
|      reciprocal projection scheme          (i.e. LREAL=.FALSE.)             |
|                                                                             |
 ----------------------------------------------------------------------------- 


 ----------------------------------------------------------------------------- 
|                                                                             |
|  ADVICE TO THIS USER RUNNING 'VASP/VAMP'   (HEAR YOUR MASTER'S VOICE ...):  |
|                                                                             |
|      You enforced a specific xc-type in the INCAR file,                     |
|      a different type was found on the POTCAR file                          |
|          I HOPE YOU KNOW, WHAT YOU ARE  DOING                               |
|                                                                             |
 ----------------------------------------------------------------------------- 

  PAW_PBE S 06Sep2000                   :
 energy of atom  1       EATOM= -276.8230
 kinetic energy error for atom=    0.0007 (will be added to EATOM!!)
   PAW_PBE Cu_pv 06Sep2000              :
 energy of atom  2       EATOM=-4120.1201
 kinetic energy error for atom=    0.0094 (will be added to EATOM!!)
   PAW_PBE Fe_pv 02Aug2007              :
 energy of atom  3       EATOM=-2457.4239
 kinetic energy error for atom=    0.0025 (will be added to EATOM!!)
 
 
 POSCAR: Fe16 Cu16 S32                           
  positions in direct lattice
  No initial velocities read in
 exchange correlation table for  LEXCH =       14
   RHO(1)=    0.500       N(1)  =     2000
   RHO(2)=  100.500       N(2)  =     4000
 


--------------------------------------------------------------------------------------------------------


 ion  position               nearest neighbor table
   1  0.126  0.120  0.126-  41 2.25  61 2.26  37 2.27  49 2.29
   2  0.626  0.120  0.126-  42 2.25  62 2.26  38 2.27  50 2.29
   3  0.126  0.620  0.126-  43 2.25  63 2.26  39 2.27  51 2.29
   4  0.626  0.620  0.126-  44 2.25  64 2.26  40 2.27  52 2.29
   5  0.374  0.370  0.124-  39 2.25  52 2.26  41 2.27  62 2.29
   6  0.874  0.370  0.124-  40 2.25  51 2.26  42 2.27  61 2.29
   7  0.374  0.870  0.124-  37 2.25  50 2.26  43 2.27  64 2.29
   8  0.874  0.870  0.124-  38 2.25  49 2.26  44 2.27  63 2.29
   9  0.125  0.371  0.875-  41 2.27  45 2.27  51 2.27  55 2.27
  10  0.625  0.371  0.875-  42 2.27  46 2.27  52 2.27  56 2.27
  11  0.125  0.871  0.875-  43 2.27  47 2.27  49 2.27  53 2.27
  12  0.625  0.871  0.875-  44 2.27  48 2.27  50 2.27  54 2.27
  13  0.375  0.123  0.875-  41 2.26  46 2.26  50 2.29  53 2.29
  14  0.875  0.123  0.875-  42 2.26  45 2.26  49 2.29  54 2.29
  15  0.375  0.623  0.875-  43 2.26  48 2.26  52 2.29  55 2.29
  16  0.875  0.623  0.875-  44 2.26  47 2.26  51 2.29  56 2.29
  17  0.124  0.120  0.624-  45 2.25  57 2.26  33 2.27  53 2.29
  18  0.624  0.120  0.624-  46 2.25  58 2.26  34 2.27  54 2.29
  19  0.124  0.620  0.624-  47 2.25  59 2.26  35 2.27  55 2.29
  20  0.624  0.620  0.624-  48 2.25  60 2.26  36 2.27  56 2.29
  21  0.376  0.370  0.626-  36 2.25  55 2.26  46 2.27  57 2.29
  22  0.876  0.370  0.626-  35 2.25  56 2.26  45 2.27  58 2.29
  23  0.376  0.870  0.626-  34 2.25  53 2.26  48 2.27  59 2.29
  24  0.876  0.870  0.626-  33 2.25  54 2.26  47 2.27  60 2.29
  25  0.375  0.121  0.375-  34 2.27  37 2.27  57 2.27  62 2.27
  26  0.875  0.121  0.375-  33 2.27  38 2.27  58 2.27  61 2.27
  27  0.375  0.621  0.375-  36 2.27  39 2.27  59 2.27  64 2.27
  28  0.875  0.621  0.375-  35 2.27  40 2.27  60 2.27  63 2.27
  29  0.125  0.373  0.375-  35 2.26  39 2.26  57 2.29  61 2.29
  30  0.625  0.373  0.375-  36 2.26  40 2.26  58 2.29  62 2.29
  31  0.125  0.873  0.375-  33 2.26  37 2.26  59 2.29  63 2.29
  32  0.625  0.873  0.375-  34 2.26  38 2.26  60 2.29  64 2.29
  33  0.998  0.004  0.500-  24 2.25  31 2.26  26 2.27  17 2.27
  34  0.498  0.004  0.500-  23 2.25  32 2.26  25 2.27  18 2.27
  35  0.998  0.504  0.500-  22 2.25  29 2.26  28 2.27  19 2.27
  36  0.498  0.504  0.500-  21 2.25  30 2.26  27 2.27  20 2.27
  37  0.252  0.004  0.250-   7 2.25  31 2.26  25 2.27   1 2.27
  38  0.752  0.004  0.250-   8 2.25  32 2.26  26 2.27   2 2.27
  39  0.252  0.504  0.250-   5 2.25  29 2.26  27 2.27   3 2.27
  40  0.752  0.504  0.250-   6 2.25  30 2.26  28 2.27   4 2.27
  41  0.248  0.254  0.000-   1 2.25  13 2.26   9 2.27   5 2.27
  42  0.748  0.254  0.000-   2 2.25  14 2.26  10 2.27   6 2.27
  43  0.248  0.754  0.000-   3 2.25  15 2.26  11 2.27   7 2.27
  44  0.748  0.754  0.000-   4 2.25  16 2.26  12 2.27   8 2.27
  45  0.002  0.254  0.750-  17 2.25  14 2.26   9 2.27  22 2.27
  46  0.502  0.254  0.750-  18 2.25  13 2.26  10 2.27  21 2.27
  47  0.002  0.754  0.750-  19 2.25  16 2.26  11 2.27  24 2.27
  48  0.502  0.754  0.750-  20 2.25  15 2.26  12 2.27  23 2.27
  49  0.999  0.004  0.001-   8 2.26  11 2.27  14 2.29   1 2.29
  50  0.499  0.004  0.001-   7 2.26  12 2.27  13 2.29   2 2.29
  51  0.999  0.504  0.001-   6 2.26   9 2.27  16 2.29   3 2.29
  52  0.499  0.504  0.001-   5 2.26  10 2.27  15 2.29   4 2.29
  53  0.251  0.004  0.749-  23 2.26  11 2.27  13 2.29  17 2.29
  54  0.751  0.004  0.749-  24 2.26  12 2.27  14 2.29  18 2.29
  55  0.251  0.504  0.749-  21 2.26   9 2.27  15 2.29  19 2.29
  56  0.751  0.504  0.749-  22 2.26  10 2.27  16 2.29  20 2.29
  57  0.249  0.254  0.501-  17 2.26  25 2.27  29 2.29  21 2.29
  58  0.749  0.254  0.501-  18 2.26  26 2.27  30 2.29  22 2.29
  59  0.249  0.754  0.501-  19 2.26  27 2.27  31 2.29  23 2.29
  60  0.749  0.754  0.501-  20 2.26  28 2.27  32 2.29  24 2.29
  61  0.001  0.254  0.249-   1 2.26  26 2.27  29 2.29   6 2.29
  62  0.501  0.254  0.249-   2 2.26  25 2.27  30 2.29   5 2.29
  63  0.001  0.754  0.249-   3 2.26  28 2.27  31 2.29   8 2.29
  64  0.501  0.754  0.249-   4 2.26  27 2.27  32 2.29   7 2.29
 
  LATTYP: Found a simple monoclinic cell.
 ALAT       =    15.2957252780
 B/A-ratio  =     0.6881616797
 C/A-ratio  =     1.5663065781
 COS(beta)  =    -0.9546702014
  
  Lattice vectors:
  
 A1 = ( -10.8662360000,   0.0000000000, -10.7649490000)
 A2 = (   0.0000000000, -10.5259320000,   0.0000000000)
 A3 = (  11.2293480000,   0.0000000000,  21.1631210000)


Analysis of symmetry for initial positions (statically):
=====================================================================
 Subroutine PRICEL returns following result:
 
  LATTYP: Found a base centered monoclinic cell.
 ALAT       =    11.3242547373
 B/A-ratio  =     0.4647516435
 C/A-ratio  =     0.9187810043
 COS(beta)  =    -0.8038406231
  
  Lattice vectors:
  
 A1 = (  -2.4442250000,  -2.6314830000,   5.1073917500)
 A2 = (  -2.4442250000,   2.6314830000,   5.1073917500)
 A3 = (  -0.3631120000,   0.0000000000, -10.3981720000)
 
   8 primitive cells build up your supercell.
 

 Routine SETGRP: Setting up the symmetry group for a 
 simple monoclinic supercell.


 Subroutine GETGRP returns: Found  2 space group operations
 (whereof  1 operations were pure point group operations)
 out of a pool of  4 trial point group operations.


The static configuration has the point symmetry C_1 .
 The point group associated with its full space group is C_2 .


Analysis of symmetry for dynamics (positions and initial velocities):
=====================================================================
 Subroutine PRICEL returns following result:
 
  LATTYP: Found a base centered monoclinic cell.
 ALAT       =    11.3242547373
 B/A-ratio  =     0.4647516435
 C/A-ratio  =     0.9187810043
 COS(beta)  =    -0.8038406231
  
  Lattice vectors:
  
 A1 = (  -2.4442250000,  -2.6314830000,   5.1073917500)
 A2 = (  -2.4442250000,   2.6314830000,   5.1073917500)
 A3 = (  -0.3631120000,   0.0000000000, -10.3981720000)
 
   8 primitive cells build up your supercell.
 

 Routine SETGRP: Setting up the symmetry group for a 
 simple monoclinic supercell.


 Subroutine GETGRP returns: Found  2 space group operations
 (whereof  1 operations were pure point group operations)
 out of a pool of  4 trial point group operations.


The dynamic configuration has the point symmetry C_1 .
 The point group associated with its full space group is C_2 .


Analysis of structural, dynamic, and magnetic symmetry:
=====================================================================
 Subroutine PRICEL returns following result:
 
  LATTYP: Found a base centered monoclinic cell.
 ALAT       =    11.3242547373
 B/A-ratio  =     0.4647516435
 C/A-ratio  =     0.9187810043
 COS(beta)  =    -0.8038406231
  
  Lattice vectors:
  
 A1 = (  -2.4442250000,  -2.6314830000,   5.1073917500)
 A2 = (  -2.4442250000,   2.6314830000,   5.1073917500)
 A3 = (  -0.3631120000,   0.0000000000, -10.3981720000)
 
   8 primitive cells build up your supercell.
 

 Routine SETGRP: Setting up the symmetry group for a 
 simple monoclinic supercell.


 Subroutine GETGRP returns: Found  2 space group operations
 (whereof  1 operations were pure point group operations)
 out of a pool of  4 trial point group operations.


The magnetic configuration has the point symmetry C_1 .
 The point group associated with its full space group is C_2 .


 Subroutine INISYM returns: Found  2 space group operations
 (whereof  1 operations are pure point group operations),
 and found     8 'primitive' translations

 
 
 KPOINTS: Automatic mesh                          

Automatic generation of k-mesh.
Space group operators:
 irot       det(A)        alpha          n_x          n_y          n_z        tau_x        tau_y        tau_z
    1     1.000000     0.000000     1.000000     0.000000     0.000000     0.000000     0.000000     0.000000
    2     1.000000   180.000000     0.000000     1.000000     0.000000    -0.250000     0.000000    -0.250000
 
 Subroutine IBZKPT returns following result:
 ===========================================
 
 Found      8 irreducible k-points:
 
 Following reciprocal coordinates:
            Coordinates               Weight
  0.000000  0.000000  0.000000      1.000000
  0.500000  0.000000  0.000000      1.000000
  0.000000  0.500000  0.000000      1.000000
  0.500000  0.500000  0.000000      1.000000
  0.000000  0.000000  0.500000      1.000000
  0.500000  0.000000  0.500000      1.000000
  0.000000  0.500000  0.500000      1.000000
  0.500000  0.500000  0.500000      1.000000
 
 Following cartesian coordinates:
            Coordinates               Weight
  0.000000  0.000000  0.000000      1.000000
  0.047663  0.000000 -0.001664      1.000000
  0.000000  0.047502  0.000000      1.000000
  0.047663  0.047502 -0.001664      1.000000
 -0.001681  0.000000  0.048144      1.000000
  0.045982  0.000000  0.046480      1.000000
 -0.001681  0.047502  0.048144      1.000000
  0.045982  0.047502  0.046480      1.000000
 
 TETIRR: Found     24 inequivalent tetrahedra from       48
 
 Subroutine IBZKPT_HF returns following result:
 ==============================================
 
 Found      8 k-points in 1st BZ
 the following      8 k-points will be used (e.g. in the exchange kernel)
 Following reciprocal coordinates:   # in IRBZ
  0.000000  0.000000  0.000000    0.12500000   1 t-inv F
  0.500000  0.000000  0.000000    0.12500000   2 t-inv F
  0.000000  0.500000  0.000000    0.12500000   3 t-inv F
  0.500000  0.500000  0.000000    0.12500000   4 t-inv F
  0.000000  0.000000  0.500000    0.12500000   5 t-inv F
  0.500000  0.000000  0.500000    0.12500000   6 t-inv F
  0.000000  0.500000  0.500000    0.12500000   7 t-inv F
  0.500000  0.500000  0.500000    0.12500000   8 t-inv F


--------------------------------------------------------------------------------------------------------




 Dimension of arrays:
   k-points           NKPTS =      8   k-points in BZ     NKDIM =      8   number of bands    NBANDS=    512
   number of dos      NEDOS =    301   number of ions     NIONS =     64
   non local maximal  LDIM  =      6   non local SUM 2l+1 LMDIM =     18
   total plane-waves  NPLWV = 829440
   max r-space proj   IRMAX =      1   max aug-charges    IRDMAX=  22956
   dimension x,y,z NGX =    96 NGY =   96 NGZ =   90
   dimension x,y,z NGXF=   192 NGYF=  192 NGZF=  180
   support grid    NGXF=   192 NGYF=  192 NGZF=  180
   ions per type =              32  16  16
   NGX,Y,Z   is equivalent  to a cutoff of  15.19, 15.16, 14.38 a.u.
   NGXF,Y,Z  is equivalent  to a cutoff of  30.37, 30.32, 28.76 a.u.

 SYSTEM =  CuFeS2                                  
 POSCAR =  Fe16 Cu16 S32                           

 Startparameter for this run:
   NWRITE =      2    write-flag & timer
   PREC   = accura    normal or accurate (medium, high low for compatibility)
   ISTART =      0    job   : 0-new  1-cont  2-samecut
   ICHARG =      1    charge: 1-file 2-atom 10-const
   ISPIN  =      2    spin polarized calculation?
   LNONCOLLINEAR =      F non collinear calculations
   LSORBIT =      F    spin-orbit coupling
   INIWAV =      1    electr: 0-lowe 1-rand  2-diag
   LASPH  =      F    aspherical Exc in radial PAW
   METAGGA=      F    non-selfconsistent MetaGGA calc.

 Electronic Relaxation 1
   ENCUT  =  700.0 eV  51.45 Ry    7.17 a.u.  22.67 22.71 22.45*2*pi/ulx,y,z
   ENINI  =  700.0     initial cutoff
   ENAUG  =  758.2 eV  augmentation charge cutoff
   NELM   =    500;   NELMIN=  2; NELMDL= -5     # of ELM steps 
   EDIFF  = 0.1E-07   stopping-criterion for ELM
   LREAL  =      F    real-space projection
   NLSPLINE    = F    spline interpolate recip. space projectors
   LCOMPAT=      F    compatible to vasp.4.4
   GGA_COMPAT  = T    GGA compatible to vasp.4.4-vasp.4.6
   LMAXPAW     = -100 max onsite density
   LMAXMIX     =    4 max onsite mixed and CHGCAR
   VOSKOWN=      0    Vosko Wilk Nusair interpolation
   ROPT   =    0.00000   0.00000   0.00000
 Ionic relaxation
   EDIFFG = -.1E-04   stopping-criterion for IOM
   NSW    =      0    number of steps for IOM
   NBLOCK =      1;   KBLOCK =      1    inner block; outer block 
   IBRION =     -1    ionic relax: 0-MD 1-quasi-New 2-CG
   NFREE  =      0    steps in history (QN), initial steepest desc. (CG)
   ISIF   =      2    stress and relaxation
   IWAVPR =     10    prediction:  0-non 1-charg 2-wave 3-comb
   ISYM   =      2    0-nonsym 1-usesym 2-fastsym
   LCORR  =      T    Harris-Foulkes like correction to forces

   POTIM  = 0.5000    time-step for ionic-motion
   TEIN   =    0.0    initial temperature
   TEBEG  =    0.0;   TEEND  =   0.0 temperature during run
   SMASS  =  -3.00    Nose mass-parameter (am)
   estimated Nose-frequenzy (Omega)   =  0.10E-29 period in steps =****** mass=  -0.252E-26a.u.
   SCALEE = 1.0000    scale energy and forces
   NPACO  =    256;   APACO  = 16.0  distance and # of slots for P.C.
   PSTRESS=    0.0 pullay stress

  Mass of Ions in am
   POMASS =  32.07 63.55 55.85
  Ionic Valenz
   ZVAL   =   6.00 17.00 14.00
  Atomic Wigner-Seitz radii
   RWIGS  =  -1.00 -1.00 -1.00
  virtual crystal weights 
   VCA    =   1.00  1.00  1.00
   NELECT =     688.0000    total number of electrons
   NUPDOWN=      -1.0000    fix difference up-down

 DOS related values:
   EMIN   =  10.00;   EMAX   =-10.00  energy-range for DOS
   EFERMI =   0.00
   ISMEAR =    -5;   SIGMA  =   0.03  broadening in eV -4-tet -1-fermi 0-gaus

 Electronic relaxation 2 (details)
   IALGO  =     38    algorithm
   LDIAG  =      T    sub-space diagonalisation (order eigenvalues)
   LSUBROT=      F    optimize rotation matrix (better conditioning)
   TURBO    =      0    0=normal 1=particle mesh
   IRESTART =      0    0=no restart 2=restart with 2 vectors
   NREBOOT  =      0    no. of reboots
   NMIN     =      0    reboot dimension
   EREF     =   0.00    reference energy to select bands
   IMIX   =      4    mixing-type and parameters
     AMIX     =   0.40;   BMIX     =  1.00
     AMIX_MAG =   1.60;   BMIX_MAG =  1.00
     AMIN     =   0.10
     WC   =   100.;   INIMIX=   1;  MIXPRE=   1;  MAXMIX= -45

 Intra band minimization:
   WEIMIN = 0.0000     energy-eigenvalue tresh-hold
   EBREAK =  0.49E-11  absolut break condition
   DEPER  =   0.30     relativ break condition  

   TIME   =   0.40     timestep for ELM

  volume/ion in A,a.u.               =      17.94       121.07
  Fermi-wavevector in a.u.,A,eV,Ry     =   1.380180  2.608161 25.917680  1.904896
  Thomas-Fermi vector in A             =   2.505081
 
 Write flags
   LWAVE        =      T    write WAVECAR
   LDOWNSAMPLE  =      F    k-point downsampling of WAVECAR
   LCHARG       =      T    write CHGCAR
   LVTOT        =      F    write LOCPOT, total local potential
   LVHAR        =      F    write LOCPOT, Hartree potential only
   LELF         =      F    write electronic localiz. function (ELF)
   LORBIT       =     11    0 simple, 1 ext, 2 COOP (PROOUT), +10 PAW based schemes


 Dipole corrections
   LMONO  =      F    monopole corrections only (constant potential shift)
   LDIPOL =      F    correct potential (dipole corrections)
   IDIPOL =      0    1-x, 2-y, 3-z, 4-all directions 
   EPSILON=  1.0000000 bulk dielectric constant

 LDA+U is selected, type is set to LDAUTYPE =  2
   angular momentum for each species LDAUL =     2    2    2
   U (eV)           for each species LDAUU =   0.0  0.1  4.7
   J (eV)           for each species LDAUJ =   0.0  0.0  0.0
 Exchange correlation treatment:
   GGA     =    PS    GGA type
   LEXCH   =    14    internal setting for exchange type
   VOSKOWN=      0    Vosko Wilk Nusair interpolation
   LHFCALC =     F    Hartree Fock is set to
   LHFONE  =     F    Hartree Fock one center treatment
   AEXX    =    0.0000 exact exchange contribution

 Linear response parameters
   LEPSILON=     F    determine dielectric tensor
   LRPA    =     F    only Hartree local field effects (RPA)
   LNABLA  =     F    use nabla operator in PAW spheres
   LVEL    =     F    velocity operator in full k-point grid
   LINTERFAST=   F  fast interpolation
   KINTER  =     0    interpolate to denser k-point grid
   CSHIFT  =0.1000    complex shift for real part using Kramers Kronig
   OMEGAMAX=  -1.0    maximum frequency
   DEG_THRESHOLD= 0.2000000E-02 threshold for treating states as degnerate
   RTIME   =   -0.100 relaxation time in fs
  (WPLASMAI=    0.000 imaginary part of plasma frequency in eV, 0.658/RTIME)
   DFIELD  = 0.0000000 0.0000000 0.0000000 field for delta impulse in time
 
 Orbital magnetization related:
   ORBITALMAG=     F  switch on orbital magnetization
   LCHIMAG   =     F  perturbation theory with respect to B field
   DQ        =  0.001000  dq finite difference perturbation B field
   LLRAUG    =     F  two centre corrections for induced B field

 PEAD related settings:
   LPEAD      =     T    switch on PEAD
   IPEAD      =     4    finite difference order for dpsi/dk
   LCALCPOL   =     T    calculate macroscopic polarization
   LCALCEPS   =     F    calculate dielectric tensor
   EFIELD_PEAD=    0.0000    0.0000    0.0000
   SKIP_EDOTP =     F
   LRPA       =     F
   SKIP_SCF   =     F


--------------------------------------------------------------------------------------------------------


 Static calculation
 charge density and potential will be updated during run
 spin polarized calculation
 Variant of blocked Davidson
 Davidson routine will perform the subspace rotation
 perform sub-space diagonalisation
    after iterative eigenvector-optimisation
 modified Broyden-mixing scheme, WC =      100.0
 initial mixing is a Kerker type mixing with AMIX =  0.4000 and BMIX =      1.0000
 Hartree-type preconditioning will be used
 using additional bands          168
 reciprocal scheme for non local part
 use partial core corrections
 calculate Harris-corrections to forces 
   (improved forces if not selfconsistent)
 use gradient corrections 
 use of overlap-Matrix (Vanderbilt PP)
 Fermi weights with tetrahedron method with Bloechl corrections


--------------------------------------------------------------------------------------------------------


  energy-cutoff  :      700.00
  volume of cell :     1148.17
      direct lattice vectors                 reciprocal lattice vectors
    10.503124000  0.000000000  0.366777000     0.095326014  0.000000000 -0.003328856
     0.000000000 10.525932000  0.000000000     0.000000000  0.095003464  0.000000000
     0.363112000  0.000000000 10.398172000    -0.003362455  0.000000000  0.096288169

  length of vectors
    10.509526113 10.525932000 10.404510141     0.095384120  0.095003464  0.096346861


 
 k-points in units of 2pi/SCALE and weight: Automatic mesh                          
   0.00000000  0.00000000  0.00000000       0.125
   0.04766301  0.00000000 -0.00166443       0.125
   0.00000000  0.04750173  0.00000000       0.125
   0.04766301  0.04750173 -0.00166443       0.125
  -0.00168123  0.00000000  0.04814408       0.125
   0.04598178  0.00000000  0.04647966       0.125
  -0.00168123  0.04750173  0.04814408       0.125
   0.04598178  0.04750173  0.04647966       0.125
 
 k-points in reciprocal lattice and weights: Automatic mesh                          
   0.00000000  0.00000000  0.00000000       0.125
   0.50000000  0.00000000  0.00000000       0.125
   0.00000000  0.50000000  0.00000000       0.125
   0.50000000  0.50000000  0.00000000       0.125
   0.00000000  0.00000000  0.50000000       0.125
   0.50000000  0.00000000  0.50000000       0.125
   0.00000000  0.50000000  0.50000000       0.125
   0.50000000  0.50000000  0.50000000       0.125
 
 position of ions in fractional coordinates (direct lattice) 
   0.12639000  0.12047100  0.12565900
   0.62639000  0.12047100  0.12565900
   0.12639000  0.62047100  0.12565900
   0.62639000  0.62047100  0.12565900
   0.37361000  0.37047100  0.12434100
   0.87361000  0.37047100  0.12434100
   0.37361000  0.87047100  0.12434100
   0.87361000  0.87047100  0.12434100
   0.12500000  0.37140100  0.87500000
   0.62500000  0.37140100  0.87500000
   0.12500000  0.87140100  0.87500000
   0.62500000  0.87140100  0.87500000
   0.37500000  0.12311200  0.87500000
   0.87500000  0.12311200  0.87500000
   0.37500000  0.62311200  0.87500000
   0.87500000  0.62311200  0.87500000
   0.12361000  0.12047100  0.62434100
   0.62361000  0.12047100  0.62434100
   0.12361000  0.62047100  0.62434100
   0.62361000  0.62047100  0.62434100
   0.37639000  0.37047100  0.62565900
   0.87639000  0.37047100  0.62565900
   0.37639000  0.87047100  0.62565900
   0.87639000  0.87047100  0.62565900
   0.37500000  0.12140100  0.37500000
   0.87500000  0.12140100  0.37500000
   0.37500000  0.62140100  0.37500000
   0.87500000  0.62140100  0.37500000
   0.12500000  0.37311200  0.37500000
   0.62500000  0.37311200  0.37500000
   0.12500000  0.87311200  0.37500000
   0.62500000  0.87311200  0.37500000
   0.99825400  0.00367400  0.50001600
   0.49825400  0.00367400  0.50001600
   0.99825400  0.50367400  0.50001600
   0.49825400  0.50367400  0.50001600
   0.25174600  0.00367400  0.24998400
   0.75174600  0.00367400  0.24998400
   0.25174600  0.50367400  0.24998400
   0.75174600  0.50367400  0.24998400
   0.24825400  0.25367400  0.00001600
   0.74825400  0.25367400  0.00001600
   0.24825400  0.75367400  0.00001600
   0.74825400  0.75367400  0.00001600
   0.00174600  0.25367400  0.74998400
   0.50174600  0.25367400  0.74998400
   0.00174600  0.75367400  0.74998400
   0.50174600  0.75367400  0.74998400
   0.99895300  0.00359800  0.00064500
   0.49895300  0.00359800  0.00064500
   0.99895300  0.50359800  0.00064500
   0.49895300  0.50359800  0.00064500
   0.25104700  0.00359800  0.74935500
   0.75104700  0.00359800  0.74935500
   0.25104700  0.50359800  0.74935500
   0.75104700  0.50359800  0.74935500
   0.24895300  0.25359800  0.50064500
   0.74895300  0.25359800  0.50064500
   0.24895300  0.75359800  0.50064500
   0.74895300  0.75359800  0.50064500
   0.00104700  0.25359800  0.24935500
   0.50104700  0.25359800  0.24935500
   0.00104700  0.75359800  0.24935500
   0.50104700  0.75359800  0.24935500
 
 position of ions in cartesian coordinates  (Angst):
   1.37311813  1.26806955  1.35298084
   6.62468013  1.26806955  1.53636934
   1.37311813  6.53103555  1.35298084
   6.62468013  6.53103555  1.53636934
   3.96922187  3.89955255  1.42995066
   9.22078387  3.89955255  1.61333916
   3.96922187  9.16251855  1.42995066
   9.22078387  9.16251855  1.61333916
   1.63061350  3.90934167  9.14424763
   6.88217550  3.90934167  9.32763612
   1.63061350  9.17230767  9.14424763
   6.88217550  9.17230767  9.32763612
   4.25639450  1.29586854  9.23594187
   9.50795650  1.29586854  9.41933038
   4.25639450  6.55883454  9.23594187
   9.50795650  6.55883454  9.41933038
   1.52499687  1.26806955  6.53734241
   6.77655887  1.26806955  6.72073091
   1.52499687  6.53103555  6.53734241
   6.77655887  6.53103555  6.72073091
   4.18045513  3.89955255  6.64376109
   9.43201713  3.89955255  6.82714959
   4.18045513  9.16251855  6.64376109
   9.43201713  9.16251855  6.82714959
   4.07483850  1.27785867  4.03685587
   9.32640050  1.27785867  4.22024438
   4.07483850  6.54082467  4.03685587
   9.32640050  6.54082467  4.22024438
   1.44905750  3.92735154  3.94516162
   6.70061950  3.92735154  4.12855013
   1.44905750  9.19031754  3.94516162
   6.70061950  9.19031754  4.12855013
  10.66634736  0.03867227  5.56538898
   5.41478536  0.03867227  5.38200048
  10.66634736  5.30163827  5.56538898
   5.41478536  5.30163827  5.38200048
   2.73489164  0.03867227  2.69171127
   7.98645364  0.03867227  2.87509977
   2.73489164  5.30163827  2.69171127
   7.98645364  5.30163827  2.87509977
   2.60744836  2.67015527  0.09122023
   7.85901036  2.67015527  0.27460873
   2.60744836  7.93312127  0.09122023
   7.85901036  7.93312127  0.27460873
   0.29066664  2.67015527  7.79910302
   5.54222864  2.67015527  7.98249152
   0.29066664  7.93312127  7.79910302
   5.54222864  7.93312127  7.98249152
  10.49236144  0.03787230  0.37309981
   5.24079944  0.03787230  0.18971131
  10.49236144  5.30083830  0.37309981
   5.24079944  5.30083830  0.18971131
   2.90887756  0.03787230  7.88400044
   8.16043956  0.03787230  8.06738894
   2.90887756  5.30083830  7.88400044
   8.16043956  5.30083830  8.06738894
   2.79657444  2.66935530  5.29710306
   8.04813644  2.66935530  5.48049156
   2.79657444  7.93232130  5.29710306
   8.04813644  7.93232130  5.48049156
   0.10154056  2.66935530  2.59322019
   5.35310256  2.66935530  2.77660869
   0.10154056  7.93232130  2.59322019
   5.35310256  7.93232130  2.77660869
 


--------------------------------------------------------------------------------------------------------


 k-point  1 :   0.0000 0.0000 0.0000  plane waves:   48255
 k-point  2 :   0.5000 0.0000 0.0000  plane waves:   48304
 k-point  3 :   0.0000 0.5000 0.0000  plane waves:   48326
 k-point  4 :   0.5000 0.5000 0.0000  plane waves:   48316
 k-point  5 :   0.0000 0.0000 0.5000  plane waves:   48344
 k-point  6 :   0.5000 0.0000 0.5000  plane waves:   48284
 k-point  7 :   0.0000 0.5000 0.5000  plane waves:   48280
 k-point  8 :   0.5000 0.5000 0.5000  plane waves:   48252

 maximum and minimum number of plane-waves per node :     48344    48252

 maximum number of plane-waves:     48344
 maximum index in each direction: 
   IXMAX=   22   IYMAX=   22   IZMAX=   22
   IXMIN=  -23   IYMIN=  -23   IZMIN=  -22


 serial   3D FFT for wavefunctions
 parallel 3D FFT for charge:
    minimum data exchange during FFTs selected (reduces bandwidth)


 total amount of memory used by VASP MPI-rank0   348353. kBytes
=======================================================================

   base      :      30000. kBytes
   nonl-proj :     216760. kBytes
   fftplans  :       4588. kBytes
   grid      :      69719. kBytes
   one-center:       1990. kBytes
   wavefun   :      25296. kBytes
 
     INWAV:  cpu time    0.0001: real time    0.0002
 Broyden mixing: mesh for mixing (old mesh)
   NGX = 45   NGY = 45   NGZ = 45
  (NGX  =192   NGY  =192   NGZ  =180)
  gives a total of  91125 points

 initial charge density was supplied:
 number of electron     687.9999838 magnetization      -0.0000000
 keeping initial charge density in first step


--------------------------------------------------------------------------------------------------------


 Maximum index for augmentation-charges          897 (set IRDMAX)


--------------------------------------------------------------------------------------------------------


 First call to EWALD:  gamma=   0.169
 Maximum number of real-space cells 3x 3x 3
 Maximum number of reciprocal cells 3x 3x 3

    FEWALD:  cpu time    0.0031: real time    0.0031


--------------------------------------- Iteration      1(   1)  ---------------------------------------


    POTLOK:  cpu time    0.3810: real time    0.4346
    SETDIJ:  cpu time    0.0146: real time    0.0147
     EDDAV:  cpu time   85.2810: real time   85.9945
 BZINTS: Fermi energy: 14.781633;688.000000 electrons
         Band energy:***********;  BLOECHL correction: -0.019084
       DOS:  cpu time    0.0448: real time    0.0450
    --------------------------------------------
      LOOP:  cpu time   85.7214: real time   86.4888

 eigenvalue-minimisations  : 16384
 total energy-change (2. order) : 0.6024942E+04  (-0.5173564E+05)
 number of electron     687.9999838 magnetization      -0.0000000
 augmentation part      687.9999838 magnetization      -0.0000000

 Free energy of the ion-electron system (eV)
  ---------------------------------------------------
  alpha Z        PSCENC =      2361.28012384
  Ewald energy   TEWEN  =    -62532.66376309
  -Hartree energ DENC   =    -42754.33305272
  -exchange      EXHF   =         0.00000000
  -V(xc)+E(xc)   XCENC  =      3281.49390734
  PAW double counting   =    112095.85910443  -115786.62766005
  entropy T*S    EENTRO =         0.00000000
  eigenvalues    EBANDS =     -4660.13180063
  atomic energy  EATOM  =    114020.06510763
  Solvation  Ediel_sol  =         0.00000000
  ---------------------------------------------------
  free energy    TOTEN  =      6024.94196674 eV

  energy without entropy =     6024.94196674  energy(sigma->0) =     6024.94196674


--------------------------------------------------------------------------------------------------------




--------------------------------------- Iteration      1(   2)  ---------------------------------------


     EDDAV:  cpu time  100.5999: real time  101.3587
 BZINTS: Fermi energy:  5.363101;688.000000 electrons
         Band energy:***********;  BLOECHL correction: -0.002039
       DOS:  cpu time    0.0291: real time    0.0293
    --------------------------------------------
      LOOP:  cpu time  100.6289: real time  101.3879

 eigenvalue-minimisations  : 18176
 total energy-change (2. order) :-0.6126158E+04  (-0.6018680E+04)
 number of electron     687.9999838 magnetization      -0.0000000
 augmentation part      687.9999838 magnetization      -0.0000000

 Free energy of the ion-electron system (eV)
  ---------------------------------------------------
  alpha Z        PSCENC =      2361.28012384
  Ewald energy   TEWEN  =    -62532.66376309
  -Hartree energ DENC   =    -42754.33305272
  -exchange      EXHF   =         0.00000000
  -V(xc)+E(xc)   XCENC  =      3281.49390734
  PAW double counting   =    112095.85910443  -115786.62766005
  entropy T*S    EENTRO =         0.00000000
  eigenvalues    EBANDS =    -10786.28937830
  atomic energy  EATOM  =    114020.06510763
  Solvation  Ediel_sol  =         0.00000000
  ---------------------------------------------------
  free energy    TOTEN  =      -101.21561094 eV

  energy without entropy =     -101.21561094  energy(sigma->0) =     -101.21561094


--------------------------------------------------------------------------------------------------------




--------------------------------------- Iteration      1(   3)  ---------------------------------------


     EDDAV:  cpu time  154.9893: real time  156.0533
 BZINTS: Fermi energy:  4.822166;688.000000 electrons
         Band energy:***********;  BLOECHL correction:  0.000000
       DOS:  cpu time    0.0055: real time    0.0055
    --------------------------------------------
      LOOP:  cpu time  154.9948: real time  156.0588

 eigenvalue-minimisations  : 22528
 total energy-change (2. order) :-0.2456282E+03  (-0.2448340E+03)
 number of electron     687.9999838 magnetization      -0.0000000
 augmentation part      687.9999838 magnetization      -0.0000000

 Free energy of the ion-electron system (eV)
  ---------------------------------------------------
  alpha Z        PSCENC =      2361.28012384
  Ewald energy   TEWEN  =    -62532.66376309
  -Hartree energ DENC   =    -42754.33305272
  -exchange      EXHF   =         0.00000000
  -V(xc)+E(xc)   XCENC  =      3281.49390734
  PAW double counting   =    112095.85910443  -115786.62766005
  entropy T*S    EENTRO =         0.00000000
  eigenvalues    EBANDS =    -11031.91761169
  atomic energy  EATOM  =    114020.06510763
  Solvation  Ediel_sol  =         0.00000000
  ---------------------------------------------------
  free energy    TOTEN  =      -346.84384432 eV

  energy without entropy =     -346.84384432  energy(sigma->0) =     -346.84384432


--------------------------------------------------------------------------------------------------------




--------------------------------------- Iteration      1(   4)  ---------------------------------------


     EDDAV:  cpu time  124.1435: real time  125.0347
 BZINTS: Fermi energy:  4.916571;688.000000 electrons
         Band energy:***********;  BLOECHL correction:  0.000000
       DOS:  cpu time    0.0054: real time    0.0054
    --------------------------------------------
      LOOP:  cpu time  124.1489: real time  125.0401

 eigenvalue-minimisations  : 19712
 total energy-change (2. order) :-0.3395464E+01  (-0.3395311E+01)
 number of electron     687.9999838 magnetization      -0.0000000
 augmentation part      687.9999838 magnetization      -0.0000000

 Free energy of the ion-electron system (eV)
  ---------------------------------------------------
  alpha Z        PSCENC =      2361.28012384
  Ewald energy   TEWEN  =    -62532.66376309
  -Hartree energ DENC   =    -42754.33305272
  -exchange      EXHF   =         0.00000000
  -V(xc)+E(xc)   XCENC  =      3281.49390734
  PAW double counting   =    112095.85910443  -115786.62766005
  entropy T*S    EENTRO =         0.00000000
  eigenvalues    EBANDS =    -11035.31307592
  atomic energy  EATOM  =    114020.06510763
  Solvation  Ediel_sol  =         0.00000000
  ---------------------------------------------------
  free energy    TOTEN  =      -350.23930856 eV

  energy without entropy =     -350.23930856  energy(sigma->0) =     -350.23930856


--------------------------------------------------------------------------------------------------------




--------------------------------------- Iteration      1(   5)  ---------------------------------------


     EDDAV:  cpu time  146.8763: real time  147.8983
 BZINTS: Fermi energy:  5.034868;688.000000 electrons
         Band energy:***********;  BLOECHL correction:  0.000000
       DOS:  cpu time    0.0063: real time    0.0063
    CHARGE:  cpu time    1.7177: real time    1.7288
    MIXING:  cpu time    0.0026: real time    0.0027
    --------------------------------------------
      LOOP:  cpu time  148.6028: real time  149.6361

 eigenvalue-minimisations  : 21504
 total energy-change (2. order) :-0.1049223E+00  (-0.1049218E+00)
 number of electron     688.0000068 magnetization      -0.0000000
 augmentation part      284.6259515 magnetization      -0.0000000

 Broyden mixing:
  rms(total) = 0.36783E+01    rms(broyden)= 0.36778E+01
  rms(prec ) = 0.41313E+01
  weight for this iteration     100.00

 Free energy of the ion-electron system (eV)
  ---------------------------------------------------
  alpha Z        PSCENC =      2361.28012384
  Ewald energy   TEWEN  =    -62532.66376309
  -Hartree energ DENC   =    -42754.33305272
  -exchange      EXHF   =         0.00000000
  -V(xc)+E(xc)   XCENC  =      3281.49390734
  PAW double counting   =    112095.85910443  -115786.62766005
  entropy T*S    EENTRO =         0.00000000
  eigenvalues    EBANDS =    -11035.41799822
  atomic energy  EATOM  =    114020.06510763
  Solvation  Ediel_sol  =         0.00000000
  ---------------------------------------------------
  free energy    TOTEN  =      -350.34423085 eV

  energy without entropy =     -350.34423085  energy(sigma->0) =     -350.34423085


--------------------------------------------------------------------------------------------------------




--------------------------------------- Iteration      1(   6)  ---------------------------------------


    POTLOK:  cpu time    0.1601: real time    0.1647
    SETDIJ:  cpu time    0.0173: real time    0.0174
     EDDAV:  cpu time  182.8191: real time  184.0696
 BZINTS: Fermi energy:  4.979347;688.000000 electrons
         Band energy:***********;  BLOECHL correction:  0.000000
       DOS:  cpu time    0.0054: real time    0.0054
    CHARGE:  cpu time    1.4449: real time    1.4551
    MIXING:  cpu time    0.0028: real time    0.0324
    --------------------------------------------
      LOOP:  cpu time  184.4497: real time  185.7446

 eigenvalue-minimisations  : 26112
 total energy-change (2. order) : 0.1708525E+02  (-0.2021578E+01)
 number of electron     688.0000067 magnetization      -0.0000000
 augmentation part      280.6293444 magnetization      -0.0000000

 Broyden mixing:
  rms(total) = 0.20628E+01    rms(broyden)= 0.20627E+01
  rms(prec ) = 0.23016E+01
  weight for this iteration     100.00

 eigenvalues of (default mixing * dielectric matrix)
  average eigenvalue GAMMA=   0.7810
  0.7810

 Free energy of the ion-electron system (eV)
  ---------------------------------------------------
  alpha Z        PSCENC =      2361.28012384
  Ewald energy   TEWEN  =    -62532.66376309
  -Hartree energ DENC   =    -42987.77844279
  -exchange      EXHF   =         0.00000000
  -V(xc)+E(xc)   XCENC  =      3287.76722636
  PAW double counting   =    114026.75423674  -117746.25477796
  entropy T*S    EENTRO =         0.00000000
  eigenvalues    EBANDS =    -10762.42869321
  atomic energy  EATOM  =    114020.06510763
  Solvation  Ediel_sol  =         0.00000000
  ---------------------------------------------------
  free energy    TOTEN  =      -333.25898248 eV

  energy without entropy =     -333.25898248  energy(sigma->0) =     -333.25898248


--------------------------------------------------------------------------------------------------------




--------------------------------------- Iteration      1(   7)  ---------------------------------------


    POTLOK:  cpu time    0.1496: real time    0.1532
    SETDIJ:  cpu time    0.0129: real time    0.0129
     EDDAV:  cpu time  132.2237: real time  133.1659
 BZINTS: Fermi energy:  4.883701;688.000000 electrons
         Band energy:***********;  BLOECHL correction:  0.000000
       DOS:  cpu time    0.0062: real time    0.0063
    CHARGE:  cpu time    1.4463: real time    1.4569
    MIXING:  cpu time    0.0016: real time    0.0039
    --------------------------------------------
      LOOP:  cpu time  133.8403: real time  134.7990

 eigenvalue-minimisations  : 20736
 total energy-change (2. order) : 0.4697970E+01  (-0.1138478E+01)
 number of electron     688.0000068 magnetization      -0.0000000
 augmentation part      283.2756221 magnetization      -0.0000000

 Broyden mixing:
  rms(total) = 0.14968E+01    rms(broyden)= 0.14968E+01
  rms(prec ) = 0.15742E+01
  weight for this iteration     100.00

 eigenvalues of (default mixing * dielectric matrix)
  average eigenvalue GAMMA=   0.9325
  1.3592  0.5058

 Free energy of the ion-electron system (eV)
  ---------------------------------------------------
  alpha Z        PSCENC =      2361.28012384
  Ewald energy   TEWEN  =    -62532.66376309
  -Hartree energ DENC   =    -42837.12994022
  -exchange      EXHF   =         0.00000000
  -V(xc)+E(xc)   XCENC  =      3284.98461033
  PAW double counting   =    113515.30423212  -117199.21711433
  entropy T*S    EENTRO =         0.00000000
  eigenvalues    EBANDS =    -10941.18426846
  atomic energy  EATOM  =    114020.06510763
  Solvation  Ediel_sol  =         0.00000000
  ---------------------------------------------------
  free energy    TOTEN  =      -328.56101218 eV

  energy without entropy =     -328.56101218  energy(sigma->0) =     -328.56101218


--------------------------------------------------------------------------------------------------------




--------------------------------------- Iteration      1(   8)  ---------------------------------------


    POTLOK:  cpu time    0.1515: real time    0.1525
    SETDIJ:  cpu time    0.0129: real time    0.0129
     EDDAV:  cpu time  193.0199: real time  194.3303
 BZINTS: Fermi energy:  4.939732;688.000000 electrons
         Band energy:***********;  BLOECHL correction:  0.000000
       DOS:  cpu time    0.0061: real time    0.0061
    CHARGE:  cpu time    1.5684: real time    1.5791
    MIXING:  cpu time    0.0017: real time    0.0027
    --------------------------------------------
      LOOP:  cpu time  194.7605: real time  196.0836

 eigenvalue-minimisations  : 26624
 total energy-change (2. order) : 0.9193049E+00  (-0.4239550E+00)
 number of electron     688.0000068 magnetization      -0.0000000
 augmentation part      282.8546868 magnetization      -0.0000000

 Broyden mixing:
  rms(total) = 0.57223E+00    rms(broyden)= 0.57222E+00
  rms(prec ) = 0.62982E+00
  weight for this iteration     100.00

 eigenvalues of (default mixing * dielectric matrix)
  average eigenvalue GAMMA=   1.0054
  1.7935  0.6114  0.6114

 Free energy of the ion-electron system (eV)
  ---------------------------------------------------
  alpha Z        PSCENC =      2361.28012384
  Ewald energy   TEWEN  =    -62532.66376309
  -Hartree energ DENC   =    -42890.37978056
  -exchange      EXHF   =         0.00000000
  -V(xc)+E(xc)   XCENC  =      3286.45163117
  PAW double counting   =    113087.03463894  -116779.10740041
  entropy T*S    EENTRO =         0.00000000
  eigenvalues    EBANDS =    -10880.32226480
  atomic energy  EATOM  =    114020.06510763
  Solvation  Ediel_sol  =         0.00000000
  ---------------------------------------------------
  free energy    TOTEN  =      -327.64170728 eV

  energy without entropy =     -327.64170728  energy(sigma->0) =     -327.64170728


--------------------------------------------------------------------------------------------------------




--------------------------------------- Iteration      1(   9)  ---------------------------------------


    POTLOK:  cpu time    0.1522: real time    0.1532
    SETDIJ:  cpu time    0.0128: real time    0.0128
     EDDAV:  cpu time  150.7191: real time  151.7689
 BZINTS: Fermi energy:  4.924437;688.000000 electrons
         Band energy:***********;  BLOECHL correction:  0.000000
       DOS:  cpu time    0.0062: real time    0.0062
    CHARGE:  cpu time    1.4437: real time    1.4532
    MIXING:  cpu time    0.0015: real time    0.0015
    --------------------------------------------
      LOOP:  cpu time  152.3355: real time  153.3958

 eigenvalue-minimisations  : 22016
 total energy-change (2. order) : 0.3465074E-01  (-0.2061790E+00)
 number of electron     688.0000068 magnetization      -0.0000000
 augmentation part      282.0970985 magnetization      -0.0000000

 Broyden mixing:
  rms(total) = 0.46907E+00    rms(broyden)= 0.46906E+00
  rms(prec ) = 0.52447E+00
  weight for this iteration     100.00

 eigenvalues of (default mixing * dielectric matrix)
  average eigenvalue GAMMA=   0.9316
  1.9180  0.7576  0.5253  0.5253

 Free energy of the ion-electron system (eV)
  ---------------------------------------------------
  alpha Z        PSCENC =      2361.28012384
  Ewald energy   TEWEN  =    -62532.66376309
  -Hartree energ DENC   =    -42913.90952003
  -exchange      EXHF   =         0.00000000
  -V(xc)+E(xc)   XCENC  =      3286.26878162
  PAW double counting   =    112970.64479216  -116666.04389661
  entropy T*S    EENTRO =         0.00000000
  eigenvalues    EBANDS =    -10853.24868206
  atomic energy  EATOM  =    114020.06510763
  Solvation  Ediel_sol  =         0.00000000
  ---------------------------------------------------
  free energy    TOTEN  =      -327.60705654 eV

  energy without entropy =     -327.60705654  energy(sigma->0) =     -327.60705654


--------------------------------------------------------------------------------------------------------




--------------------------------------- Iteration      1(  10)  ---------------------------------------


    POTLOK:  cpu time    0.1518: real time    0.1528
    SETDIJ:  cpu time    0.0129: real time    0.0130
     EDDAV:  cpu time  142.3389: real time  143.3411
 BZINTS: Fermi energy:  4.951029;688.000000 electrons
         Band energy:***********;  BLOECHL correction:  0.000000
       DOS:  cpu time    0.0062: real time    0.0062
    CHARGE:  cpu time    1.4436: real time    1.4538
    MIXING:  cpu time    0.0015: real time    0.0015
    --------------------------------------------
      LOOP:  cpu time  143.9549: real time  144.9684

 eigenvalue-minimisations  : 21504
 total energy-change (2. order) : 0.1918030E-01  (-0.1292461E+00)
 number of electron     688.0000068 magnetization       0.0000000
 augmentation part      282.1091108 magnetization       0.0000000

 Broyden mixing:
  rms(total) = 0.28804E+00    rms(broyden)= 0.28804E+00
  rms(prec ) = 0.32065E+00
  weight for this iteration     100.00

 eigenvalues of (default mixing * dielectric matrix)
  average eigenvalue GAMMA=   0.9955
  1.7128  1.7128  0.6476  0.4702  0.4340

 Free energy of the ion-electron system (eV)
  ---------------------------------------------------
  alpha Z        PSCENC =      2361.28012384
  Ewald energy   TEWEN  =    -62532.66376309
  -Hartree energ DENC   =    -42926.67668403
  -exchange      EXHF   =         0.00000000
  -V(xc)+E(xc)   XCENC  =      3287.07775910
  PAW double counting   =    112828.99206000  -116524.08488559
  entropy T*S    EENTRO =         0.00000000
  eigenvalues    EBANDS =    -10841.57759409
  atomic energy  EATOM  =    114020.06510763
  Solvation  Ediel_sol  =         0.00000000
  ---------------------------------------------------
  free energy    TOTEN  =      -327.58787625 eV

  energy without entropy =     -327.58787625  energy(sigma->0) =     -327.58787625


--------------------------------------------------------------------------------------------------------




--------------------------------------- Iteration      1(  11)  ---------------------------------------


    POTLOK:  cpu time    0.1521: real time    0.1530
    SETDIJ:  cpu time    0.0128: real time    0.0129
     EDDAV:  cpu time  136.5398: real time  137.5050
 BZINTS: Fermi energy:  4.930228;688.000000 electrons
         Band energy:***********;  BLOECHL correction:  0.000000
       DOS:  cpu time    0.0062: real time    0.0062
    CHARGE:  cpu time    1.4466: real time    1.4570
    MIXING:  cpu time    0.0015: real time    0.0015
    --------------------------------------------
      LOOP:  cpu time  138.1591: real time  139.1356

 eigenvalue-minimisations  : 20736
 total energy-change (2. order) : 0.8764487E-03  (-0.4737503E-01)
 number of electron     688.0000068 magnetization       0.0000000
 augmentation part      282.2550220 magnetization       0.0000000

 Broyden mixing:
  rms(total) = 0.12232E+00    rms(broyden)= 0.12231E+00
  rms(prec ) = 0.13589E+00
  weight for this iteration     100.00

 eigenvalues of (default mixing * dielectric matrix)
  average eigenvalue GAMMA=   1.0854
  2.0715  2.0715  0.7934  0.6160  0.6160  0.3438

 Free energy of the ion-electron system (eV)
  ---------------------------------------------------
  alpha Z        PSCENC =      2361.28012384
  Ewald energy   TEWEN  =    -62532.66376309
  -Hartree energ DENC   =    -42908.87051456
  -exchange      EXHF   =         0.00000000
  -V(xc)+E(xc)   XCENC  =      3286.38648215
  PAW double counting   =    112518.91329634  -116211.27923022
  entropy T*S    EENTRO =         0.00000000
  eigenvalues    EBANDS =    -10861.41850188
  atomic energy  EATOM  =    114020.06510763
  Solvation  Ediel_sol  =         0.00000000
  ---------------------------------------------------
  free energy    TOTEN  =      -327.58699980 eV

  energy without entropy =     -327.58699980  energy(sigma->0) =     -327.58699980


--------------------------------------------------------------------------------------------------------




--------------------------------------- Iteration      1(  12)  ---------------------------------------


    POTLOK:  cpu time    0.1519: real time    0.1529
    SETDIJ:  cpu time    0.0128: real time    0.0129
     EDDAV:  cpu time  184.6119: real time  185.8599
 BZINTS: Fermi energy:  4.936373;688.000000 electrons
         Band energy:***********;  BLOECHL correction:  0.000000
       DOS:  cpu time    0.0062: real time    0.0062
    CHARGE:  cpu time    1.4632: real time    1.4740
    MIXING:  cpu time    0.0016: real time    0.0016
    --------------------------------------------
      LOOP:  cpu time  186.2476: real time  187.5075

 eigenvalue-minimisations  : 25600
 total energy-change (2. order) :-0.9005041E-02  (-0.8489351E-02)
 number of electron     688.0000068 magnetization       0.0000000
 augmentation part      282.2263914 magnetization       0.0000000

 Broyden mixing:
  rms(total) = 0.43190E-01    rms(broyden)= 0.43187E-01
  rms(prec ) = 0.46150E-01
  weight for this iteration     100.00

 eigenvalues of (default mixing * dielectric matrix)
  average eigenvalue GAMMA=   1.0979
  2.2242  2.2242  1.0202  0.6676  0.6048  0.6048  0.3397

 Free energy of the ion-electron system (eV)
  ---------------------------------------------------
  alpha Z        PSCENC =      2361.28012384
  Ewald energy   TEWEN  =    -62532.66376309
  -Hartree energ DENC   =    -42914.43035781
  -exchange      EXHF   =         0.00000000
  -V(xc)+E(xc)   XCENC  =      3286.58059398
  PAW double counting   =    112347.00998758  -116040.35615163
  entropy T*S    EENTRO =         0.00000000
  eigenvalues    EBANDS =    -10855.08154534
  atomic energy  EATOM  =    114020.06510763
  Solvation  Ediel_sol  =         0.00000000
  ---------------------------------------------------
  free energy    TOTEN  =      -327.59600484 eV

  energy without entropy =     -327.59600484  energy(sigma->0) =     -327.59600484


--------------------------------------------------------------------------------------------------------




--------------------------------------- Iteration      1(  13)  ---------------------------------------


    POTLOK:  cpu time    0.1513: real time    0.1523
    SETDIJ:  cpu time    0.0130: real time    0.0131
     EDDAV:  cpu time  136.6103: real time  137.5712
 BZINTS: Fermi energy:  4.935557;688.000000 electrons
         Band energy:***********;  BLOECHL correction:  0.000000
       DOS:  cpu time    0.0063: real time    0.0063
    CHARGE:  cpu time    1.4446: real time    1.4552
    MIXING:  cpu time    0.0017: real time    0.0017
    --------------------------------------------
      LOOP:  cpu time  138.2272: real time  139.1997

 eigenvalue-minimisations  : 20480
 total energy-change (2. order) :-0.2561385E-02  (-0.7816126E-03)
 number of electron     688.0000068 magnetization       0.0000000
 augmentation part      282.2302470 magnetization       0.0000000

 Broyden mixing:
  rms(total) = 0.22413E-01    rms(broyden)= 0.22412E-01
  rms(prec ) = 0.23848E-01
  weight for this iteration     100.00

 eigenvalues of (default mixing * dielectric matrix)
  average eigenvalue GAMMA=   1.1089
  2.2784  2.2784  1.1168  1.0032  0.5993  0.5993  0.6561  0.3398

 Free energy of the ion-electron system (eV)
  ---------------------------------------------------
  alpha Z        PSCENC =      2361.28012384
  Ewald energy   TEWEN  =    -62532.66376309
  -Hartree energ DENC   =    -42913.54701930
  -exchange      EXHF   =         0.00000000
  -V(xc)+E(xc)   XCENC  =      3286.56498153
  PAW double counting   =    112288.93772532  -115982.05020898
  entropy T*S    EENTRO =         0.00000000
  eigenvalues    EBANDS =    -10856.18551317
  atomic energy  EATOM  =    114020.06510763
  Solvation  Ediel_sol  =         0.00000000
  ---------------------------------------------------
  free energy    TOTEN  =      -327.59856622 eV

  energy without entropy =     -327.59856622  energy(sigma->0) =     -327.59856622


--------------------------------------------------------------------------------------------------------




--------------------------------------- Iteration      1(  14)  ---------------------------------------


    POTLOK:  cpu time    0.1504: real time    0.1516
    SETDIJ:  cpu time    0.0129: real time    0.0129
     EDDAV:  cpu time  149.6389: real time  150.6705
 BZINTS: Fermi energy:  4.935469;688.000000 electrons
         Band energy:***********;  BLOECHL correction:  0.000000
       DOS:  cpu time    0.0062: real time    0.0062
    CHARGE:  cpu time    1.5689: real time    1.5795
    MIXING:  cpu time    0.0018: real time    0.0018
    --------------------------------------------
      LOOP:  cpu time  151.3791: real time  152.4225

 eigenvalue-minimisations  : 21504
 total energy-change (2. order) :-0.1161590E-02  (-0.3074383E-03)
 number of electron     688.0000068 magnetization       0.0000000
 augmentation part      282.2362627 magnetization       0.0000000

 Broyden mixing:
  rms(total) = 0.12179E-01    rms(broyden)= 0.12178E-01
  rms(prec ) = 0.12735E-01
  weight for this iteration     100.00

 eigenvalues of (default mixing * dielectric matrix)
  average eigenvalue GAMMA=   1.1773
  2.4387  2.4387  1.4076  1.4076  0.3399  0.6073  0.6073  0.7186  0.6296

 Free energy of the ion-electron system (eV)
  ---------------------------------------------------
  alpha Z        PSCENC =      2361.28012384
  Ewald energy   TEWEN  =    -62532.66376309
  -Hartree energ DENC   =    -42913.43128516
  -exchange      EXHF   =         0.00000000
  -V(xc)+E(xc)   XCENC  =      3286.56651384
  PAW double counting   =    112262.84413313  -115956.12499665
  entropy T*S    EENTRO =         0.00000000
  eigenvalues    EBANDS =    -10856.13556135
  atomic energy  EATOM  =    114020.06510763
  Solvation  Ediel_sol  =         0.00000000
  ---------------------------------------------------
  free energy    TOTEN  =      -327.59972781 eV

  energy without entropy =     -327.59972781  energy(sigma->0) =     -327.59972781


--------------------------------------------------------------------------------------------------------




--------------------------------------- Iteration      1(  15)  ---------------------------------------


    POTLOK:  cpu time    0.1501: real time    0.1513
    SETDIJ:  cpu time    0.0130: real time    0.0131
     EDDAV:  cpu time  136.9350: real time  137.8851
 BZINTS: Fermi energy:  4.935558;688.000000 electrons
         Band energy:***********;  BLOECHL correction:  0.000000
       DOS:  cpu time    0.0062: real time    0.0062
    CHARGE:  cpu time    1.4460: real time    1.4561
    MIXING:  cpu time    0.0018: real time    0.0019
    --------------------------------------------
      LOOP:  cpu time  138.5522: real time  139.5136

 eigenvalue-minimisations  : 20480
 total energy-change (2. order) :-0.5875999E-03  (-0.1467493E-03)
 number of electron     688.0000068 magnetization       0.0000000
 augmentation part      282.2276443 magnetization       0.0000000

 Broyden mixing:
  rms(total) = 0.69759E-02    rms(broyden)= 0.69752E-02
  rms(prec ) = 0.75518E-02
  weight for this iteration     100.00

 eigenvalues of (default mixing * dielectric matrix)
  average eigenvalue GAMMA=   1.1857
  2.6979  2.3314  1.7287  1.1247  1.1247  0.3398  0.6024  0.6024  0.6984  0.6069

 Free energy of the ion-electron system (eV)
  ---------------------------------------------------
  alpha Z        PSCENC =      2361.28012384
  Ewald energy   TEWEN  =    -62532.66376309
  -Hartree energ DENC   =    -42913.76821441
  -exchange      EXHF   =         0.00000000
  -V(xc)+E(xc)   XCENC  =      3286.56719888
  PAW double counting   =    112251.56133617  -115944.87769706
  entropy T*S    EENTRO =         0.00000000
  eigenvalues    EBANDS =    -10855.76440738
  atomic energy  EATOM  =    114020.06510763
  Solvation  Ediel_sol  =         0.00000000
  ---------------------------------------------------
  free energy    TOTEN  =      -327.60031541 eV

  energy without entropy =     -327.60031541  energy(sigma->0) =     -327.60031541


--------------------------------------------------------------------------------------------------------




--------------------------------------- Iteration      1(  16)  ---------------------------------------


    POTLOK:  cpu time    0.1527: real time    0.1535
    SETDIJ:  cpu time    0.0127: real time    0.0128
     EDDAV:  cpu time  150.1385: real time  151.1684
 BZINTS: Fermi energy:  4.935621;688.000000 electrons
         Band energy:***********;  BLOECHL correction:  0.000000
       DOS:  cpu time    0.0062: real time    0.0062
    CHARGE:  cpu time    1.4452: real time    1.4560
    MIXING:  cpu time    0.0020: real time    0.0027
    --------------------------------------------
      LOOP:  cpu time  151.7573: real time  152.7997

 eigenvalue-minimisations  : 21504
 total energy-change (2. order) :-0.1964468E-03  (-0.5368930E-04)
 number of electron     688.0000068 magnetization       0.0000000
 augmentation part      282.2325172 magnetization       0.0000000

 Broyden mixing:
  rms(total) = 0.43986E-02    rms(broyden)= 0.43982E-02
  rms(prec ) = 0.46967E-02
  weight for this iteration     100.00

 eigenvalues of (default mixing * dielectric matrix)
  average eigenvalue GAMMA=   1.2378
  3.0260  2.1279  2.1279  1.3175  1.3175  0.3398  0.8576  0.6008  0.6008  0.6986
  0.6009

 Free energy of the ion-electron system (eV)
  ---------------------------------------------------
  alpha Z        PSCENC =      2361.28012384
  Ewald energy   TEWEN  =    -62532.66376309
  -Hartree energ DENC   =    -42913.62060254
  -exchange      EXHF   =         0.00000000
  -V(xc)+E(xc)   XCENC  =      3286.56850894
  PAW double counting   =    112249.39056530  -115942.67621740
  entropy T*S    EENTRO =         0.00000000
  eigenvalues    EBANDS =    -10855.94423454
  atomic energy  EATOM  =    114020.06510763
  Solvation  Ediel_sol  =         0.00000000
  ---------------------------------------------------
  free energy    TOTEN  =      -327.60051186 eV

  energy without entropy =     -327.60051186  energy(sigma->0) =     -327.60051186


--------------------------------------------------------------------------------------------------------




--------------------------------------- Iteration      1(  17)  ---------------------------------------


    POTLOK:  cpu time    0.1514: real time    0.1523
    SETDIJ:  cpu time    0.0129: real time    0.0129
     EDDAV:  cpu time  135.1697: real time  136.1134
 BZINTS: Fermi energy:  4.935577;688.000000 electrons
         Band energy:***********;  BLOECHL correction:  0.000000
       DOS:  cpu time    0.0062: real time    0.0063
    CHARGE:  cpu time    1.4463: real time    1.4569
    MIXING:  cpu time    0.0020: real time    0.0020
    --------------------------------------------
      LOOP:  cpu time  136.7885: real time  137.7438

 eigenvalue-minimisations  : 20480
 total energy-change (2. order) :-0.1151411E-03  (-0.5129517E-04)
 number of electron     688.0000068 magnetization       0.0000000
 augmentation part      282.2317219 magnetization       0.0000000

 Broyden mixing:
  rms(total) = 0.23256E-02    rms(broyden)= 0.23250E-02
  rms(prec ) = 0.24492E-02
  weight for this iteration     100.00

 eigenvalues of (default mixing * dielectric matrix)
  average eigenvalue GAMMA=   1.3406
  3.9570  2.3284  2.3284  1.4555  1.4555  1.0489  0.3398  0.6019  0.6019  0.7166
  0.6588  0.5941

 Free energy of the ion-electron system (eV)
  ---------------------------------------------------
  alpha Z        PSCENC =      2361.28012384
  Ewald energy   TEWEN  =    -62532.66376309
  -Hartree energ DENC   =    -42913.62612928
  -exchange      EXHF   =         0.00000000
  -V(xc)+E(xc)   XCENC  =      3286.56857397
  PAW double counting   =    112252.88727314  -115946.17705014
  entropy T*S    EENTRO =         0.00000000
  eigenvalues    EBANDS =    -10855.93476306
  atomic energy  EATOM  =    114020.06510763
  Solvation  Ediel_sol  =         0.00000000
  ---------------------------------------------------
  free energy    TOTEN  =      -327.60062700 eV

  energy without entropy =     -327.60062700  energy(sigma->0) =     -327.60062700


--------------------------------------------------------------------------------------------------------




--------------------------------------- Iteration      1(  18)  ---------------------------------------


    POTLOK:  cpu time    0.1482: real time    0.1496
    SETDIJ:  cpu time    0.0128: real time    0.0129
     EDDAV:  cpu time  150.1333: real time  151.1605
 BZINTS: Fermi energy:  4.935529;688.000000 electrons
         Band energy:***********;  BLOECHL correction:  0.000000
       DOS:  cpu time    0.0061: real time    0.0062
    CHARGE:  cpu time    1.4456: real time    1.4561
    MIXING:  cpu time    0.0020: real time    0.0021
    --------------------------------------------
      LOOP:  cpu time  151.7481: real time  152.7873

 eigenvalue-minimisations  : 21504
 total energy-change (2. order) :-0.2750111E-04  (-0.1826443E-04)
 number of electron     688.0000068 magnetization       0.0000000
 augmentation part      282.2317137 magnetization       0.0000000

 Broyden mixing:
  rms(total) = 0.10716E-02    rms(broyden)= 0.10709E-02
  rms(prec ) = 0.11619E-02
  weight for this iteration     100.00

 eigenvalues of (default mixing * dielectric matrix)
  average eigenvalue GAMMA=   1.3374
  4.1659  2.3834  2.3834  1.6725  1.1898  1.1898  0.3398  0.9113  0.6006  0.6006
  0.7190  0.6363  0.5936

 Free energy of the ion-electron system (eV)
  ---------------------------------------------------
  alpha Z        PSCENC =      2361.28012384
  Ewald energy   TEWEN  =    -62532.66376309
  -Hartree energ DENC   =    -42913.59515222
  -exchange      EXHF   =         0.00000000
  -V(xc)+E(xc)   XCENC  =      3286.56686411
  PAW double counting   =    112255.32820920  -115948.61365484
  entropy T*S    EENTRO =         0.00000000
  eigenvalues    EBANDS =    -10855.96838912
  atomic energy  EATOM  =    114020.06510763
  Solvation  Ediel_sol  =         0.00000000
  ---------------------------------------------------
  free energy    TOTEN  =      -327.60065450 eV

  energy without entropy =     -327.60065450  energy(sigma->0) =     -327.60065450


--------------------------------------------------------------------------------------------------------




--------------------------------------- Iteration      1(  19)  ---------------------------------------


    POTLOK:  cpu time    0.1496: real time    0.1522
    SETDIJ:  cpu time    0.0130: real time    0.0130
     EDDAV:  cpu time  119.4059: real time  120.2529
 BZINTS: Fermi energy:  4.935538;688.000000 electrons
         Band energy:***********;  BLOECHL correction:  0.000000
       DOS:  cpu time    0.0061: real time    0.0062
    CHARGE:  cpu time    1.4415: real time    1.4516
    MIXING:  cpu time    0.0021: real time    0.0021
    --------------------------------------------
      LOOP:  cpu time  121.0182: real time  121.8780

 eigenvalue-minimisations  : 18944
 total energy-change (2. order) :-0.2324523E-05  (-0.1023855E-05)
 number of electron     688.0000068 magnetization       0.0000000
 augmentation part      282.2316071 magnetization       0.0000000

 Broyden mixing:
[...]
   -.411E+02 0.256E+02 -.162E+01   0.419E+02 -.258E+02 0.164E+01   -.840E+00 0.155E+00 -.196E-01   0.151E-05 0.133E-04 -.180E-05
   -.411E+02 0.256E+02 -.162E+01   0.419E+02 -.258E+02 0.164E+01   -.840E+00 0.155E+00 -.196E-01   0.152E-05 0.133E-04 -.180E-05
   -.411E+02 0.256E+02 -.162E+01   0.419E+02 -.258E+02 0.164E+01   -.840E+00 0.155E+00 -.196E-01   0.151E-05 0.133E-04 -.180E-05
   -.411E+02 0.256E+02 -.162E+01   0.419E+02 -.258E+02 0.164E+01   -.840E+00 0.155E+00 -.196E-01   0.152E-05 0.133E-04 -.180E-05
   0.411E+02 0.256E+02 0.162E+01   -.419E+02 -.258E+02 -.164E+01   0.840E+00 0.155E+00 0.196E-01   -.152E-05 0.133E-04 0.180E-05
   0.411E+02 0.256E+02 0.162E+01   -.419E+02 -.258E+02 -.164E+01   0.840E+00 0.155E+00 0.196E-01   -.152E-05 0.133E-04 0.180E-05
   0.411E+02 0.256E+02 0.162E+01   -.419E+02 -.258E+02 -.164E+01   0.840E+00 0.155E+00 0.196E-01   -.152E-05 0.133E-04 0.180E-05
   0.411E+02 0.256E+02 0.162E+01   -.419E+02 -.258E+02 -.164E+01   0.840E+00 0.155E+00 0.196E-01   -.152E-05 0.133E-04 0.180E-05
   -.296E-07 -.251E+02 -.220E-06   0.675E-13 0.258E+02 -.746E-13   0.394E-24 -.729E+00 -.103E-23   0.231E-09 0.157E-04 0.120E-08
   -.296E-07 -.251E+02 -.220E-06   0.693E-13 0.258E+02 -.968E-13   -.691E-24 -.729E+00 0.124E-23   -.250E-09 0.157E-04 -.119E-08
   -.296E-07 -.251E+02 -.220E-06   0.114E-12 0.258E+02 -.114E-12   -.582E-24 -.729E+00 -.620E-24   0.231E-09 0.157E-04 0.120E-08
   -.296E-07 -.251E+02 -.220E-06   0.995E-13 0.258E+02 -.107E-12   0.976E-24 -.729E+00 0.000E+00   -.250E-09 0.157E-04 -.119E-08
   0.148E-07 0.604E+02 0.171E-06   0.497E-13 -.614E+02 -.142E-13   0.103E-24 0.993E+00 0.414E-24   -.659E-08 0.182E-04 0.224E-09
   0.148E-07 0.604E+02 0.171E-06   0.639E-13 -.614E+02 0.249E-13   0.123E-24 0.993E+00 -.155E-24   0.661E-08 0.182E-04 -.223E-09
   0.148E-07 0.604E+02 0.171E-06   0.142E-13 -.614E+02 0.462E-13   0.200E-24 0.993E+00 -.414E-24   -.659E-08 0.182E-04 0.224E-09
   0.148E-07 0.604E+02 0.171E-06   0.284E-13 -.614E+02 0.853E-13   -.237E-24 0.993E+00 -.310E-24   0.661E-08 0.182E-04 -.223E-09
   0.405E+01 -.234E+02 0.294E+01   -.401E+01 0.224E+02 -.300E+01   -.410E-01 0.932E+00 0.546E-01   0.733E-05 0.174E-04 0.279E-05
   0.405E+01 -.234E+02 0.294E+01   -.401E+01 0.224E+02 -.300E+01   -.410E-01 0.932E+00 0.546E-01   0.735E-05 0.174E-04 0.279E-05
   0.405E+01 -.234E+02 0.294E+01   -.401E+01 0.224E+02 -.300E+01   -.410E-01 0.932E+00 0.546E-01   0.733E-05 0.174E-04 0.279E-05
   0.405E+01 -.234E+02 0.294E+01   -.401E+01 0.224E+02 -.300E+01   -.410E-01 0.932E+00 0.546E-01   0.735E-05 0.174E-04 0.279E-05
   -.405E+01 -.234E+02 -.294E+01   0.401E+01 0.224E+02 0.300E+01   0.410E-01 0.932E+00 -.546E-01   -.735E-05 0.174E-04 -.279E-05
   -.405E+01 -.234E+02 -.294E+01   0.401E+01 0.224E+02 0.300E+01   0.410E-01 0.932E+00 -.546E-01   -.732E-05 0.174E-04 -.279E-05
   -.405E+01 -.234E+02 -.294E+01   0.401E+01 0.224E+02 0.300E+01   0.410E-01 0.932E+00 -.546E-01   -.735E-05 0.174E-04 -.279E-05
   -.405E+01 -.234E+02 -.294E+01   0.401E+01 0.224E+02 0.300E+01   0.410E-01 0.932E+00 -.546E-01   -.732E-05 0.174E-04 -.279E-05
   0.405E+01 -.234E+02 0.294E+01   -.401E+01 0.224E+02 -.300E+01   -.410E-01 0.932E+00 0.546E-01   0.732E-05 0.174E-04 0.279E-05
   0.405E+01 -.234E+02 0.294E+01   -.401E+01 0.224E+02 -.300E+01   -.410E-01 0.932E+00 0.546E-01   0.736E-05 0.174E-04 0.280E-05
   0.405E+01 -.234E+02 0.294E+01   -.401E+01 0.224E+02 -.300E+01   -.410E-01 0.932E+00 0.546E-01   0.732E-05 0.174E-04 0.279E-05
   0.405E+01 -.234E+02 0.294E+01   -.401E+01 0.224E+02 -.300E+01   -.410E-01 0.932E+00 0.546E-01   0.736E-05 0.174E-04 0.279E-05
   -.405E+01 -.234E+02 -.294E+01   0.401E+01 0.224E+02 0.300E+01   0.410E-01 0.932E+00 -.546E-01   -.735E-05 0.174E-04 -.279E-05
   -.405E+01 -.234E+02 -.294E+01   0.401E+01 0.224E+02 0.300E+01   0.410E-01 0.932E+00 -.546E-01   -.733E-05 0.174E-04 -.280E-05
   -.405E+01 -.234E+02 -.294E+01   0.401E+01 0.224E+02 0.300E+01   0.410E-01 0.932E+00 -.546E-01   -.735E-05 0.174E-04 -.279E-05
   -.405E+01 -.234E+02 -.294E+01   0.401E+01 0.224E+02 0.300E+01   0.410E-01 0.932E+00 -.546E-01   -.733E-05 0.174E-04 -.279E-05
   -.631E+01 -.224E+02 0.347E+01   0.621E+01 0.212E+02 -.356E+01   0.107E+00 0.122E+01 0.639E-01   -.807E-06 0.980E-05 0.127E-04
   -.631E+01 -.224E+02 0.347E+01   0.621E+01 0.212E+02 -.356E+01   0.107E+00 0.122E+01 0.639E-01   -.783E-06 0.980E-05 0.127E-04
   -.631E+01 -.224E+02 0.347E+01   0.621E+01 0.212E+02 -.356E+01   0.107E+00 0.122E+01 0.639E-01   -.807E-06 0.983E-05 0.127E-04
   -.631E+01 -.224E+02 0.347E+01   0.621E+01 0.212E+02 -.356E+01   0.107E+00 0.122E+01 0.639E-01   -.784E-06 0.983E-05 0.127E-04
   0.631E+01 -.224E+02 -.347E+01   -.621E+01 0.212E+02 0.356E+01   -.107E+00 0.122E+01 -.639E-01   0.784E-06 0.980E-05 -.127E-04
   0.631E+01 -.224E+02 -.347E+01   -.621E+01 0.212E+02 0.356E+01   -.107E+00 0.122E+01 -.639E-01   0.806E-06 0.980E-05 -.127E-04
   0.631E+01 -.224E+02 -.347E+01   -.621E+01 0.212E+02 0.356E+01   -.107E+00 0.122E+01 -.639E-01   0.784E-06 0.983E-05 -.127E-04
   0.631E+01 -.224E+02 -.347E+01   -.621E+01 0.212E+02 0.356E+01   -.107E+00 0.122E+01 -.639E-01   0.806E-06 0.983E-05 -.127E-04
   -.631E+01 -.224E+02 0.347E+01   0.621E+01 0.212E+02 -.356E+01   0.107E+00 0.122E+01 0.639E-01   -.805E-06 0.981E-05 0.127E-04
   -.631E+01 -.224E+02 0.347E+01   0.621E+01 0.212E+02 -.356E+01   0.107E+00 0.122E+01 0.639E-01   -.785E-06 0.981E-05 0.127E-04
   -.631E+01 -.224E+02 0.347E+01   0.621E+01 0.212E+02 -.356E+01   0.107E+00 0.122E+01 0.639E-01   -.805E-06 0.983E-05 0.127E-04
   -.631E+01 -.224E+02 0.347E+01   0.621E+01 0.212E+02 -.356E+01   0.107E+00 0.122E+01 0.639E-01   -.785E-06 0.983E-05 0.127E-04
   0.631E+01 -.224E+02 -.347E+01   -.621E+01 0.212E+02 0.356E+01   -.107E+00 0.122E+01 -.639E-01   0.782E-06 0.981E-05 -.127E-04
   0.631E+01 -.224E+02 -.347E+01   -.621E+01 0.212E+02 0.356E+01   -.107E+00 0.122E+01 -.639E-01   0.808E-06 0.981E-05 -.127E-04
   0.631E+01 -.224E+02 -.347E+01   -.621E+01 0.212E+02 0.356E+01   -.107E+00 0.122E+01 -.639E-01   0.782E-06 0.983E-05 -.127E-04
   0.631E+01 -.224E+02 -.347E+01   -.621E+01 0.212E+02 0.356E+01   -.107E+00 0.122E+01 -.639E-01   0.809E-06 0.983E-05 -.127E-04
 -----------------------------------------------------------------------------------------------
   -.529E-05 -.390E+02 -.320E-03   0.172E-12 -.483E-12 -.113E-11   0.260E-14 0.390E+02 -.694E-16   -.598E-11 0.919E-03 0.136E-10
 
 
 POSITION                                       TOTAL-FORCE (eV/Angst)
 -----------------------------------------------------------------------------------
      1.37312      1.26807      1.35298         0.000972     -0.014361      0.002890
      6.62468      1.26807      1.53637         0.000972     -0.014361      0.002890
      1.37312      6.53104      1.35298         0.000972     -0.014361      0.002890
      6.62468      6.53104      1.53637         0.000972     -0.014361      0.002890
      3.96922      3.89955      1.42995        -0.000972     -0.014361     -0.002890
      9.22078      3.89955      1.61334        -0.000972     -0.014361     -0.002890
      3.96922      9.16252      1.42995        -0.000972     -0.014361     -0.002890
      9.22078      9.16252      1.61334        -0.000972     -0.014361     -0.002890
      1.63061      3.90934      9.14425         0.000000     -0.010417     -0.000000
      6.88218      3.90934      9.32764         0.000000     -0.010417     -0.000000
      1.63061      9.17231      9.14425         0.000000     -0.010417     -0.000000
      6.88218      9.17231      9.32764         0.000000     -0.010417     -0.000000
      4.25639      1.29587      9.23594         0.000000     -0.005269     -0.000000
      9.50796      1.29587      9.41933         0.000000     -0.005269     -0.000000
      4.25639      6.55883      9.23594         0.000000     -0.005269     -0.000000
      9.50796      6.55883      9.41933         0.000000     -0.005269     -0.000000
      1.52500      1.26807      6.53734        -0.000972     -0.014361     -0.002890
      6.77656      1.26807      6.72073        -0.000972     -0.014361     -0.002890
      1.52500      6.53104      6.53734        -0.000972     -0.014361     -0.002890
      6.77656      6.53104      6.72073        -0.000972     -0.014361     -0.002890
      4.18046      3.89955      6.64376         0.000972     -0.014361      0.002890
      9.43202      3.89955      6.82715         0.000972     -0.014361      0.002890
      4.18046      9.16252      6.64376         0.000972     -0.014361      0.002890
      9.43202      9.16252      6.82715         0.000972     -0.014361      0.002890
      4.07484      1.27786      4.03686         0.000000     -0.010417     -0.000000
      9.32640      1.27786      4.22024         0.000000     -0.010417     -0.000000
      4.07484      6.54082      4.03686         0.000000     -0.010417     -0.000000
      9.32640      6.54082      4.22024         0.000000     -0.010417     -0.000000
      1.44906      3.92735      3.94516         0.000000     -0.005269     -0.000000
      6.70062      3.92735      4.12855         0.000000     -0.005269     -0.000000
      1.44906      9.19032      3.94516         0.000000     -0.005269     -0.000000
      6.70062      9.19032      4.12855         0.000000     -0.005269     -0.000000
     10.66635      0.03867      5.56539         0.005868      0.010879     -0.009620
      5.41479      0.03867      5.38200         0.005868      0.010879     -0.009620
     10.66635      5.30164      5.56539         0.005868      0.010879     -0.009620
      5.41479      5.30164      5.38200         0.005868      0.010879     -0.009620
      2.73489      0.03867      2.69171        -0.005868      0.010879      0.009620
      7.98645      0.03867      2.87510        -0.005868      0.010879      0.009620
      2.73489      5.30164      2.69171        -0.005868      0.010879      0.009620
      7.98645      5.30164      2.87510        -0.005868      0.010879      0.009620
      2.60745      2.67016      0.09122         0.005868      0.010879     -0.009620
      7.85901      2.67016      0.27461         0.005868      0.010879     -0.009620
      2.60745      7.93312      0.09122         0.005868      0.010879     -0.009620
      7.85901      7.93312      0.27461         0.005868      0.010879     -0.009620
      0.29067      2.67016      7.79910        -0.005868      0.010879      0.009620
      5.54223      2.67016      7.98249        -0.005868      0.010879      0.009620
      0.29067      7.93312      7.79910        -0.005868      0.010879      0.009620
      5.54223      7.93312      7.98249        -0.005868      0.010879      0.009620
     10.49236      0.03787      0.37310         0.007688      0.011325     -0.022198
      5.24080      0.03787      0.18971         0.007688      0.011325     -0.022198
     10.49236      5.30084      0.37310         0.007688      0.011325     -0.022198
      5.24080      5.30084      0.18971         0.007688      0.011325     -0.022198
      2.90888      0.03787      7.88400        -0.007688      0.011325      0.022198
      8.16044      0.03787      8.06739        -0.007688      0.011325      0.022198
      2.90888      5.30084      7.88400        -0.007688      0.011325      0.022198
      8.16044      5.30084      8.06739        -0.007688      0.011325      0.022198
      2.79657      2.66936      5.29710         0.007688      0.011325     -0.022198
      8.04814      2.66936      5.48049         0.007688      0.011325     -0.022198
      2.79657      7.93232      5.29710         0.007688      0.011325     -0.022198
      8.04814      7.93232      5.48049         0.007688      0.011325     -0.022198
      0.10154      2.66936      2.59322        -0.007688      0.011325      0.022198
      5.35310      2.66936      2.77661        -0.007688      0.011325      0.022198
      0.10154      7.93232      2.59322        -0.007688      0.011325      0.022198
      5.35310      7.93232      2.77661        -0.007688      0.011325      0.022198
 -----------------------------------------------------------------------------------
    total drift:                               -0.000005      0.012938     -0.000320


--------------------------------------------------------------------------------------------------------



  FREE ENERGIE OF THE ION-ELECTRON SYSTEM (eV)
  ---------------------------------------------------
  free  energy   TOTEN  =      -327.60065828 eV

  energy  without entropy=     -327.60065828  energy(sigma->0) =     -327.60065828
 


--------------------------------------------------------------------------------------------------------


    POTLOK:  cpu time    0.1616: real time    0.1624


--------------------------------------------------------------------------------------------------------


 writing wavefunctions
     LOOP+:  cpu time 3681.2465: real time 3707.2460
    4ORBIT:  cpu time    0.0000: real time    0.0000
 


 total charge     
 
# of ion       s       p       d       tot
------------------------------------------
    1        1.314   2.409   0.000   3.723
    2        1.314   2.409   0.000   3.723
    3        1.314   2.409   0.000   3.723
    4        1.314   2.409   0.000   3.723
    5        1.314   2.409   0.000   3.723
    6        1.314   2.409   0.000   3.723
    7        1.314   2.409   0.000   3.723
    8        1.314   2.409   0.000   3.723
    9        1.315   2.405   0.000   3.720
   10        1.315   2.405   0.000   3.720
   11        1.315   2.405   0.000   3.720
   12        1.315   2.405   0.000   3.720
   13        1.313   2.412   0.000   3.724
   14        1.313   2.412   0.000   3.724
   15        1.313   2.412   0.000   3.724
   16        1.313   2.412   0.000   3.724
   17        1.314   2.409   0.000   3.723
   18        1.314   2.409   0.000   3.723
   19        1.314   2.409   0.000   3.723
   20        1.314   2.409   0.000   3.723
   21        1.314   2.409   0.000   3.723
   22        1.314   2.409   0.000   3.723
   23        1.314   2.409   0.000   3.723
   24        1.314   2.409   0.000   3.723
   25        1.315   2.405   0.000   3.720
   26        1.315   2.405   0.000   3.720
   27        1.315   2.405   0.000   3.720
   28        1.315   2.405   0.000   3.720
   29        1.313   2.412   0.000   3.724
   30        1.313   2.412   0.000   3.724
   31        1.313   2.412   0.000   3.724
   32        1.313   2.412   0.000   3.724
   33        0.259   6.202   8.917  15.377
   34        0.259   6.202   8.917  15.377
   35        0.259   6.202   8.917  15.377
   36        0.259   6.202   8.917  15.377
   37        0.259   6.202   8.917  15.377
   38        0.259   6.202   8.917  15.377
   39        0.259   6.202   8.917  15.377
   40        0.259   6.202   8.917  15.377
   41        0.259   6.202   8.917  15.377
   42        0.259   6.202   8.917  15.377
   43        0.259   6.202   8.917  15.377
   44        0.259   6.202   8.917  15.377
   45        0.259   6.202   8.917  15.377
   46        0.259   6.202   8.917  15.377
   47        0.259   6.202   8.917  15.377
   48        0.259   6.202   8.917  15.377
   49        0.349   6.350   5.822  12.521
   50        0.349   6.350   5.822  12.521
   51        0.349   6.350   5.822  12.521
   52        0.349   6.350   5.822  12.521
   53        0.349   6.350   5.822  12.521
   54        0.349   6.350   5.822  12.521
   55        0.349   6.350   5.822  12.521
   56        0.349   6.350   5.822  12.521
   57        0.349   6.350   5.822  12.521
   58        0.349   6.350   5.822  12.521
   59        0.349   6.350   5.822  12.521
   60        0.349   6.350   5.822  12.521
   61        0.349   6.350   5.822  12.521
   62        0.349   6.350   5.822  12.521
   63        0.349   6.350   5.822  12.521
   64        0.349   6.350   5.822  12.521
--------------------------------------------------
tot         51.784 277.903 235.818 565.505
 


 magnetization (x)
 
# of ion       s       p       d       tot
------------------------------------------
    1       -0.000  -0.017   0.000  -0.017
    2       -0.000  -0.017   0.000  -0.017
    3       -0.000  -0.017   0.000  -0.017
    4       -0.000  -0.017   0.000  -0.017
    5        0.000   0.017   0.000   0.017
    6        0.000   0.017   0.000   0.017
    7        0.000   0.017   0.000   0.017
    8        0.000   0.017   0.000   0.017
    9        0.000  -0.000   0.000  -0.000
   10        0.000   0.000   0.000   0.000
   11        0.000  -0.000   0.000  -0.000
   12        0.000   0.000   0.000   0.000
   13       -0.000  -0.000   0.000  -0.000
   14       -0.000  -0.000   0.000  -0.000
   15       -0.000  -0.000   0.000  -0.000
   16       -0.000  -0.000   0.000  -0.000
   17        0.000   0.017   0.000   0.017
   18        0.000   0.017   0.000   0.017
   19        0.000   0.017   0.000   0.017
   20        0.000   0.017   0.000   0.017
   21       -0.000  -0.017   0.000  -0.017
   22       -0.000  -0.017   0.000  -0.017
   23       -0.000  -0.017   0.000  -0.017
   24       -0.000  -0.017   0.000  -0.017
   25        0.000  -0.000   0.000  -0.000
   26        0.000  -0.000   0.000  -0.000
   27        0.000  -0.000   0.000  -0.000
   28        0.000  -0.000   0.000   0.000
   29       -0.000  -0.000   0.000  -0.000
   30       -0.000  -0.000   0.000  -0.000
   31       -0.000  -0.000   0.000  -0.000
   32       -0.000  -0.000   0.000  -0.000
   33        0.000   0.001  -0.002  -0.001
   34        0.000   0.001  -0.002  -0.001
   35        0.000   0.001  -0.002  -0.001
   36        0.000   0.001  -0.002  -0.001
   37       -0.000  -0.001   0.002   0.001
   38       -0.000  -0.001   0.002   0.001
   39       -0.000  -0.001   0.002   0.001
   40       -0.000  -0.001   0.002   0.001
   41        0.000   0.001  -0.002  -0.001
   42        0.000   0.001  -0.002  -0.001
   43        0.000   0.001  -0.002  -0.001
   44        0.000   0.001  -0.002  -0.001
   45       -0.000  -0.001   0.002   0.001
   46       -0.000  -0.001   0.002   0.001
   47       -0.000  -0.001   0.002   0.001
   48       -0.000  -0.001   0.002   0.001
   49        0.020   0.054   3.668   3.741
   50        0.020   0.054   3.668   3.741
   51        0.020   0.054   3.668   3.741
   52        0.020   0.054   3.668   3.741
   53       -0.020  -0.054  -3.668  -3.741
   54       -0.020  -0.054  -3.668  -3.741
   55       -0.020  -0.054  -3.668  -3.741
   56       -0.020  -0.054  -3.668  -3.741
   57        0.020   0.054   3.668   3.741
   58        0.020   0.054   3.668   3.741
   59        0.020   0.054   3.668   3.741
   60        0.020   0.054   3.668   3.741
   61       -0.020  -0.054  -3.668  -3.741
   62       -0.020  -0.054  -3.668  -3.741
   63       -0.020  -0.054  -3.668  -3.741
   64       -0.020  -0.054  -3.668  -3.741
--------------------------------------------------
tot          0.000  -0.000  -0.000  -0.000
 
 BZINTS: Fermi energy:  4.935533;688.000000 electrons
         Band energy:***********;  BLOECHL correction:  0.000000

 total amount of memory used by VASP MPI-rank0   348353. kBytes
=======================================================================

   base      :      30000. kBytes
   nonl-proj :     216760. kBytes
   fftplans  :       4588. kBytes
   grid      :      69719. kBytes
   one-center:       1990. kBytes
   wavefun   :      25296. kBytes
 
  
  
 General timing and accounting informations for this job:
 ========================================================
  
                  Total CPU time used (sec):     3740.549
                            User time (sec):     3729.221
                          System time (sec):       11.328
                         Elapsed time (sec):     3768.233
  
                   Maximum memory used (kb):      727840.
                   Average memory used (kb):           0.
  
                          Minor page faults:       498158
                          Major page faults:         5760
                 Voluntary context switches:         6924
