 vasp.5.4.4.18Apr17-6-g9f103f2a35 (build Oct 30 2023 17:30:16) complex          
  
 executed on             LinuxIFC date 2024.06.27  03:22:25
 running on  256 total cores
 distrk:  each k-point on  256 cores,    1 groups
 distr:  one band on NCORES_PER_BAND=   1 cores,  256 groups


--------------------------------------------------------------------------------------------------------


 INCAR:
 POTCAR:    PAW_PBE S 06Sep2000                   
 POTCAR:     PAW_PBE Cu_pv 06Sep2000              
 POTCAR:     PAW_PBE Fe_pv 02Aug2007              

 ----------------------------------------------------------------------------- 
|                                                                             |
|           W    W    AA    RRRRR   N    N  II  N    N   GGGG   !!!           |
|           W    W   A  A   R    R  NN   N  II  NN   N  G    G  !!!           |
|           W    W  A    A  R    R  N N  N  II  N N  N  G       !!!           |
|           W WW W  AAAAAA  RRRRR   N  N N  II  N  N N  G  GGG   !            |
|           WW  WW  A    A  R   R   N   NN  II  N   NN  G    G                |
|           W    W  A    A  R    R  N    N  II  N    N   GGGG   !!!           |
|                                                                             |
|      For optimal performance we recommend to set                            |
|        NCORE= 4 - approx SQRT( number of cores)                             |
|      NCORE specifies how many cores store one orbital (NPAR=cpu/NCORE).     |
|      This setting can  greatly improve the performance of VASP for DFT.     |
|      The default,   NCORE=1            might be grossly inefficient         |
|      on modern multi-core architectures or massively parallel machines.     |
|      Do your own testing !!!!                                               |
|      Unfortunately you need to use the default for GW and RPA calculations. |
|      (for HF NCORE is supported but not extensively tested yet)             |
|                                                                             |
 ----------------------------------------------------------------------------- 

 POTCAR:    PAW_PBE S 06Sep2000                   
   SHA256 =  0fc7481fb0695f01bdc6462160264c5c84044ae9ec85a907d398b887a2bc3132 S/
   COPYR  = (c) Copyright 06Sep2000 Georg Kresse                                
   COPYR  = This file is part of the software VASP. Any use, copying, and all ot
   COPYR  = If you do not have a valid VASP license, you may not use, copy or di
   VRHFIN =S : s2p4                                                             
   LEXCH  = PE                                                                  
   EATOM  =   276.8230 eV,   20.3459 Ry                                         
                                                                                
   TITEL  = PAW_PBE S 06Sep2000                                                 
   LULTRA =        F    use ultrasoft PP ?                                      
   IUNSCR =        1    unscreen: 0-lin 1-nonlin 2-no                           
   RPACOR =    1.500    partial core radius                                     
   POMASS =   32.066; ZVAL   =    6.000    mass and valenz                      
   RCORE  =    1.900    outmost cutoff radius                                   
   RWIGS  =    2.200; RWIGS  =    1.164    wigner-seitz radius (au A)           
   ENMAX  =  258.689; ENMIN  =  194.016 eV                                      
   ICORE  =        2    local potential                                         
   LCOR   =        T    correct aug charges                                     
   LPAW   =        T    paw PP                                                  
   EAUG   =  335.092                                                            
   DEXC   =    0.000                                                            
   RMAX   =    1.942    core radius for proj-oper                               
   RAUG   =    1.300    factor for augmentation sphere                          
   RDEP   =    1.954    radius for radial grids                                 
   RDEPT  =    1.744    core radius for aug-charge                              
                                                                                
   Atomic configuration                                                         
    6 entries                                                                   
     n  l   j            E        occ.                                          
     1  0  0.50     -2405.8406   2.0000                                         
     2  0  0.50      -211.7007   2.0000                                         
     2  1  1.50      -156.4958   6.0000                                         
     3  0  0.50       -17.2562   2.0000                                         
     3  1  0.50        -7.0085   4.0000                                         
     3  2  1.50        -6.8029   0.0000                                         
   Description                                                                  
     l       E           TYP  RCUT    TYP  RCUT                                 
     0    -17.2561641     23  1.900                                             
     0    -15.8743224     23  1.900                                             
     1     -7.0085400     23  1.900                                             
     1     -2.7779785     23  1.900                                             
     2     -6.8029130     23  1.900                                             
  local pseudopotential read in
  partial core-charges read in
  partial kinetic energy density read in
  atomic valenz-charges read in
  non local Contribution for L=           0  read in
    real space projection operators read in
  non local Contribution for L=           0  read in
    real space projection operators read in
  non local Contribution for L=           1  read in
    real space projection operators read in
  non local Contribution for L=           1  read in
    real space projection operators read in
    PAW grid and wavefunctions read in
 
   number of l-projection  operators is LMAX  =           4
   number of lm-projection operators is LMMAX =           8
 
 POTCAR:     PAW_PBE Cu_pv 06Sep2000              
   SHA256 =  cb7b504e2ea725fe1f25c85a9ac77d4012ce94cd394135b722c4e25ec297f1cb Cu
   COPYR  = (c) Copyright 06Sep2000 Georg Kresse                                
   COPYR  = This file is part of the software VASP. Any use, copying, and all ot
   COPYR  = If you do not have a valid VASP license, you may not use, copy or di
   VRHFIN =Cu: d10 p1                                                           
   LEXCH  = PE                                                                  
   EATOM  =  4120.1201 eV,  302.8203 Ry                                         
                                                                                
   TITEL  = PAW_PBE Cu_pv 06Sep2000                                             
   LULTRA =        F    use ultrasoft PP ?                                      
   IUNSCR =        1    unscreen: 0-lin 1-nonlin 2-no                           
   RPACOR =    1.500    partial core radius                                     
   POMASS =   63.546; ZVAL   =   17.000    mass and valenz                      
   RCORE  =    2.000    outmost cutoff radius                                   
   RWIGS  =    2.000; RWIGS  =    1.058    wigner-seitz radius (au A)           
   ENMAX  =  368.648; ENMIN  =  276.486 eV                                      
   RCLOC  =    1.304    cutoff for local pot                                    
   LCOR   =        T    correct aug charges                                     
   LPAW   =        T    paw PP                                                  
   EAUG   =  758.233                                                            
   DEXC   =    0.000                                                            
   RMAX   =    2.046    core radius for proj-oper                               
   RAUG   =    1.300    factor for augmentation sphere                          
   RDEP   =    2.025    radius for radial grids                                 
   RDEPT  =    1.558    core radius for aug-charge                              
                                                                                
   Atomic configuration                                                         
    8 entries                                                                   
     n  l   j            E        occ.                                          
     1  0  0.50     -8850.2467   2.0000                                         
     2  0  0.50     -1062.3498   2.0000                                         
     2  1  1.50      -916.8226   6.0000                                         
     3  0  0.50      -114.6929   2.0000                                         
     3  1  1.50       -72.1325   6.0000                                         
     3  2  2.50        -5.0394  10.0000                                         
     4  0  0.50        -4.6097   1.0000                                         
     4  3  2.50        -1.3606   0.0000                                         
   Description                                                                  
     l       E           TYP  RCUT    TYP  RCUT                                 
     1    -72.1324777     23  1.700                                             
     1     -1.3605826     23  1.700                                             
     2     -5.0393776     23  2.000                                             
     2     -6.3999602     23  2.000                                             
     0     -4.6097062     23  1.800                                             
     0     14.1620818     23  1.800                                             
  local pseudopotential read in
  partial core-charges read in
  partial kinetic energy density read in
  atomic valenz-charges read in
  non local Contribution for L=           1  read in
    real space projection operators read in
  non local Contribution for L=           1  read in
    real space projection operators read in
  non local Contribution for L=           2  read in
    real space projection operators read in
  non local Contribution for L=           2  read in
    real space projection operators read in
  non local Contribution for L=           0  read in
    real space projection operators read in
  non local Contribution for L=           0  read in
    real space projection operators read in
    PAW grid and wavefunctions read in
 
   number of l-projection  operators is LMAX  =           6
   number of lm-projection operators is LMMAX =          18
 
 POTCAR:     PAW_PBE Fe_pv 02Aug2007              
   SHA256 =  5d22e414b1f82158bf2c7ecb8b97b28fd0923e48cadc1c3bf74d524558f5dd32 Fe
   COPYR  = (c) Copyright 02Aug2007 Georg Kresse                                
   COPYR  = This file is part of the software VASP. Any use, copying, and all ot
   COPYR  = If you do not have a valid VASP license, you may not use, copy or di
   VRHFIN =Fe:  3pd7s1                                                          
   LEXCH  = PE                                                                  
   EATOM  =  2457.4239 eV,  180.6156 Ry                                         
                                                                                
   TITEL  = PAW_PBE Fe_pv 02Aug2007                                             
   LULTRA =        F    use ultrasoft PP ?                                      
   IUNSCR =        1    unscreen: 0-lin 1-nonlin 2-no                           
   RPACOR =    1.750    partial core radius                                     
   POMASS =   55.847; ZVAL   =   14.000    mass and valenz                      
   RCORE  =    2.200    outmost cutoff radius                                   
   RWIGS  =    2.200; RWIGS  =    1.164    wigner-seitz radius (au A)           
   ENMAX  =  293.238; ENMIN  =  219.928 eV                                      
   ICORE  =        3    local potential                                         
   LCOR   =        T    correct aug charges                                     
   LPAW   =        T    paw PP                                                  
   EAUG   =  578.342                                                            
   DEXC   =    0.000                                                            
   RMAX   =    2.249    core radius for proj-oper                               
   RAUG   =    1.300    factor for augmentation sphere                          
   RDEP   =    2.296    radius for radial grids                                 
   RDEPT  =    1.766    core radius for aug-charge                              
                                                                                
   Atomic configuration                                                         
    8 entries                                                                   
     n  l   j            E        occ.                                          
     1  0  0.50     -6993.8440   2.0000                                         
     2  0  0.50      -814.6047   2.0000                                         
     2  1  1.50      -693.3689   6.0000                                         
     3  0  0.50       -89.4732   2.0000                                         
     3  1  1.50       -55.6373   6.0000                                         
     3  2  2.50        -3.8151   7.0000                                         
     4  0  0.50        -4.2551   1.0000                                         
     4  3  2.50        -1.3606   0.0000                                         
   Description                                                                  
     l       E           TYP  RCUT    TYP  RCUT                                 
     1    -55.6372668     23  2.000                                             
     1     -5.4423304     23  2.000                                             
     2     -3.8151096     23  2.200                                             
     2     -5.1756922     23  2.200                                             
     0     -4.2550951     23  2.200                                             
     0     27.2116520     23  2.200                                             
     3     -1.3605826     23  2.200                                             
  local pseudopotential read in
  partial core-charges read in
  partial kinetic energy density read in
  atomic valenz-charges read in
  non local Contribution for L=           1  read in
    real space projection operators read in
  non local Contribution for L=           1  read in
    real space projection operators read in
  non local Contribution for L=           2  read in
    real space projection operators read in
  non local Contribution for L=           2  read in
    real space projection operators read in
  non local Contribution for L=           0  read in
    real space projection operators read in
  non local Contribution for L=           0  read in
    real space projection operators read in
    PAW grid and wavefunctions read in
 
   number of l-projection  operators is LMAX  =           6
   number of lm-projection operators is LMMAX =          18
 

 ----------------------------------------------------------------------------- 
|                                                                             |
|  ADVICE TO THIS USER RUNNING 'VASP/VAMP'   (HEAR YOUR MASTER'S VOICE ...):  |
|                                                                             |
|      You have a (more or less) 'large supercell' and for larger cells       |
|      it might be more efficient to use real space projection opertators     |
|      So try LREAL= Auto  in the INCAR   file.                               |
|      Mind:          For very  accurate calculation you might also keep the  |
|      reciprocal projection scheme          (i.e. LREAL=.FALSE.)             |
|                                                                             |
 ----------------------------------------------------------------------------- 


 ----------------------------------------------------------------------------- 
|                                                                             |
|  ADVICE TO THIS USER RUNNING 'VASP/VAMP'   (HEAR YOUR MASTER'S VOICE ...):  |
|                                                                             |
|      You enforced a specific xc-type in the INCAR file,                     |
|      a different type was found on the POTCAR file                          |
|          I HOPE YOU KNOW, WHAT YOU ARE  DOING                               |
|                                                                             |
 ----------------------------------------------------------------------------- 

  PAW_PBE S 06Sep2000                   :
 energy of atom  1       EATOM= -276.8230
 kinetic energy error for atom=    0.0007 (will be added to EATOM!!)
   PAW_PBE Cu_pv 06Sep2000              :
 energy of atom  2       EATOM=-4120.1201
 kinetic energy error for atom=    0.0094 (will be added to EATOM!!)
   PAW_PBE Fe_pv 02Aug2007              :
 energy of atom  3       EATOM=-2457.4239
 kinetic energy error for atom=    0.0025 (will be added to EATOM!!)
 
 
 POSCAR: Fe16 Cu16 S32                           
  positions in direct lattice
  velocities in cartesian coordinates
 exchange correlation table for  LEXCH =       14
   RHO(1)=    0.500       N(1)  =     2000
   RHO(2)=  100.500       N(2)  =     4000
 


--------------------------------------------------------------------------------------------------------


 ion  position               nearest neighbor table
   1  0.126  0.126  0.117-  37 2.25  61 2.27  41 2.29  49 2.30
   2  0.626  0.126  0.117-  38 2.25  62 2.27  42 2.29  50 2.30
   3  0.126  0.626  0.117-  39 2.25  63 2.27  43 2.29  51 2.30
   4  0.626  0.626  0.117-  40 2.25  64 2.27  44 2.29  52 2.30
   5  0.374  0.374  0.117-  39 2.25  62 2.27  41 2.29  52 2.30
   6  0.874  0.374  0.117-  40 2.25  61 2.27  42 2.29  51 2.30
   7  0.374  0.874  0.117-  37 2.25  64 2.27  43 2.29  50 2.30
   8  0.874  0.874  0.117-  38 2.25  63 2.27  44 2.29  49 2.30
   9  0.124  0.374  0.867-  41 2.25  51 2.27  45 2.29  55 2.30
  10  0.624  0.374  0.867-  42 2.25  52 2.27  46 2.29  56 2.30
  11  0.124  0.874  0.867-  43 2.25  49 2.27  47 2.29  53 2.30
  12  0.624  0.874  0.867-  44 2.25  50 2.27  48 2.29  54 2.30
  13  0.376  0.126  0.867-  41 2.25  50 2.27  46 2.29  53 2.30
  14  0.876  0.126  0.867-  42 2.25  49 2.27  45 2.29  54 2.30
  15  0.376  0.626  0.867-  43 2.25  52 2.27  48 2.29  55 2.30
  16  0.876  0.626  0.867-  44 2.25  51 2.27  47 2.29  56 2.30
  17  0.124  0.124  0.617-  45 2.25  53 2.27  33 2.29  57 2.30
  18  0.624  0.124  0.617-  46 2.25  54 2.27  34 2.29  58 2.30
  19  0.124  0.624  0.617-  47 2.25  55 2.27  35 2.29  59 2.30
  20  0.624  0.624  0.617-  48 2.25  56 2.27  36 2.29  60 2.30
  21  0.376  0.376  0.617-  46 2.25  55 2.27  36 2.29  57 2.30
  22  0.876  0.376  0.617-  45 2.25  56 2.27  35 2.29  58 2.30
  23  0.376  0.876  0.617-  48 2.25  53 2.27  34 2.29  59 2.30
  24  0.876  0.876  0.617-  47 2.25  54 2.27  33 2.29  60 2.30
  25  0.374  0.124  0.367-  34 2.25  57 2.27  37 2.29  62 2.30
  26  0.874  0.124  0.367-  33 2.25  58 2.27  38 2.29  61 2.30
  27  0.374  0.624  0.367-  36 2.25  59 2.27  39 2.29  64 2.30
  28  0.874  0.624  0.367-  35 2.25  60 2.27  40 2.29  63 2.30
  29  0.126  0.376  0.367-  35 2.25  57 2.27  39 2.29  61 2.30
  30  0.626  0.376  0.367-  36 2.25  58 2.27  40 2.29  62 2.30
  31  0.126  0.876  0.367-  33 2.25  59 2.27  37 2.29  63 2.30
  32  0.626  0.876  0.367-  34 2.25  60 2.27  38 2.29  64 2.30
  33  0.000  0.000  0.507-  26 2.25  31 2.25  17 2.29  24 2.29
  34  0.500  0.000  0.507-  25 2.25  32 2.25  18 2.29  23 2.29
  35  0.000  0.500  0.507-  28 2.25  29 2.25  19 2.29  22 2.29
  36  0.500  0.500  0.507-  27 2.25  30 2.25  20 2.29  21 2.29
  37  0.250  0.000  0.257-   1 2.25   7 2.25  25 2.29  31 2.29
  38  0.750  0.000  0.257-   2 2.25   8 2.25  26 2.29  32 2.29
  39  0.250  0.500  0.257-   3 2.25   5 2.25  27 2.29  29 2.29
  40  0.750  0.500  0.257-   4 2.25   6 2.25  28 2.29  30 2.29
  41  0.250  0.250  0.007-   9 2.25  13 2.25   1 2.29   5 2.29
  42  0.750  0.250  0.007-  10 2.25  14 2.25   2 2.29   6 2.29
  43  0.250  0.750  0.007-  11 2.25  15 2.25   3 2.29   7 2.29
  44  0.750  0.750  0.007-  12 2.25  16 2.25   4 2.29   8 2.29
  45  0.000  0.250  0.757-  17 2.25  22 2.25   9 2.29  14 2.29
  46  0.500  0.250  0.757-  18 2.25  21 2.25  10 2.29  13 2.29
  47  0.000  0.750  0.757-  19 2.25  24 2.25  11 2.29  16 2.29
  48  0.500  0.750  0.757-  20 2.25  23 2.25  12 2.29  15 2.29
  49  0.000  0.000  0.010-  11 2.27  14 2.27   1 2.30   8 2.30
  50  0.500  0.000  0.010-  12 2.27  13 2.27   2 2.30   7 2.30
  51  0.000  0.500  0.010-   9 2.27  16 2.27   3 2.30   6 2.30
  52  0.500  0.500  0.010-  10 2.27  15 2.27   4 2.30   5 2.30
  53  0.250  0.000  0.760-  17 2.27  23 2.27  11 2.30  13 2.30
  54  0.750  0.000  0.760-  18 2.27  24 2.27  12 2.30  14 2.30
  55  0.250  0.500  0.760-  19 2.27  21 2.27   9 2.30  15 2.30
  56  0.750  0.500  0.760-  20 2.27  22 2.27  10 2.30  16 2.30
  57  0.250  0.250  0.510-  25 2.27  29 2.27  17 2.30  21 2.30
  58  0.750  0.250  0.510-  26 2.27  30 2.27  18 2.30  22 2.30
  59  0.250  0.750  0.510-  27 2.27  31 2.27  19 2.30  23 2.30
  60  0.750  0.750  0.510-  28 2.27  32 2.27  20 2.30  24 2.30
  61  0.000  0.250  0.260-   1 2.27   6 2.27  26 2.30  29 2.30
  62  0.500  0.250  0.260-   2 2.27   5 2.27  25 2.30  30 2.30
  63  0.000  0.750  0.260-   3 2.27   8 2.27  28 2.30  31 2.30
  64  0.500  0.750  0.260-   4 2.27   7 2.27  27 2.30  32 2.30
 
  LATTYP: Found a base centered orthorhombic cell.
 ALAT       =    13.6542998270
 B/A-ratio  =     1.1708685446
 C/A-ratio  =     0.7651742663
  
  Lattice vectors:
  
 A1 = (  10.4799200000,   0.8248720000,   0.0000000000)
 A2 = (  -0.8248720000, -10.4799200000,   0.0000000000)
 A3 = (   0.0000000000,   0.0000000000, -10.4479188513)


Analysis of symmetry for initial positions (statically):
=====================================================================
 Subroutine PRICEL returns following result:
 
  LATTYP: Found a face centered orthorhombic cell.
 ALAT       =     6.8271499135
 B/A-ratio  =     1.1708685446
 C/A-ratio  =     1.5303485325
  
  Lattice vectors:
  
 A1 = (  -2.8261980000,  -2.8261980000,   5.2239594256)
 A2 = (  -2.4137620000,   2.4137620000,   5.2239594256)
 A3 = (  -5.2399600000,  -0.4124360000,   0.0000000000)
 
   8 primitive cells build up your supercell.
 

 Routine SETGRP: Setting up the symmetry group for a 
 base centered orthorhombic supercell.


 Subroutine GETGRP returns: Found  4 space group operations
 (whereof  2 operations were pure point group operations)
 out of a pool of  8 trial point group operations.


The static configuration has the point symmetry C_2 .
 The point group associated with its full space group is C_2v.


Analysis of symmetry for dynamics (positions and initial velocities):
=====================================================================
 Subroutine PRICEL returns following result:
 
  LATTYP: Found a face centered orthorhombic cell.
 ALAT       =     6.8271499135
 B/A-ratio  =     1.1708685446
 C/A-ratio  =     1.5303485325
  
  Lattice vectors:
  
 A1 = (  -2.8261980000,  -2.8261980000,   5.2239594256)
 A2 = (  -2.4137620000,   2.4137620000,   5.2239594256)
 A3 = (  -5.2399600000,  -0.4124360000,   0.0000000000)
 
   8 primitive cells build up your supercell.
 

 Routine SETGRP: Setting up the symmetry group for a 
 base centered orthorhombic supercell.


 Subroutine GETGRP returns: Found  4 space group operations
 (whereof  2 operations were pure point group operations)
 out of a pool of  8 trial point group operations.


The dynamic configuration has the point symmetry C_2 .
 The point group associated with its full space group is C_2v.


Analysis of structural, dynamic, and magnetic symmetry:
=====================================================================
 Subroutine PRICEL returns following result:
 
  LATTYP: Found a face centered orthorhombic cell.
 ALAT       =     6.8271499135
 B/A-ratio  =     1.1708685446
 C/A-ratio  =     1.5303485325
  
  Lattice vectors:
  
 A1 = (  -2.8261980000,  -2.8261980000,   5.2239594256)
 A2 = (  -2.4137620000,   2.4137620000,   5.2239594256)
 A3 = (  -5.2399600000,  -0.4124360000,   0.0000000000)
 
   8 primitive cells build up your supercell.
 

 Routine SETGRP: Setting up the symmetry group for a 
 base centered orthorhombic supercell.


 Subroutine GETGRP returns: Found  4 space group operations
 (whereof  2 operations were pure point group operations)
 out of a pool of  8 trial point group operations.


The magnetic configuration has the point symmetry C_2 .
 The point group associated with its full space group is C_2v.


 Subroutine INISYM returns: Found  4 space group operations
 (whereof  2 operations are pure point group operations),
 and found     8 'primitive' translations

 
 
 KPOINTS: Automatic mesh                          

Automatic generation of k-mesh.
Space group operators:
 irot       det(A)        alpha          n_x          n_y          n_z        tau_x        tau_y        tau_z
    1     1.000000     0.000000     1.000000     0.000000     0.000000     0.000000     0.000000     0.000000
    2     1.000000   180.000000     0.000000     0.000000     1.000000     0.000000     0.000000     0.000000
    3    -1.000000   180.000000     0.707107     0.707107     0.000000    -0.750000     0.000000     0.750000
    4    -1.000000   180.000000     0.707107    -0.707107     0.000000    -0.750000     0.000000     0.750000
 
 Subroutine IBZKPT returns following result:
 ===========================================
 
 Found     21 irreducible k-points:
 
 Following reciprocal coordinates:
            Coordinates               Weight
  0.000000  0.000000  0.000000      1.000000
  0.250000  0.000000  0.000000      4.000000
  0.500000  0.000000  0.000000      2.000000
  0.250000  0.250000  0.000000      2.000000
  0.500000  0.250000  0.000000      4.000000
 -0.250000  0.250000  0.000000      2.000000
  0.500000  0.500000  0.000000      1.000000
  0.000000  0.000000  0.250000      2.000000
  0.250000  0.000000  0.250000      8.000000
  0.500000  0.000000  0.250000      4.000000
  0.250000  0.250000  0.250000      4.000000
  0.500000  0.250000  0.250000      8.000000
 -0.250000  0.250000  0.250000      4.000000
  0.500000  0.500000  0.250000      2.000000
  0.000000  0.000000  0.500000      1.000000
  0.250000  0.000000  0.500000      4.000000
  0.500000  0.000000  0.500000      2.000000
  0.250000  0.250000  0.500000      2.000000
  0.500000  0.250000  0.500000      4.000000
 -0.250000  0.250000  0.500000      2.000000
  0.500000  0.500000  0.500000      1.000000
 
 Following cartesian coordinates:
            Coordinates               Weight
  0.000000  0.000000  0.000000      1.000000
  0.024004 -0.001889  0.000000      4.000000
  0.048008 -0.003779  0.000000      2.000000
  0.022115  0.022115  0.000000      2.000000
  0.046118  0.020225  0.000000      4.000000
 -0.025893  0.025893  0.000000      2.000000
  0.044229  0.044229  0.000000      1.000000
  0.000000  0.000000  0.023928      2.000000
  0.024004 -0.001889  0.023928      8.000000
  0.048008 -0.003779  0.023928      4.000000
  0.022115  0.022115  0.023928      4.000000
  0.046118  0.020225  0.023928      8.000000
 -0.025893  0.025893  0.023928      4.000000
  0.044229  0.044229  0.023928      2.000000
  0.000000  0.000000  0.047856      1.000000
  0.024004 -0.001889  0.047856      4.000000
  0.048008 -0.003779  0.047856      2.000000
  0.022115  0.022115  0.047856      2.000000
  0.046118  0.020225  0.047856      4.000000
 -0.025893  0.025893  0.047856      2.000000
  0.044229  0.044229  0.047856      1.000000
 
 TETIRR: Found     96 inequivalent tetrahedra from      384
 
 Subroutine IBZKPT_HF returns following result:
 ==============================================
 
 Found     64 k-points in 1st BZ
 the following     64 k-points will be used (e.g. in the exchange kernel)
 Following reciprocal coordinates:   # in IRBZ
  0.000000  0.000000  0.000000    0.01562500   1 t-inv F
  0.250000  0.000000  0.000000    0.01562500   2 t-inv F
  0.500000  0.000000  0.000000    0.01562500   3 t-inv F
  0.250000  0.250000  0.000000    0.01562500   4 t-inv F
  0.500000  0.250000  0.000000    0.01562500   5 t-inv F
 -0.250000  0.250000  0.000000    0.01562500   6 t-inv F
  0.500000  0.500000  0.000000    0.01562500   7 t-inv F
  0.000000  0.000000  0.250000    0.01562500   8 t-inv F
  0.250000  0.000000  0.250000    0.01562500   9 t-inv F
  0.500000  0.000000  0.250000    0.01562500  10 t-inv F
  0.250000  0.250000  0.250000    0.01562500  11 t-inv F
  0.500000  0.250000  0.250000    0.01562500  12 t-inv F
 -0.250000  0.250000  0.250000    0.01562500  13 t-inv F
  0.500000  0.500000  0.250000    0.01562500  14 t-inv F
  0.000000  0.000000  0.500000    0.01562500  15 t-inv F
  0.250000  0.000000  0.500000    0.01562500  16 t-inv F
  0.500000  0.000000  0.500000    0.01562500  17 t-inv F
  0.250000  0.250000  0.500000    0.01562500  18 t-inv F
  0.500000  0.250000  0.500000    0.01562500  19 t-inv F
 -0.250000  0.250000  0.500000    0.01562500  20 t-inv F
  0.500000  0.500000  0.500000    0.01562500  21 t-inv F
 -0.250000  0.000000  0.000000    0.01562500   2 t-inv F
  0.000000 -0.250000  0.000000    0.01562500   2 t-inv F spinflp
  0.000000  0.250000  0.000000    0.01562500   2 t-inv F spinflp
  0.000000 -0.500000  0.000000    0.01562500   3 t-inv F spinflp
 -0.250000 -0.250000  0.000000    0.01562500   4 t-inv F
 -0.500000 -0.250000  0.000000    0.01562500   5 t-inv F
 -0.250000 -0.500000  0.000000    0.01562500   5 t-inv F spinflp
  0.250000  0.500000  0.000000    0.01562500   5 t-inv F spinflp
  0.250000 -0.250000  0.000000    0.01562500   6 t-inv F
 -0.250000  0.000000  0.250000    0.01562500   9 t-inv F
  0.000000 -0.250000  0.250000    0.01562500   9 t-inv F spinflp
  0.000000  0.250000  0.250000    0.01562500   9 t-inv F spinflp
  0.000000 -0.500000  0.250000    0.01562500  10 t-inv F spinflp
 -0.250000 -0.250000  0.250000    0.01562500  11 t-inv F
 -0.500000 -0.250000  0.250000    0.01562500  12 t-inv F
 -0.250000 -0.500000  0.250000    0.01562500  12 t-inv F spinflp
  0.250000  0.500000  0.250000    0.01562500  12 t-inv F spinflp
  0.250000 -0.250000  0.250000    0.01562500  13 t-inv F
 -0.250000  0.000000  0.500000    0.01562500  16 t-inv F
  0.000000 -0.250000  0.500000    0.01562500  16 t-inv F spinflp
  0.000000  0.250000  0.500000    0.01562500  16 t-inv F spinflp
  0.000000 -0.500000  0.500000    0.01562500  17 t-inv F spinflp
 -0.250000 -0.250000  0.500000    0.01562500  18 t-inv F
 -0.500000 -0.250000  0.500000    0.01562500  19 t-inv F
 -0.250000 -0.500000  0.500000    0.01562500  19 t-inv F spinflp
  0.250000  0.500000  0.500000    0.01562500  19 t-inv F spinflp
  0.250000 -0.250000  0.500000    0.01562500  20 t-inv F
  0.000000  0.000000 -0.250000    0.01562500   8 t-inv T
 -0.250000  0.000000 -0.250000    0.01562500   9 t-inv T
  0.250000  0.000000 -0.250000    0.01562500   9 t-inv T
  0.000000  0.250000 -0.250000    0.01562500   9 t-inv T spinflp
  0.000000 -0.250000 -0.250000    0.01562500   9 t-inv T spinflp
 -0.500000  0.000000 -0.250000    0.01562500  10 t-inv T
  0.000000  0.500000 -0.250000    0.01562500  10 t-inv T spinflp
 -0.250000 -0.250000 -0.250000    0.01562500  11 t-inv T
  0.250000  0.250000 -0.250000    0.01562500  11 t-inv T
 -0.500000 -0.250000 -0.250000    0.01562500  12 t-inv T
  0.500000  0.250000 -0.250000    0.01562500  12 t-inv T
  0.250000  0.500000 -0.250000    0.01562500  12 t-inv T spinflp
 -0.250000 -0.500000 -0.250000    0.01562500  12 t-inv T spinflp
  0.250000 -0.250000 -0.250000    0.01562500  13 t-inv T
 -0.250000  0.250000 -0.250000    0.01562500  13 t-inv T
 -0.500000 -0.500000 -0.250000    0.01562500  14 t-inv T


--------------------------------------------------------------------------------------------------------




 Dimension of arrays:
   k-points           NKPTS =     21   k-points in BZ     NKDIM =     21   number of bands    NBANDS=    512
   number of dos      NEDOS =    301   number of ions     NIONS =     64
   non local maximal  LDIM  =      6   non local SUM 2l+1 LMDIM =     18
   total plane-waves  NPLWV = 829440
   max r-space proj   IRMAX =      1   max aug-charges    IRDMAX=  23112
   dimension x,y,z NGX =    96 NGY =   96 NGZ =   90
   dimension x,y,z NGXF=   192 NGYF=  192 NGZF=  180
   support grid    NGXF=   192 NGYF=  192 NGZF=  180
   ions per type =              32  16  16
   NGX,Y,Z   is equivalent  to a cutoff of  15.18, 15.18, 14.32 a.u.
   NGXF,Y,Z  is equivalent  to a cutoff of  30.36, 30.36, 28.64 a.u.

 SYSTEM =  CuFeS2                                  
 POSCAR =  Fe16 Cu16 S32                           

 Startparameter for this run:
   NWRITE =      2    write-flag & timer
   PREC   = accura    normal or accurate (medium, high low for compatibility)
   ISTART =      1    job   : 0-new  1-cont  2-samecut
   ICHARG =      1    charge: 1-file 2-atom 10-const
   ISPIN  =      2    spin polarized calculation?
   LNONCOLLINEAR =      F non collinear calculations
   LSORBIT =      F    spin-orbit coupling
   INIWAV =      1    electr: 0-lowe 1-rand  2-diag
   LASPH  =      F    aspherical Exc in radial PAW
   METAGGA=      F    non-selfconsistent MetaGGA calc.

 Electronic Relaxation 1
   ENCUT  =  700.0 eV  51.45 Ry    7.17 a.u.  22.68 22.68 22.54*2*pi/ulx,y,z
   ENINI  =  700.0     initial cutoff
   ENAUG  =  758.2 eV  augmentation charge cutoff
   NELM   =    500;   NELMIN=  2; NELMDL=  0     # of ELM steps 
   EDIFF  = 0.1E-07   stopping-criterion for ELM
   LREAL  =      F    real-space projection
   NLSPLINE    = F    spline interpolate recip. space projectors
   LCOMPAT=      F    compatible to vasp.4.4
   GGA_COMPAT  = T    GGA compatible to vasp.4.4-vasp.4.6
   LMAXPAW     = -100 max onsite density
   LMAXMIX     =    4 max onsite mixed and CHGCAR
   VOSKOWN=      0    Vosko Wilk Nusair interpolation
   ROPT   =    0.00000   0.00000   0.00000
 Ionic relaxation
   EDIFFG = -.1E-04   stopping-criterion for IOM
   NSW    =      0    number of steps for IOM
   NBLOCK =      1;   KBLOCK =      1    inner block; outer block 
   IBRION =     -1    ionic relax: 0-MD 1-quasi-New 2-CG
   NFREE  =      0    steps in history (QN), initial steepest desc. (CG)
   ISIF   =      2    stress and relaxation
   IWAVPR =     10    prediction:  0-non 1-charg 2-wave 3-comb
   ISYM   =      2    0-nonsym 1-usesym 2-fastsym
   LCORR  =      T    Harris-Foulkes like correction to forces

   POTIM  = 0.5000    time-step for ionic-motion
   TEIN   =    0.0    initial temperature
   TEBEG  =    0.0;   TEEND  =   0.0 temperature during run
   SMASS  =  -3.00    Nose mass-parameter (am)
   estimated Nose-frequenzy (Omega)   =  0.10E-29 period in steps =****** mass=  -0.253E-26a.u.
   SCALEE = 1.0000    scale energy and forces
   NPACO  =    256;   APACO  = 16.0  distance and # of slots for P.C.
   PSTRESS=    0.0 pullay stress

  Mass of Ions in am
   POMASS =  32.07 63.55 55.85
  Ionic Valenz
   ZVAL   =   6.00 17.00 14.00
  Atomic Wigner-Seitz radii
   RWIGS  =  -1.00 -1.00 -1.00
  virtual crystal weights 
   VCA    =   1.00  1.00  1.00
   NELECT =     688.0000    total number of electrons
   NUPDOWN=      -1.0000    fix difference up-down

 DOS related values:
   EMIN   =  10.00;   EMAX   =-10.00  energy-range for DOS
   EFERMI =   0.00
   ISMEAR =    -5;   SIGMA  =   0.03  broadening in eV -4-tet -1-fermi 0-gaus

 Electronic relaxation 2 (details)
   IALGO  =     38    algorithm
   LDIAG  =      T    sub-space diagonalisation (order eigenvalues)
   LSUBROT=      F    optimize rotation matrix (better conditioning)
   TURBO    =      0    0=normal 1=particle mesh
   IRESTART =      0    0=no restart 2=restart with 2 vectors
   NREBOOT  =      0    no. of reboots
   NMIN     =      0    reboot dimension
   EREF     =   0.00    reference energy to select bands
   IMIX   =      4    mixing-type and parameters
     AMIX     =   0.40;   BMIX     =  1.00
     AMIX_MAG =   1.60;   BMIX_MAG =  1.00
     AMIN     =   0.10
     WC   =   100.;   INIMIX=   1;  MIXPRE=   1;  MAXMIX= -45

 Intra band minimization:
   WEIMIN = 0.0000     energy-eigenvalue tresh-hold
   EBREAK =  0.49E-11  absolut break condition
   DEPER  =   0.30     relativ break condition  

   TIME   =   0.40     timestep for ELM

  volume/ion in A,a.u.               =      17.82       120.24
  Fermi-wavevector in a.u.,A,eV,Ry     =   1.383318  2.614092 26.035684  1.913569
  Thomas-Fermi vector in A             =   2.507927
 
 Write flags
   LWAVE        =      T    write WAVECAR
   LDOWNSAMPLE  =      F    k-point downsampling of WAVECAR
   LCHARG       =      T    write CHGCAR
   LVTOT        =      F    write LOCPOT, total local potential
   LVHAR        =      F    write LOCPOT, Hartree potential only
   LELF         =      F    write electronic localiz. function (ELF)
   LORBIT       =     11    0 simple, 1 ext, 2 COOP (PROOUT), +10 PAW based schemes


 Dipole corrections
   LMONO  =      F    monopole corrections only (constant potential shift)
   LDIPOL =      F    correct potential (dipole corrections)
   IDIPOL =      0    1-x, 2-y, 3-z, 4-all directions 
   EPSILON=  1.0000000 bulk dielectric constant

 LDA+U is selected, type is set to LDAUTYPE =  2
   angular momentum for each species LDAUL =     2    2    2
   U (eV)           for each species LDAUU =   0.0  0.1  4.7
   J (eV)           for each species LDAUJ =   0.0  0.0  0.0
 Exchange correlation treatment:
   GGA     =    PS    GGA type
   LEXCH   =    14    internal setting for exchange type
   VOSKOWN=      0    Vosko Wilk Nusair interpolation
   LHFCALC =     F    Hartree Fock is set to
   LHFONE  =     F    Hartree Fock one center treatment
   AEXX    =    0.0000 exact exchange contribution

 Linear response parameters
   LEPSILON=     F    determine dielectric tensor
   LRPA    =     F    only Hartree local field effects (RPA)
   LNABLA  =     F    use nabla operator in PAW spheres
   LVEL    =     F    velocity operator in full k-point grid
   LINTERFAST=   F  fast interpolation
   KINTER  =     0    interpolate to denser k-point grid
   CSHIFT  =0.1000    complex shift for real part using Kramers Kronig
   OMEGAMAX=  -1.0    maximum frequency
   DEG_THRESHOLD= 0.2000000E-02 threshold for treating states as degnerate
   RTIME   =   -0.100 relaxation time in fs
  (WPLASMAI=    0.000 imaginary part of plasma frequency in eV, 0.658/RTIME)
   DFIELD  = 0.0000000 0.0000000 0.0000000 field for delta impulse in time
 
 Orbital magnetization related:
   ORBITALMAG=     F  switch on orbital magnetization
   LCHIMAG   =     F  perturbation theory with respect to B field
   DQ        =  0.001000  dq finite difference perturbation B field
   LLRAUG    =     F  two centre corrections for induced B field

 PEAD related settings:
   LPEAD      =     T    switch on PEAD
   IPEAD      =     4    finite difference order for dpsi/dk
   LCALCPOL   =     T    calculate macroscopic polarization
   LCALCEPS   =     F    calculate dielectric tensor
   EFIELD_PEAD=    0.0000    0.0000    0.0000
   SKIP_EDOTP =     F
   LRPA       =     F
   SKIP_SCF   =     F


--------------------------------------------------------------------------------------------------------


 Static calculation
 charge density and potential will be updated during run
 spin polarized calculation
 Variant of blocked Davidson
 Davidson routine will perform the subspace rotation
 perform sub-space diagonalisation
    after iterative eigenvector-optimisation
 modified Broyden-mixing scheme, WC =      100.0
 initial mixing is a Kerker type mixing with AMIX =  0.4000 and BMIX =      1.0000
 Hartree-type preconditioning will be used
 using additional bands          168
 reciprocal scheme for non local part
 use partial core corrections
 calculate Harris-corrections to forces 
   (improved forces if not selfconsistent)
 use gradient corrections 
 use of overlap-Matrix (Vanderbilt PP)
 Fermi weights with tetrahedron method with Bloechl corrections


--------------------------------------------------------------------------------------------------------


  energy-cutoff  :      700.00
  volume of cell :     1140.37
      direct lattice vectors                 reciprocal lattice vectors
    10.479920000  0.824872000  0.000000000     0.096015413 -0.007557350  0.000000000
     0.824872000 10.479920000  0.000000000    -0.007557350  0.096015413  0.000000000
     0.000000000  0.000000000 10.447918851     0.000000000  0.000000000  0.095712841

  length of vectors
    10.512332616 10.512332616 10.447918851     0.096312372  0.096312372  0.095712841


 
 old parameters found on file WAVECAR:
  energy-cutoff  :      700.00
  volume of cell :     1140.37
      direct lattice vectors                 reciprocal lattice vectors
    10.479920000  0.824872000  0.000000000     0.096015413 -0.007557350  0.000000000
     0.824872000 10.479920000  0.000000000    -0.007557350  0.096015413  0.000000000
     0.000000000  0.000000000 10.447931514     0.000000000  0.000000000  0.095712725

  length of vectors

 
 k-points in units of 2pi/SCALE and weight: Automatic mesh                          
   0.00000000  0.00000000  0.00000000       0.016
   0.02400385 -0.00188934  0.00000000       0.062
   0.04800771 -0.00377868  0.00000000       0.031
   0.02211452  0.02211452  0.00000000       0.031
   0.04611837  0.02022518  0.00000000       0.062
  -0.02589319  0.02589319  0.00000000       0.031
   0.04422903  0.04422903  0.00000000       0.016
   0.00000000  0.00000000  0.02392821       0.031
   0.02400385 -0.00188934  0.02392821       0.125
   0.04800771 -0.00377868  0.02392821       0.062
   0.02211452  0.02211452  0.02392821       0.062
   0.04611837  0.02022518  0.02392821       0.125
  -0.02589319  0.02589319  0.02392821       0.062
   0.04422903  0.04422903  0.02392821       0.031
   0.00000000  0.00000000  0.04785642       0.016
   0.02400385 -0.00188934  0.04785642       0.062
   0.04800771 -0.00377868  0.04785642       0.031
   0.02211452  0.02211452  0.04785642       0.031
   0.04611837  0.02022518  0.04785642       0.062
  -0.02589319  0.02589319  0.04785642       0.031
   0.04422903  0.04422903  0.04785642       0.016
 
 k-points in reciprocal lattice and weights: Automatic mesh                          
   0.00000000  0.00000000  0.00000000       0.016
   0.25000000  0.00000000  0.00000000       0.062
   0.50000000  0.00000000  0.00000000       0.031
   0.25000000  0.25000000  0.00000000       0.031
   0.50000000  0.25000000  0.00000000       0.062
  -0.25000000  0.25000000  0.00000000       0.031
   0.50000000  0.50000000  0.00000000       0.016
   0.00000000  0.00000000  0.25000000       0.031
   0.25000000  0.00000000  0.25000000       0.125
   0.50000000  0.00000000  0.25000000       0.062
   0.25000000  0.25000000  0.25000000       0.062
   0.50000000  0.25000000  0.25000000       0.125
  -0.25000000  0.25000000  0.25000000       0.062
   0.50000000  0.50000000  0.25000000       0.031
   0.00000000  0.00000000  0.50000000       0.016
   0.25000000  0.00000000  0.50000000       0.062
   0.50000000  0.00000000  0.50000000       0.031
   0.25000000  0.25000000  0.50000000       0.031
   0.50000000  0.25000000  0.50000000       0.062
  -0.25000000  0.25000000  0.50000000       0.031
   0.50000000  0.50000000  0.50000000       0.016
 
 position of ions in fractional coordinates (direct lattice) 
   0.12599082  0.12587881  0.11651472
   0.62599082  0.12587881  0.11651472
   0.12599082  0.62587881  0.11651472
   0.62599082  0.62587881  0.11651472
   0.37400918  0.37412119  0.11651472
   0.87400918  0.37412119  0.11651472
   0.37400918  0.87412119  0.11651472
   0.87400918  0.87412119  0.11651472
   0.12412119  0.37400918  0.86651472
   0.62412119  0.37400918  0.86651472
   0.12412119  0.87400918  0.86651472
   0.62412119  0.87400918  0.86651472
   0.37587881  0.12599082  0.86651472
   0.87587881  0.12599082  0.86651472
   0.37587881  0.62599082  0.86651472
   0.87587881  0.62599082  0.86651472
   0.12400918  0.12412119  0.61651472
   0.62400918  0.12412119  0.61651472
   0.12400918  0.62412119  0.61651472
   0.62400918  0.62412119  0.61651472
   0.37599082  0.37587881  0.61651472
   0.87599082  0.37587881  0.61651472
   0.37599082  0.87587881  0.61651472
   0.87599082  0.87587881  0.61651472
   0.37412119  0.12400918  0.36651472
   0.87412119  0.12400918  0.36651472
   0.37412119  0.62400918  0.36651472
   0.87412119  0.62400918  0.36651472
   0.12587881  0.37599082  0.36651472
   0.62587881  0.37599082  0.36651472
   0.12587881  0.87599082  0.36651472
   0.62587881  0.87599082  0.36651472
   0.00000000  0.00000000  0.50733464
   0.50000000  0.00000000  0.50733464
   0.00000000  0.50000000  0.50733464
   0.50000000  0.50000000  0.50733464
   0.25000000  0.00000000  0.25733464
   0.75000000  0.00000000  0.25733464
   0.25000000  0.50000000  0.25733464
   0.75000000  0.50000000  0.25733464
   0.25000000  0.25000000  0.00733464
   0.75000000  0.25000000  0.00733464
   0.25000000  0.75000000  0.00733464
   0.75000000  0.75000000  0.00733464
   0.00000000  0.25000000  0.75733464
   0.50000000  0.25000000  0.75733464
   0.00000000  0.75000000  0.75733464
   0.50000000  0.75000000  0.75733464
   0.00000000  0.00000000  0.00963592
   0.50000000  0.00000000  0.00963592
   0.00000000  0.50000000  0.00963592
   0.50000000  0.50000000  0.00963592
   0.25000000  0.00000000  0.75963592
   0.75000000  0.00000000  0.75963592
   0.25000000  0.50000000  0.75963592
   0.75000000  0.50000000  0.75963592
   0.25000000  0.25000000  0.50963592
   0.75000000  0.25000000  0.50963592
   0.25000000  0.75000000  0.50963592
   0.75000000  0.75000000  0.50963592
   0.00000000  0.25000000  0.25963592
   0.50000000  0.25000000  0.25963592
   0.00000000  0.75000000  0.25963592
   0.50000000  0.75000000  0.25963592
 
 position of ions in cartesian coordinates  (Angst):
   1.42420764  1.42312616  1.21733631
   6.66416764  1.83556216  1.21733631
   1.83664364  6.66308616  1.21733631
   7.07660364  7.07552216  1.21733631
   4.22818836  4.22926984  1.21733631
   9.46814836  4.64170584  1.21733631
   4.64062436  9.46922984  1.21733631
   9.88058436  9.88166584  1.21733631
   1.60928984  4.02197036  9.05327545
   6.84924984  4.43440636  9.05327545
   2.02172584  9.26193036  9.05327545
   7.26168584  9.67436636  9.05327545
   4.04310616  1.63042564  9.05327545
   9.28306616  2.04286164  9.05327545
   4.45554216  6.87038564  9.05327545
   9.69550216  7.28282164  9.05327545
   1.40199036  1.40307184  6.44129574
   6.64195036  1.81550784  6.44129574
   1.81442636  6.64303184  6.44129574
   7.05438636  7.05546784  6.44129574
   4.25040564  4.24932416  6.44129574
   9.49036564  4.66176016  6.44129574
   4.66284164  9.48928416  6.44129574
   9.90280164  9.90172016  6.44129574
   4.02305184  1.60820836  3.82931603
   9.26301184  2.02064436  3.82931603
   4.43548784  6.84816836  3.82931603
   9.67544784  7.26060436  3.82931603
   1.62934416  4.04418764  3.82931603
   6.86930416  4.45662364  3.82931603
   2.04178016  9.28414764  3.82931603
   7.28174016  9.69658364  3.82931603
   0.00000000  0.00000000  5.30059116
   5.23996000  0.41243600  5.30059116
   0.41243600  5.23996000  5.30059116
   5.65239600  5.65239600  5.30059116
   2.61998000  0.20621800  2.68861145
   7.85994000  0.61865400  2.68861145
   3.03241600  5.44617800  2.68861145
   8.27237600  5.85861400  2.68861145
   2.82619800  2.82619800  0.07663173
   8.06615800  3.23863400  0.07663173
   3.23863400  8.06615800  0.07663173
   8.47859400  8.47859400  0.07663173
   0.20621800  2.61998000  7.91257087
   5.44617800  3.03241600  7.91257087
   0.61865400  7.85994000  7.91257087
   5.85861400  8.27237600  7.91257087
   0.00000000  0.00000000  0.10067535
   5.23996000  0.41243600  0.10067535
   0.41243600  5.23996000  0.10067535
   5.65239600  5.65239600  0.10067535
   2.61998000  0.20621800  7.93661449
   7.85994000  0.61865400  7.93661449
   3.03241600  5.44617800  7.93661449
   8.27237600  5.85861400  7.93661449
   2.82619800  2.82619800  5.32463478
   8.06615800  3.23863400  5.32463478
   3.23863400  8.06615800  5.32463478
   8.47859400  8.47859400  5.32463478
   0.20621800  2.61998000  2.71265506
   5.44617800  3.03241600  2.71265506
   0.61865400  7.85994000  2.71265506
   5.85861400  8.27237600  2.71265506
 


--------------------------------------------------------------------------------------------------------


 k-point  1 :   0.0000 0.0000 0.0000  plane waves:   47999
 k-point  2 :   0.2500 0.0000 0.0000  plane waves:   47945
 k-point  3 :   0.5000 0.0000 0.0000  plane waves:   47996
 k-point  4 :   0.2500 0.2500 0.0000  plane waves:   47948
 k-point  5 :   0.5000 0.2500 0.0000  plane waves:   47990
 k-point  6 :  -0.2500 0.2500 0.0000  plane waves:   47969
 k-point  7 :   0.5000 0.5000 0.0000  plane waves:   47908
 k-point  8 :   0.0000 0.0000 0.2500  plane waves:   47975
 k-point  9 :   0.2500 0.0000 0.2500  plane waves:   47968
 k-point 10 :   0.5000 0.0000 0.2500  plane waves:   47960
 k-point 11 :   0.2500 0.2500 0.2500  plane waves:   47947
 k-point 12 :   0.5000 0.2500 0.2500  plane waves:   47963
 k-point 13 :  -0.2500 0.2500 0.2500  plane waves:   47971
 k-point 14 :   0.5000 0.5000 0.2500  plane waves:   47946
 k-point 15 :   0.0000 0.0000 0.5000  plane waves:   47950
 k-point 16 :   0.2500 0.0000 0.5000  plane waves:   47968
 k-point 17 :   0.5000 0.0000 0.5000  plane waves:   47868
 k-point 18 :   0.2500 0.2500 0.5000  plane waves:   47958
 k-point 19 :   0.5000 0.2500 0.5000  plane waves:   47920
 k-point 20 :  -0.2500 0.2500 0.5000  plane waves:   47960
 k-point 21 :   0.5000 0.5000 0.5000  plane waves:   47912

 maximum and minimum number of plane-waves per node :     47999    47868

 maximum number of plane-waves:     47999
 maximum index in each direction: 
   IXMAX=   22   IYMAX=   22   IZMAX=   22
   IXMIN=  -23   IYMIN=  -23   IZMIN=  -23


 serial   3D FFT for wavefunctions
 parallel 3D FFT for charge:
    minimum data exchange during FFTs selected (reduces bandwidth)


 total amount of memory used by VASP MPI-rank0   658257. kBytes
=======================================================================

   base      :      30000. kBytes
   nonl-proj :     485900. kBytes
   fftplans  :       4588. kBytes
   grid      :      69719. kBytes
   one-center:       1990. kBytes
   wavefun   :      66060. kBytes
 
     INWAV:  cpu time   41.1328: real time   41.4137
 Broyden mixing: mesh for mixing (old mesh)
   NGX = 45   NGY = 45   NGZ = 45
  (NGX  =192   NGY  =192   NGZ  =180)
  gives a total of  91125 points

 initial charge density was supplied:
 number of electron     688.0000128 magnetization      -0.0000000
 keeping initial charge density in first step


--------------------------------------------------------------------------------------------------------


 Maximum index for augmentation-charges          895 (set IRDMAX)


--------------------------------------------------------------------------------------------------------


 First call to EWALD:  gamma=   0.170
 Maximum number of real-space cells 3x 3x 3
 Maximum number of reciprocal cells 3x 3x 3

    FEWALD:  cpu time    0.0027: real time    0.0027


--------------------------------------- Iteration      1(   1)  ---------------------------------------


    POTLOK:  cpu time    0.3308: real time    0.3773
    SETDIJ:  cpu time    0.0163: real time    0.0164
     EDDAV:  cpu time  480.2937: real time  483.5779
 BZINTS: Fermi energy:  5.129809;688.000000 electrons
         Band energy:***********;  BLOECHL correction:  0.000000
       DOS:  cpu time    0.0207: real time    0.0208
    CHARGE:  cpu time    3.0283: real time    3.0504
    MIXING:  cpu time    0.0029: real time    0.0030
    --------------------------------------------
      LOOP:  cpu time  483.6928: real time  487.0458

 eigenvalue-minimisations  : 64512
 total energy-change (2. order) :-0.3254590E+03  (-0.4624903E-06)
 number of electron     688.0000128 magnetization      -0.0000000
 augmentation part      282.2754457 magnetization      -0.0000000

 Broyden mixing:
  rms(total) = 0.75836E-03    rms(broyden)= 0.75831E-03
  rms(prec ) = 0.91592E-03
  weight for this iteration     100.00

 Free energy of the ion-electron system (eV)
  ---------------------------------------------------
  alpha Z        PSCENC =      2377.42502447
  Ewald energy   TEWEN  =    -62761.94504590
  -Hartree energ DENC   =    -42765.20844696
  -exchange      EXHF   =         0.00000000
  -V(xc)+E(xc)   XCENC  =      3286.30703386
  PAW double counting   =    112043.28284779  -115733.61497266
  entropy T*S    EENTRO =         0.00000000
  eigenvalues    EBANDS =    -10791.77058701
  atomic energy  EATOM  =    114020.06510763
  Solvation  Ediel_sol  =         0.00000000
  ---------------------------------------------------
  free energy    TOTEN  =      -325.45903879 eV

  energy without entropy =     -325.45903879  energy(sigma->0) =     -325.45903879


--------------------------------------------------------------------------------------------------------




--------------------------------------- Iteration      1(   2)  ---------------------------------------


    POTLOK:  cpu time    0.1378: real time    0.1418
    SETDIJ:  cpu time    0.0132: real time    0.0133
     EDDAV:  cpu time  493.9558: real time  497.2665
 BZINTS: Fermi energy:  5.312148;688.000000 electrons
         Band energy:***********;  BLOECHL correction:  0.000000
       DOS:  cpu time    0.0237: real time    0.0238
    CHARGE:  cpu time    3.0340: real time    3.0560
    MIXING:  cpu time    0.0023: real time    0.0173
    --------------------------------------------
      LOOP:  cpu time  497.1668: real time  500.5189

 eigenvalue-minimisations  : 67072
 total energy-change (2. order) : 0.1271968E-05  (-0.3252308E-06)
 number of electron     688.0000128 magnetization      -0.0000000
 augmentation part      282.2756559 magnetization      -0.0000000

 Broyden mixing:
  rms(total) = 0.63058E-03    rms(broyden)= 0.63057E-03
  rms(prec ) = 0.74570E-03
  weight for this iteration     100.00

 eigenvalues of (default mixing * dielectric matrix)
  average eigenvalue GAMMA=   0.4748
  0.4748

 Free energy of the ion-electron system (eV)
  ---------------------------------------------------
  alpha Z        PSCENC =      2377.42502447
  Ewald energy   TEWEN  =    -62761.94504590
  -Hartree energ DENC   =    -42765.22161174
  -exchange      EXHF   =         0.00000000
  -V(xc)+E(xc)   XCENC  =      3286.30790314
  PAW double counting   =    112043.23839968  -115733.56967276
  entropy T*S    EENTRO =         0.00000000
  eigenvalues    EBANDS =    -10791.75914203
  atomic energy  EATOM  =    114020.06510763
  Solvation  Ediel_sol  =         0.00000000
  ---------------------------------------------------
  free energy    TOTEN  =      -325.45903751 eV

  energy without entropy =     -325.45903751  energy(sigma->0) =     -325.45903751


--------------------------------------------------------------------------------------------------------




--------------------------------------- Iteration      1(   3)  ---------------------------------------


    POTLOK:  cpu time    0.1397: real time    0.1408
    SETDIJ:  cpu time    0.0129: real time    0.0130
     EDDAV:  cpu time  491.1639: real time  494.4437
 BZINTS: Fermi energy:  5.301910;688.000000 electrons
         Band energy:***********;  BLOECHL correction:  0.000000
       DOS:  cpu time    0.0239: real time    0.0240
    CHARGE:  cpu time    3.4537: real time    3.4768
    MIXING:  cpu time    0.0020: real time    0.0027
    --------------------------------------------
      LOOP:  cpu time  494.7961: real time  498.1010

 eigenvalue-minimisations  : 65536
 total energy-change (2. order) : 0.3516034E-06  (-0.3726423E-06)
 number of electron     688.0000128 magnetization      -0.0000000
 augmentation part      282.2754884 magnetization      -0.0000000

 Broyden mixing:
  rms(total) = 0.57344E-03    rms(broyden)= 0.57343E-03
  rms(prec ) = 0.66521E-03
  weight for this iteration     100.00

 eigenvalues of (default mixing * dielectric matrix)
  average eigenvalue GAMMA=   0.9802
  1.6531  0.3074

 Free energy of the ion-electron system (eV)
  ---------------------------------------------------
  alpha Z        PSCENC =      2377.42502447
  Ewald energy   TEWEN  =    -62761.94504590
  -Hartree energ DENC   =    -42765.20678495
  -exchange      EXHF   =         0.00000000
  -V(xc)+E(xc)   XCENC  =      3286.30666100
  PAW double counting   =    112043.21516862  -115733.54668058
  entropy T*S    EENTRO =         0.00000000
  eigenvalues    EBANDS =    -10791.77248745
  atomic energy  EATOM  =    114020.06510763
  Solvation  Ediel_sol  =         0.00000000
  ---------------------------------------------------
  free energy    TOTEN  =      -325.45903716 eV

  energy without entropy =     -325.45903716  energy(sigma->0) =     -325.45903716


--------------------------------------------------------------------------------------------------------




--------------------------------------- Iteration      1(   4)  ---------------------------------------


    POTLOK:  cpu time    0.1534: real time    0.1545
    SETDIJ:  cpu time    0.0156: real time    0.0157
     EDDAV:  cpu time  513.5856: real time  516.9771
 BZINTS: Fermi energy:  5.243901;688.000000 electrons
         Band energy:***********;  BLOECHL correction:  0.000000
       DOS:  cpu time    0.0239: real time    0.0240
    CHARGE:  cpu time    3.0934: real time    3.1156
    MIXING:  cpu time    0.0021: real time    0.0021
    --------------------------------------------
      LOOP:  cpu time  516.8740: real time  520.2890

 eigenvalue-minimisations  : 67328
 total energy-change (2. order) : 0.2683373E-06  (-0.1119232E-06)
 number of electron     688.0000128 magnetization      -0.0000000
 augmentation part      282.2753902 magnetization      -0.0000000

 Broyden mixing:
  rms(total) = 0.16032E-03    rms(broyden)= 0.16032E-03
  rms(prec ) = 0.18515E-03
  weight for this iteration     100.00

 eigenvalues of (default mixing * dielectric matrix)
  average eigenvalue GAMMA=   0.9645
  1.9293  0.6143  0.3497

 Free energy of the ion-electron system (eV)
  ---------------------------------------------------
  alpha Z        PSCENC =      2377.42502447
  Ewald energy   TEWEN  =    -62761.94504590
  -Hartree energ DENC   =    -42765.22158475
  -exchange      EXHF   =         0.00000000
  -V(xc)+E(xc)   XCENC  =      3286.30736045
  PAW double counting   =    112043.21856627  -115733.55019301
  entropy T*S    EENTRO =         0.00000000
  eigenvalues    EBANDS =    -10791.75827205
  atomic energy  EATOM  =    114020.06510763
  Solvation  Ediel_sol  =         0.00000000
  ---------------------------------------------------
  free energy    TOTEN  =      -325.45903689 eV

  energy without entropy =     -325.45903689  energy(sigma->0) =     -325.45903689


--------------------------------------------------------------------------------------------------------




--------------------------------------- Iteration      1(   5)  ---------------------------------------


    POTLOK:  cpu time    0.1534: real time    0.1546
    SETDIJ:  cpu time    0.0153: real time    0.0153
     EDDAV:  cpu time  469.8433: real time  472.9690
 BZINTS: Fermi energy:  5.230253;688.000000 electrons
         Band energy:***********;  BLOECHL correction:  0.000000
       DOS:  cpu time    0.0275: real time    0.0276
    CHARGE:  cpu time    3.0297: real time    3.0500
    MIXING:  cpu time    0.0040: real time    0.0040
    --------------------------------------------
      LOOP:  cpu time  473.0731: real time  476.2205

 eigenvalue-minimisations  : 62720
 total energy-change (2. order) :-0.3736932E-07  (-0.2481931E-07)
 number of electron     688.0000128 magnetization      -0.0000000
 augmentation part      282.2755272 magnetization      -0.0000000

 Broyden mixing:
  rms(total) = 0.63569E-04    rms(broyden)= 0.63561E-04
  rms(prec ) = 0.69160E-04
  weight for this iteration     100.00

 eigenvalues of (default mixing * dielectric matrix)
  average eigenvalue GAMMA=   1.0430
  1.6532  1.5244  0.3477  0.6465

 Free energy of the ion-electron system (eV)
  ---------------------------------------------------
  alpha Z        PSCENC =      2377.42502447
  Ewald energy   TEWEN  =    -62761.94504590
  -Hartree energ DENC   =    -42765.21623932
  -exchange      EXHF   =         0.00000000
  -V(xc)+E(xc)   XCENC  =      3286.30737809
  PAW double counting   =    112043.21056831  -115733.54126985
  entropy T*S    EENTRO =         0.00000000
  eigenvalues    EBANDS =    -10791.76456036
  atomic energy  EATOM  =    114020.06510763
  Solvation  Ediel_sol  =         0.00000000
  ---------------------------------------------------
  free energy    TOTEN  =      -325.45903693 eV

  energy without entropy =     -325.45903693  energy(sigma->0) =     -325.45903693


--------------------------------------------------------------------------------------------------------




--------------------------------------- Iteration      1(   6)  ---------------------------------------


    POTLOK:  cpu time    0.1460: real time    0.1471
    SETDIJ:  cpu time    0.0129: real time    0.0130
     EDDAV:  cpu time  202.5128: real time  204.0582
 BZINTS: Fermi energy:  5.228123;688.000000 electrons
         Band energy:***********;  BLOECHL correction:  0.000000
       DOS:  cpu time    0.0238: real time    0.0239
    --------------------------------------------
      LOOP:  cpu time  202.6956: real time  204.2423

 eigenvalue-minimisations  : 35840
 total energy-change (2. order) :-0.6155460E-08  (-0.1241657E-08)
 number of electron     688.0000128 magnetization      -0.0000000
 augmentation part      282.2755272 magnetization      -0.0000000

 Free energy of the ion-electron system (eV)
  ---------------------------------------------------
  alpha Z        PSCENC =      2377.42502447
  Ewald energy   TEWEN  =    -62761.94504590
  -Hartree energ DENC   =    -42765.21741838
  -exchange      EXHF   =         0.00000000
  -V(xc)+E(xc)   XCENC  =      3286.30741020
  PAW double counting   =    112043.20001905  -115733.53109899
  entropy T*S    EENTRO =         0.00000000
  eigenvalues    EBANDS =    -10791.76303501
  atomic energy  EATOM  =    114020.06510763
  Solvation  Ediel_sol  =         0.00000000
  ---------------------------------------------------
  free energy    TOTEN  =      -325.45903694 eV

  energy without entropy =     -325.45903694  energy(sigma->0) =     -325.45903694


--------------------------------------------------------------------------------------------------------




 average (electrostatic) potential at core
  the test charge radii are     0.9698  0.8297  0.9500
  (the norm of the test charge is              1.0000)
       1 -86.5069       2 -86.5069       3 -86.5069       4 -86.5069       5 -86.5069
       6 -86.5069       7 -86.5069       8 -86.5069       9 -86.5069      10 -86.5069
      11 -86.5069      12 -86.5069      13 -86.5069      14 -86.5069      15 -86.5069
      16 -86.5069      17 -86.5069      18 -86.5069      19 -86.5069      20 -86.5069
      21 -86.5069      22 -86.5069      23 -86.5069      24 -86.5069      25 -86.5069
      26 -86.5069      27 -86.5069      28 -86.5069      29 -86.5069      30 -86.5069
      31 -86.5069      32 -86.5069      33 -80.6097      34 -80.6097      35 -80.6097
      36 -80.6097      37 -80.6097      38 -80.6097      39 -80.6097      40 -80.6097
      41 -80.6097      42 -80.6097      43 -80.6097      44 -80.6097      45 -80.6097
      46 -80.6097      47 -80.6097      48 -80.6097      49 -80.0777      50 -80.0777
      51 -80.0777      52 -80.0777      53 -80.0777      54 -80.0777      55 -80.0777
      56 -80.0777      57 -80.0777      58 -80.0777      59 -80.0777      60 -80.0777
      61 -80.0777      62 -80.0777      63 -80.0777      64 -80.0777
 
 
 
 E-fermi :   5.2281     XC(G=0): -10.5300     alpha+bet :-10.6416


 spin component 1

 k-point     1 :       0.0000    0.0000    0.0000
  band No.  band energies     occupation 
      1     -64.2255      1.00000
      2     -64.2255      1.00000
      3     -64.2254      1.00000
      4     -64.2254      1.00000
      5     -64.2254      1.00000
      6     -64.2254      1.00000
      7     -64.2254      1.00000
      8     -64.2254      1.00000
      9     -64.2125      1.00000
     10     -64.2125      1.00000
     11     -64.2125      1.00000
     12     -64.2125      1.00000
     13     -64.2125      1.00000
     14     -64.2125      1.00000
     15     -64.2125      1.00000
     16     -64.2124      1.00000
     17     -64.1952      1.00000
     18     -64.1952      1.00000
     19     -64.1952      1.00000
     20     -64.1952      1.00000
     21     -64.1952      1.00000
     22     -64.1952      1.00000
     23     -64.1952      1.00000
     24     -64.1952      1.00000
     25     -64.1875      1.00000
     26     -64.1875      1.00000
     27     -64.1875      1.00000
     28     -64.1875      1.00000
     29     -64.1875      1.00000
     30     -64.1875      1.00000
     31     -64.1875      1.00000
     32     -64.1875      1.00000
     33     -64.1615      1.00000
     34     -64.1615      1.00000
     35     -64.1615      1.00000
     36     -64.1615      1.00000
     37     -64.1615      1.00000
     38     -64.1615      1.00000
     39     -64.1615      1.00000
     40     -64.1614      1.00000
     41     -64.1374      1.00000
     42     -64.1374      1.00000
     43     -64.1374      1.00000
     44     -64.1374      1.00000
     45     -64.1374      1.00000
     46     -64.1374      1.00000
     47     -64.1374      1.00000
     48     -64.1374      1.00000
     49     -51.7994      1.00000
     50     -51.7994      1.00000
     51     -51.7994      1.00000
     52     -51.7994      1.00000
     53     -51.7994      1.00000
     54     -51.7994      1.00000
     55     -51.7994      1.00000
     56     -51.7994      1.00000
     57     -51.6615      1.00000
     58     -51.6615      1.00000
     59     -51.6615      1.00000
     60     -51.6615      1.00000
     61     -51.6615      1.00000
     62     -51.6615      1.00000
     63     -51.6615      1.00000
     64     -51.6615      1.00000
     65     -51.6531      1.00000
     66     -51.6531      1.00000
     67     -51.6531      1.00000
     68     -51.6531      1.00000
     69     -51.6531      1.00000
     70     -51.6531      1.00000
     71     -51.6531      1.00000
     72     -51.6530      1.00000
     73     -47.6156      1.00000
     74     -47.6156      1.00000
     75     -47.6156      1.00000
     76     -47.6156      1.00000
     77     -47.6156      1.00000
     78     -47.6156      1.00000
     79     -47.6156      1.00000
     80     -47.6156      1.00000
     81     -47.5679      1.00000
     82     -47.5679      1.00000
     83     -47.5679      1.00000
     84     -47.5679      1.00000
     85     -47.5679      1.00000
     86     -47.5679      1.00000
     87     -47.5679      1.00000
     88     -47.5679      1.00000
     89     -47.5635      1.00000
     90     -47.5635      1.00000
     91     -47.5635      1.00000
     92     -47.5635      1.00000
     93     -47.5635      1.00000
     94     -47.5635      1.00000
     95     -47.5635      1.00000
     96     -47.5635      1.00000
     97      -9.0372      1.00000
     98      -8.4451      1.00000
     99      -8.3945      1.00000
    100      -8.3796      1.00000
    101      -8.3796      1.00000
    102      -8.3788      1.00000
    103      -8.3788      1.00000
    104      -8.1980      1.00000
    105      -8.1521      1.00000
    106      -8.1460      1.00000
    107      -8.1069      1.00000
    108      -8.0341      1.00000
    109      -8.0341      1.00000
    110      -8.0340      1.00000
    111      -8.0340      1.00000
    112      -7.9760      1.00000
    113      -7.9760      1.00000
    114      -7.9759      1.00000
    115      -7.9759      1.00000
    116      -7.8581      1.00000
    117      -7.8390      1.00000
    118      -7.7971      1.00000
    119      -7.7698      1.00000
    120      -7.6922      1.00000
    121      -7.6316      1.00000
    122      -7.6316      1.00000
    123      -7.6302      1.00000
    124      -7.6302      1.00000
    125      -7.6093      1.00000
    126      -7.6059      1.00000
    127      -7.5397      1.00000
    128      -7.5332      1.00000
    129      -1.9884      1.00000
    130      -1.8974      1.00000
    131      -1.8974      1.00000
    132      -1.8969      1.00000
    133      -1.8761      1.00000
    134      -1.8761      1.00000
    135      -1.8586      1.00000
    136      -1.8286      1.00000
    137      -1.8110      1.00000
    138      -1.7845      1.00000
    139      -1.7791      1.00000
    140      -1.7791      1.00000
    141      -1.7762      1.00000
    142      -1.7762      1.00000
    143      -1.7634      1.00000
    144      -1.7552      1.00000
    145      -1.7429      1.00000
    146      -1.7417      1.00000
    147      -1.7138      1.00000
    148      -1.7069      1.00000
    149      -1.6954      1.00000
    150      -1.6954      1.00000
    151      -1.6942      1.00000
    152      -1.6942      1.00000
    153      -1.6864      1.00000
    154      -1.6461      1.00000
    155      -1.6461      1.00000
    156      -1.6429      1.00000
    157      -1.6202      1.00000
    158      -1.6202      1.00000
    159      -1.6024      1.00000
    160      -1.5869      1.00000
    161      -1.5869      1.00000
    162      -1.5868      1.00000
    163      -1.5868      1.00000
    164      -1.5650      1.00000
    165      -1.5626      1.00000
    166      -1.5014      1.00000
    167      -1.4567      1.00000
    168      -1.4234      1.00000
    169      -1.0625      1.00000
    170      -0.9046      1.00000
    171      -0.6955      1.00000
    172      -0.6375      1.00000
    173      -0.6011      1.00000
    174      -0.4807      1.00000
    175      -0.1223      1.00000
    176      -0.1223      1.00000
    177      -0.1174      1.00000
    178      -0.1174      1.00000
    179      -0.1086      1.00000
    180      -0.0899      1.00000
    181      -0.0176      1.00000
    182       0.0595      1.00000
    183       0.0595      1.00000
    184       0.0762      1.00000
    185       0.0783      1.00000
    186       0.0783      1.00000
    187       0.1103      1.00000
    188       0.1927      1.00000
    189       0.1955      1.00000
    190       0.1955      1.00000
    191       0.1977      1.00000
    192       0.1977      1.00000
    193       0.2812      1.00000
    194       0.3772      1.00000
    195       0.4151      1.00000
    196       0.4151      1.00000
    197       0.4324      1.00000
    198       0.4324      1.00000
    199       0.5197      1.00000
    200       0.7265      1.00000
    201       0.7943      1.00000
    202       0.8612      1.00000
    203       0.9215      1.00000
    204       0.9215      1.00000
    205       0.9282      1.00000
    206       0.9292      1.00000
    207       0.9292      1.00000
    208       0.9762      1.00000
    209       0.9830      1.00000
    210       0.9830      1.00000
    211       1.0003      1.00000
    212       1.0003      1.00000
    213       1.0035      1.00000
    214       1.1470      1.00000
    215       1.1470      1.00000
    216       1.1501      1.00000
    217       1.1501      1.00000
    218       1.1795      1.00000
    219       1.2518      1.00000
    220       1.2800      1.00000
    221       1.3144      1.00000
    222       1.3144      1.00000
    223       1.3168      1.00000
    224       1.3168      1.00000
    225       1.3236      1.00000
    226       1.3329      1.00000
    227       1.3583      1.00000
    228       1.3730      1.00000
    229       1.3740      1.00000
    230       1.3779      1.00000
    231       1.4204      1.00000
    232       1.4305      1.00000
    233       1.4305      1.00000
    234       1.4444      1.00000
    235       1.4444      1.00000
    236       1.4738      1.00000
    237       1.6230      1.00000
    238       1.6553      1.00000
    239       1.7545      1.00000
    240       1.7642      1.00000
    241       1.8337      1.00000
    242       1.8562      1.00000
    243       1.8592      1.00000
    244       1.8979      1.00000
    245       1.8979      1.00000
    246       1.9211      1.00000
    247       1.9211      1.00000
    248       1.9452      1.00000
    249       1.9756      1.00000
    250       1.9756      1.00000
    251       1.9808      1.00000
    252       2.0202      1.00000
    253       2.0202      1.00000
    254       2.0327      1.00000
    255       2.2557      1.00000
    256       2.2557      1.00000
    257       2.2601      1.00000
    258       2.2602      1.00000
    259       2.3556      1.00000
    260       2.3691      1.00000
    261       2.3691      1.00000
    262       2.4066      1.00000
    263       2.6327      1.00000
    264       2.7334      1.00000
    265       2.7622      1.00000
    266       2.8134      1.00000
    267       2.8134      1.00000
    268       2.8408      1.00000
    269       2.8550      1.00000
    270       2.8562      1.00000
    271       2.8562      1.00000
    272       2.8688      1.00000
    273       2.8688      1.00000
    274       2.8771      1.00000
    275       2.8771      1.00000
    276       2.8826      1.00000
    277       2.8898      1.00000
    278       2.9211      1.00000
    279       2.9581      1.00000
    280       2.9705      1.00000
    281       3.0237      1.00000
    282       3.0375      1.00000
    283       3.0468      1.00000
    284       3.0468      1.00000
    285       3.0495      1.00000
    286       3.0495      1.00000
    287       3.0847      1.00000
    288       3.0951      1.00000
    289       3.1296      1.00000
    290       3.1835      1.00000
    291       3.2137      1.00000
    292       3.2137      1.00000
    293       3.2496      1.00000
    294       3.2830      1.00000
    295       3.2830      1.00000
    296       3.2880      1.00000
    297       3.3754      1.00000
    298       3.4053      1.00000
    299       3.4053      1.00000
    300       3.4088      1.00000
    301       3.4255      1.00000
    302       3.5580      1.00000
    303       3.5802      1.00000
    304       3.5802      1.00000
    305       3.6282      1.00000
    306       3.6593      1.00000
    307       3.6593      1.00000
    308       3.6748      1.00000
    309       3.6748      1.00000
    310       3.6788      1.00000
    311       3.7796      1.00000
    312       3.7796      1.00000
    313       3.7984      1.00000
    314       3.8080      1.00000
    315       3.8080      1.00000
    316       3.8561      1.00000
    317       3.9338      1.00000
    318       3.9958      1.00000
    319       4.0762      1.00000
    320       4.1088      1.00000
    321       4.1092      1.00000
    322       4.1092      1.00000
    323       4.1185      1.00000
    324       4.1185      1.00000
    325       4.1893      1.00000
    326       4.2037      1.00000
    327       4.2037      1.00000
    328       4.2215      1.00000
    329       4.2381      1.00000
    330       4.3046      1.00000
    331       4.3046      1.00000
    332       4.3342      1.00000
    333       4.3951      1.00000
    334       4.4428      1.00000
    335       4.4949      1.00000
    336       4.6465      1.00000
    337       4.7030      1.00000
    338       4.7030      1.00000
    339       4.7604      1.00000
    340       4.7604      1.00000
    341       4.7791      1.00000
    342       4.8800      1.00000
    343       4.9990      1.00000
    344       5.1062      1.00000
    345       5.7126      0.00000
    346       5.7126      0.00000
    347       5.7813      0.00000
    348       5.7813      0.00000
    349       5.8677      0.00000
    350       5.9307      0.00000
    351       5.9708      0.00000
    352       6.0023      0.00000
    353       6.0544      0.00000
    354       6.0544      0.00000
    355       6.0864      0.00000
    356       6.0869      0.00000
    357       6.1629      0.00000
    358       6.1629      0.00000
    359       6.1722      0.00000
    360       6.2026      0.00000
    361       6.2026      0.00000
    362       6.2490      0.00000
    363       6.2532      0.00000
    364       6.2532      0.00000
    365       6.2719      0.00000
    366       6.2794      0.00000
    367       6.3174      0.00000
    368       6.3174      0.00000
    369       6.3253      0.00000
    370       6.3253      0.00000
    371       6.3478      0.00000
    372       6.3806      0.00000
    373       6.4059      0.00000
    374       6.4305      0.00000
    375       6.4802      0.00000
    376       6.5386      0.00000
    377       6.5402      0.00000
    378       6.5612      0.00000
    379       6.6696      0.00000
    380       6.6881      0.00000
    381       6.6881      0.00000
    382       6.7013      0.00000
    383       6.7013      0.00000
    384       6.9054      0.00000
    385       7.4908      0.00000
    386       8.2043      0.00000
    387       8.6076      0.00000
    388       8.8037      0.00000
    389       8.8250      0.00000
    390       8.8303      0.00000
    391       8.9041      0.00000
    392       9.1881      0.00000
    393       9.4329      0.00000
    394       9.4329      0.00000
    395       9.4338      0.00000
    396       9.4338      0.00000
    397       9.7313      0.00000
    398       9.8537      0.00000
    399      10.0078      0.00000
    400      10.1412      0.00000
    401      10.2346      0.00000
    402      10.4092      0.00000
    403      10.4092      0.00000
    404      10.4170      0.00000
    405      10.4170      0.00000
    406      10.4849      0.00000
    407      10.6983      0.00000
    408      10.6983      0.00000
    409      10.6995      0.00000
    410      10.6995      0.00000
    411      10.7088      0.00000
    412      10.7619      0.00000
    413      10.7619      0.00000
    414      10.7619      0.00000
    415      10.7619      0.00000
    416      10.8498      0.00000
    417      10.9160      0.00000
    418      10.9160      0.00000
    419      10.9520      0.00000
    420      10.9520      0.00000
    421      11.0203      0.00000
    422      11.0325      0.00000
    423      11.1560      0.00000
    424      11.3587      0.00000
    425      11.3587      0.00000
    426      11.3709      0.00000
    427      11.3709      0.00000
    428      11.4809      0.00000
    429      11.5573      0.00000
    430      11.5608      0.00000
    431      11.6147      0.00000
    432      11.6147      0.00000
    433      11.6238      0.00000
    434      11.6340      0.00000
    435      11.6340      0.00000
    436      11.6436      0.00000
    437      11.7872      0.00000
    438      11.8986      0.00000
    439      11.9255      0.00000
    440      11.9794      0.00000
    441      12.0420      0.00000
    442      12.0887      0.00000
    443      12.0974      0.00000
    444      12.2051      0.00000
    445      12.2057      0.00000
    446      12.2265      0.00000
    447      12.3896      0.00000
[...]
   -.413E+02 0.144E+01 0.478E+02   0.421E+02 -.139E+01 -.482E+02   -.801E+00 -.460E-01 0.460E+00   -.281E-04 0.349E-05 -.855E-05
   -.413E+02 0.144E+01 0.478E+02   0.421E+02 -.139E+01 -.482E+02   -.801E+00 -.460E-01 0.460E+00   -.281E-04 0.349E-05 -.855E-05
   -.413E+02 0.144E+01 0.478E+02   0.421E+02 -.139E+01 -.482E+02   -.801E+00 -.460E-01 0.460E+00   -.281E-04 0.349E-05 -.855E-05
   -.413E+02 0.144E+01 0.478E+02   0.421E+02 -.139E+01 -.482E+02   -.801E+00 -.460E-01 0.460E+00   -.281E-04 0.349E-05 -.855E-05
   0.413E+02 -.144E+01 0.478E+02   -.421E+02 0.139E+01 -.482E+02   0.801E+00 0.460E-01 0.460E+00   0.281E-04 -.349E-05 -.855E-05
   0.413E+02 -.144E+01 0.478E+02   -.421E+02 0.139E+01 -.482E+02   0.801E+00 0.460E-01 0.460E+00   0.281E-04 -.349E-05 -.855E-05
   0.413E+02 -.144E+01 0.478E+02   -.421E+02 0.139E+01 -.482E+02   0.801E+00 0.460E-01 0.460E+00   0.281E-04 -.349E-05 -.855E-05
   0.413E+02 -.144E+01 0.478E+02   -.421E+02 0.139E+01 -.482E+02   0.801E+00 0.460E-01 0.460E+00   0.281E-04 -.349E-05 -.855E-05
   0.144E+01 -.413E+02 0.478E+02   -.139E+01 0.421E+02 -.482E+02   -.460E-01 -.801E+00 0.460E+00   0.349E-05 -.281E-04 -.855E-05
   0.144E+01 -.413E+02 0.478E+02   -.139E+01 0.421E+02 -.482E+02   -.460E-01 -.801E+00 0.460E+00   0.349E-05 -.281E-04 -.855E-05
   0.144E+01 -.413E+02 0.478E+02   -.139E+01 0.421E+02 -.482E+02   -.460E-01 -.801E+00 0.460E+00   0.349E-05 -.281E-04 -.855E-05
   0.144E+01 -.413E+02 0.478E+02   -.139E+01 0.421E+02 -.482E+02   -.460E-01 -.801E+00 0.460E+00   0.349E-05 -.281E-04 -.855E-05
   -.144E+01 0.413E+02 0.478E+02   0.139E+01 -.421E+02 -.482E+02   0.460E-01 0.801E+00 0.460E+00   -.349E-05 0.281E-04 -.855E-05
   -.144E+01 0.413E+02 0.478E+02   0.139E+01 -.421E+02 -.482E+02   0.460E-01 0.801E+00 0.460E+00   -.349E-05 0.281E-04 -.855E-05
   -.144E+01 0.413E+02 0.478E+02   0.139E+01 -.421E+02 -.482E+02   0.460E-01 0.801E+00 0.460E+00   -.349E-05 0.281E-04 -.855E-05
   -.144E+01 0.413E+02 0.478E+02   0.139E+01 -.421E+02 -.482E+02   0.460E-01 0.801E+00 0.460E+00   -.349E-05 0.281E-04 -.855E-05
   -.169E-06 -.715E-07 -.561E+02   -.657E-13 -.320E-13 0.539E+02   0.796E-19 -.136E-18 0.224E+01   -.802E-11 -.200E-11 -.626E-03
   -.169E-06 -.715E-07 -.561E+02   -.515E-13 0.284E-13 0.539E+02   0.796E-19 -.136E-18 0.224E+01   0.914E-11 -.289E-11 -.626E-03
   -.169E-06 -.715E-07 -.561E+02   -.515E-13 0.142E-13 0.539E+02   -.695E-19 -.108E-18 0.224E+01   0.166E-12 0.768E-12 -.626E-03
   -.169E-06 -.716E-07 -.561E+02   -.657E-13 -.284E-13 0.539E+02   -.695E-19 -.542E-19 0.224E+01   0.359E-11 -.541E-11 -.626E-03
   -.715E-07 -.169E-06 -.561E+02   0.114E-12 -.568E-13 0.539E+02   0.126E-18 -.125E-18 0.224E+01   -.644E-11 -.519E-11 -.626E-03
   -.715E-07 -.169E-06 -.561E+02   0.128E-12 -.995E-13 0.539E+02   -.147E-18 -.407E-19 0.224E+01   0.118E-10 -.534E-11 -.626E-03
   -.715E-07 -.169E-06 -.561E+02   0.995E-13 -.711E-13 0.539E+02   -.559E-19 -.339E-19 0.224E+01   -.589E-11 0.315E-11 -.626E-03
   -.715E-07 -.169E-06 -.561E+02   0.114E-12 -.568E-13 0.539E+02   0.336E-18 0.115E-18 0.224E+01   0.107E-10 0.220E-11 -.626E-03
   -.169E-06 -.716E-07 -.561E+02   0.355E-14 0.169E-12 0.539E+02   0.136E-19 0.000E+00 0.224E+01   -.399E-11 -.115E-10 -.626E-03
   -.169E-06 -.715E-07 -.561E+02   0.355E-14 0.226E-12 0.539E+02   0.813E-19 0.298E-18 0.224E+01   0.690E-11 -.157E-10 -.626E-03
   -.169E-06 -.715E-07 -.561E+02   0.000E+00 0.124E-12 0.539E+02   0.152E-19 0.352E-18 0.224E+01   -.131E-12 0.543E-11 -.626E-03
   -.169E-06 -.715E-07 -.561E+02   -.284E-13 0.199E-12 0.539E+02   0.288E-19 -.542E-19 0.224E+01   0.423E-11 -.558E-11 -.626E-03
   -.715E-07 -.169E-06 -.561E+02   0.165E-12 0.115E-12 0.539E+02   -.737E-19 -.678E-20 0.224E+01   0.107E-10 0.533E-12 -.626E-03
   -.715E-07 -.169E-06 -.561E+02   0.139E-12 0.157E-12 0.539E+02   0.251E-18 0.712E-19 0.224E+01   -.474E-11 -.417E-11 -.626E-03
   -.715E-07 -.169E-06 -.561E+02   0.200E-12 0.132E-12 0.539E+02   -.455E-19 0.237E-19 0.224E+01   0.687E-11 -.174E-11 -.626E-03
   -.715E-07 -.169E-06 -.561E+02   0.175E-12 0.174E-12 0.539E+02   -.299E-18 0.440E-19 0.224E+01   -.399E-11 0.412E-11 -.626E-03
   0.303E-07 -.248E-07 -.452E+02   -.657E-13 -.217E-12 0.426E+02   -.176E-17 -.542E-18 0.260E+01   0.771E-11 0.127E-11 0.249E-05
   0.303E-07 -.248E-07 -.452E+02   -.657E-13 -.185E-12 0.426E+02   -.501E-18 0.434E-18 0.260E+01   -.897E-11 -.120E-11 0.249E-05
   0.303E-07 -.248E-07 -.452E+02   -.586E-13 -.160E-12 0.426E+02   0.745E-18 0.325E-18 0.260E+01   -.556E-12 0.214E-11 0.249E-05
   0.303E-07 -.249E-07 -.452E+02   -.728E-13 -.128E-12 0.426E+02   -.542E-18 0.108E-18 0.260E+01   -.444E-11 0.593E-11 0.249E-05
   -.248E-07 0.303E-07 -.452E+02   -.139E-12 -.192E-12 0.426E+02   -.427E-18 0.434E-18 0.260E+01   0.512E-11 0.179E-11 0.249E-05
   -.248E-07 0.303E-07 -.452E+02   -.160E-12 -.185E-12 0.426E+02   0.339E-19 0.217E-18 0.260E+01   -.110E-10 -.133E-11 0.249E-05
   -.248E-07 0.303E-07 -.452E+02   -.171E-12 -.149E-12 0.426E+02   -.150E-17 -.108E-18 0.260E+01   0.187E-11 -.320E-11 0.249E-05
   -.248E-07 0.304E-07 -.452E+02   -.124E-12 -.114E-12 0.426E+02   0.142E-18 -.542E-18 0.260E+01   -.534E-11 -.591E-12 0.249E-05
   0.303E-07 -.248E-07 -.452E+02   -.924E-13 -.497E-13 0.426E+02   -.989E-18 0.651E-18 0.260E+01   0.157E-11 0.436E-11 0.249E-05
   0.303E-07 -.248E-07 -.452E+02   -.355E-13 0.338E-13 0.426E+02   0.285E-18 -.867E-18 0.260E+01   -.358E-11 0.398E-11 0.249E-05
   0.303E-07 -.248E-07 -.452E+02   -.995E-13 -.249E-13 0.426E+02   0.285E-18 -.325E-18 0.260E+01   -.139E-11 -.700E-11 0.249E-05
   0.303E-07 -.248E-07 -.452E+02   -.284E-13 -.568E-13 0.426E+02   -.989E-18 0.152E-17 0.260E+01   -.135E-11 0.291E-13 0.249E-05
   -.248E-07 0.303E-07 -.452E+02   -.110E-12 0.219E-13 0.426E+02   0.779E-18 0.325E-18 0.260E+01   -.485E-11 0.184E-11 0.249E-05
   -.248E-07 0.303E-07 -.452E+02   -.105E-12 -.698E-13 0.426E+02   -.474E-18 0.217E-18 0.260E+01   0.160E-11 0.200E-11 0.249E-05
   -.248E-07 0.303E-07 -.452E+02   -.115E-12 -.257E-13 0.426E+02   -.142E-18 0.000E+00 0.260E+01   -.647E-11 -.111E-11 0.249E-05
   -.248E-07 0.303E-07 -.452E+02   -.958E-13 -.322E-13 0.426E+02   0.251E-18 0.217E-18 0.260E+01   0.245E-11 -.219E-11 0.249E-05
 -----------------------------------------------------------------------------------------------
   -.195E-05 -.195E-05 -.922E+02   -.230E-12 0.108E-12 0.838E-12   0.766E-15 -.553E-15 0.921E+02   0.573E-11 -.362E-10 -.102E-01
 
 
 POSITION                                       TOTAL-FORCE (eV/Angst)
 -----------------------------------------------------------------------------------
      1.42421      1.42313      1.21734        -0.000019      0.000082      0.000050
      6.66417      1.83556      1.21734        -0.000019      0.000082      0.000050
      1.83664      6.66309      1.21734        -0.000019      0.000082      0.000050
      7.07660      7.07552      1.21734        -0.000019      0.000082      0.000050
      4.22819      4.22927      1.21734         0.000019     -0.000082      0.000050
      9.46815      4.64171      1.21734         0.000019     -0.000082      0.000050
      4.64062      9.46923      1.21734         0.000019     -0.000082      0.000050
      9.88058      9.88167      1.21734         0.000019     -0.000082      0.000050
      1.60929      4.02197      9.05328        -0.000082      0.000019      0.000050
      6.84925      4.43441      9.05328        -0.000082      0.000019      0.000050
      2.02173      9.26193      9.05328        -0.000082      0.000019      0.000050
      7.26169      9.67437      9.05328        -0.000082      0.000019      0.000050
      4.04311      1.63043      9.05328         0.000082     -0.000019      0.000050
      9.28307      2.04286      9.05328         0.000082     -0.000019      0.000050
      4.45554      6.87039      9.05328         0.000082     -0.000019      0.000050
      9.69550      7.28282      9.05328         0.000082     -0.000019      0.000050
      1.40199      1.40307      6.44130         0.000019     -0.000082      0.000050
      6.64195      1.81551      6.44130         0.000019     -0.000082      0.000050
      1.81443      6.64303      6.44130         0.000019     -0.000082      0.000050
      7.05439      7.05547      6.44130         0.000019     -0.000082      0.000050
      4.25041      4.24932      6.44130        -0.000019      0.000082      0.000050
      9.49037      4.66176      6.44130        -0.000019      0.000082      0.000050
      4.66284      9.48928      6.44130        -0.000019      0.000082      0.000050
      9.90280      9.90172      6.44130        -0.000019      0.000082      0.000050
      4.02305      1.60821      3.82932        -0.000082      0.000019      0.000050
      9.26301      2.02064      3.82932        -0.000082      0.000019      0.000050
      4.43549      6.84817      3.82932        -0.000082      0.000019      0.000050
      9.67545      7.26060      3.82932        -0.000082      0.000019      0.000050
      1.62934      4.04419      3.82932         0.000082     -0.000019      0.000050
      6.86930      4.45662      3.82932         0.000082     -0.000019      0.000050
      2.04178      9.28415      3.82932         0.000082     -0.000019      0.000050
      7.28174      9.69658      3.82932         0.000082     -0.000019      0.000050
      0.00000      0.00000      5.30059         0.000000     -0.000000     -0.000324
      5.23996      0.41244      5.30059         0.000000     -0.000000     -0.000324
      0.41244      5.23996      5.30059         0.000000     -0.000000     -0.000324
      5.65240      5.65240      5.30059         0.000000     -0.000000     -0.000324
      2.61998      0.20622      2.68861         0.000000     -0.000000     -0.000324
      7.85994      0.61865      2.68861         0.000000     -0.000000     -0.000324
      3.03242      5.44618      2.68861         0.000000     -0.000000     -0.000324
      8.27238      5.85861      2.68861         0.000000     -0.000000     -0.000324
      2.82620      2.82620      0.07663         0.000000     -0.000000     -0.000324
      8.06616      3.23863      0.07663         0.000000     -0.000000     -0.000324
      3.23863      8.06616      0.07663         0.000000     -0.000000     -0.000324
      8.47859      8.47859      0.07663         0.000000     -0.000000     -0.000324
      0.20622      2.61998      7.91257         0.000000     -0.000000     -0.000324
      5.44618      3.03242      7.91257         0.000000     -0.000000     -0.000324
      0.61865      7.85994      7.91257         0.000000     -0.000000     -0.000324
      5.85861      8.27238      7.91257         0.000000     -0.000000     -0.000324
      0.00000      0.00000      0.10068         0.000000     -0.000000      0.000224
      5.23996      0.41244      0.10068         0.000000     -0.000000      0.000224
      0.41244      5.23996      0.10068         0.000000     -0.000000      0.000224
      5.65240      5.65240      0.10068         0.000000     -0.000000      0.000224
      2.61998      0.20622      7.93661         0.000000     -0.000000      0.000224
      7.85994      0.61865      7.93661         0.000000     -0.000000      0.000224
      3.03242      5.44618      7.93661         0.000000     -0.000000      0.000224
      8.27238      5.85861      7.93661         0.000000     -0.000000      0.000224
      2.82620      2.82620      5.32463         0.000000     -0.000000      0.000224
      8.06616      3.23863      5.32463         0.000000     -0.000000      0.000224
      3.23863      8.06616      5.32463         0.000000     -0.000000      0.000224
      8.47859      8.47859      5.32463         0.000000     -0.000000      0.000224
      0.20622      2.61998      2.71266         0.000000     -0.000000      0.000224
      5.44618      3.03242      2.71266         0.000000     -0.000000      0.000224
      0.61865      7.85994      2.71266         0.000000     -0.000000      0.000224
      5.85861      8.27238      2.71266         0.000000     -0.000000      0.000224
 -----------------------------------------------------------------------------------
    total drift:                               -0.000002     -0.000002     -0.034943


--------------------------------------------------------------------------------------------------------



  FREE ENERGIE OF THE ION-ELECTRON SYSTEM (eV)
  ---------------------------------------------------
  free  energy   TOTEN  =      -325.45903694 eV

  energy  without entropy=     -325.45903694  energy(sigma->0) =     -325.45903694
 


--------------------------------------------------------------------------------------------------------


    POTLOK:  cpu time    0.1706: real time    0.1713


--------------------------------------------------------------------------------------------------------


 writing wavefunctions
     LOOP+:  cpu time 3238.8574: real time 3959.8338
    4ORBIT:  cpu time    0.0000: real time    0.0000
 


 total charge     
 
# of ion       s       p       d       tot
------------------------------------------
    1        1.316   2.402   0.000   3.718
    2        1.316   2.402   0.000   3.718
    3        1.316   2.402   0.000   3.718
    4        1.316   2.402   0.000   3.718
    5        1.316   2.402   0.000   3.718
    6        1.316   2.402   0.000   3.718
    7        1.316   2.402   0.000   3.718
    8        1.316   2.402   0.000   3.718
    9        1.316   2.402   0.000   3.718
   10        1.316   2.402   0.000   3.718
   11        1.316   2.402   0.000   3.718
   12        1.316   2.402   0.000   3.718
   13        1.316   2.402   0.000   3.718
   14        1.316   2.402   0.000   3.718
   15        1.316   2.402   0.000   3.718
   16        1.316   2.402   0.000   3.718
   17        1.316   2.402   0.000   3.718
   18        1.316   2.402   0.000   3.718
   19        1.316   2.402   0.000   3.718
   20        1.316   2.402   0.000   3.718
   21        1.316   2.402   0.000   3.718
   22        1.316   2.402   0.000   3.718
   23        1.316   2.402   0.000   3.718
   24        1.316   2.402   0.000   3.718
   25        1.316   2.402   0.000   3.718
   26        1.316   2.402   0.000   3.718
   27        1.316   2.402   0.000   3.718
   28        1.316   2.402   0.000   3.718
   29        1.316   2.402   0.000   3.718
   30        1.316   2.402   0.000   3.718
   31        1.316   2.402   0.000   3.718
   32        1.316   2.402   0.000   3.718
   33        0.257   6.199   8.916  15.373
   34        0.257   6.199   8.916  15.373
   35        0.257   6.199   8.916  15.373
   36        0.257   6.199   8.916  15.373
   37        0.257   6.199   8.917  15.373
   38        0.257   6.199   8.917  15.373
   39        0.257   6.199   8.917  15.373
   40        0.257   6.199   8.917  15.373
   41        0.257   6.199   8.916  15.373
   42        0.257   6.199   8.916  15.373
   43        0.257   6.199   8.916  15.373
   44        0.257   6.199   8.916  15.373
   45        0.257   6.199   8.917  15.373
   46        0.257   6.199   8.917  15.373
   47        0.257   6.199   8.917  15.373
   48        0.257   6.199   8.917  15.373
   49        0.343   6.341   5.825  12.509
   50        0.343   6.341   5.825  12.509
   51        0.343   6.341   5.825  12.509
   52        0.343   6.341   5.825  12.509
   53        0.343   6.341   5.826  12.510
   54        0.343   6.341   5.826  12.510
   55        0.343   6.341   5.826  12.510
   56        0.343   6.341   5.826  12.510
   57        0.343   6.341   5.825  12.509
   58        0.343   6.341   5.825  12.509
   59        0.343   6.341   5.825  12.509
   60        0.343   6.341   5.825  12.509
   61        0.343   6.341   5.826  12.510
   62        0.343   6.341   5.826  12.510
   63        0.343   6.341   5.826  12.510
   64        0.343   6.341   5.826  12.510
--------------------------------------------------
tot         51.727 277.506 235.867 565.099
 


 magnetization (x)
 
# of ion       s       p       d       tot
------------------------------------------
    1       -0.002  -0.039   0.000  -0.041
    2       -0.002  -0.039   0.000  -0.041
    3       -0.002  -0.039   0.000  -0.041
    4       -0.002  -0.039   0.000  -0.041
    5       -0.002  -0.039   0.000  -0.041
    6       -0.002  -0.039   0.000  -0.041
    7       -0.002  -0.039   0.000  -0.041
    8       -0.002  -0.039   0.000  -0.041
    9        0.002   0.039   0.000   0.041
   10        0.002   0.039   0.000   0.041
   11        0.002   0.039   0.000   0.041
   12        0.002   0.039   0.000   0.041
   13        0.002   0.039   0.000   0.041
   14        0.002   0.039   0.000   0.041
   15        0.002   0.039   0.000   0.041
   16        0.002   0.039   0.000   0.041
   17       -0.002  -0.039   0.000  -0.041
   18       -0.002  -0.039   0.000  -0.041
   19       -0.002  -0.039   0.000  -0.041
   20       -0.002  -0.039   0.000  -0.041
   21       -0.002  -0.039   0.000  -0.041
   22       -0.002  -0.039   0.000  -0.041
   23       -0.002  -0.039   0.000  -0.041
   24       -0.002  -0.039   0.000  -0.041
   25        0.002   0.039   0.000   0.041
   26        0.002   0.039   0.000   0.041
   27        0.002   0.039   0.000   0.041
   28        0.002   0.039   0.000   0.041
   29        0.002   0.039   0.000   0.041
   30        0.002   0.039   0.000   0.041
   31        0.002   0.039   0.000   0.041
   32        0.002   0.039   0.000   0.041
   33       -0.000  -0.001   0.008   0.007
   34       -0.000  -0.001   0.008   0.007
   35       -0.000  -0.001   0.008   0.007
   36       -0.000  -0.001   0.008   0.007
   37        0.000   0.001  -0.009  -0.007
   38        0.000   0.001  -0.009  -0.007
   39        0.000   0.001  -0.009  -0.007
   40        0.000   0.001  -0.009  -0.007
   41       -0.000  -0.001   0.008   0.007
   42       -0.000  -0.001   0.008   0.007
   43       -0.000  -0.001   0.008   0.007
   44       -0.000  -0.001   0.008   0.007
   45        0.000   0.001  -0.009  -0.007
   46        0.000   0.001  -0.009  -0.007
   47        0.000   0.001  -0.009  -0.007
   48        0.000   0.001  -0.009  -0.007
   49        0.020   0.052   3.664   3.736
   50        0.020   0.052   3.664   3.736
   51        0.020   0.052   3.664   3.736
   52        0.020   0.052   3.664   3.736
   53       -0.020  -0.052  -3.664  -3.736
   54       -0.020  -0.052  -3.664  -3.736
   55       -0.020  -0.052  -3.664  -3.736
   56       -0.020  -0.052  -3.664  -3.736
   57        0.020   0.052   3.664   3.736
   58        0.020   0.052   3.664   3.736
   59        0.020   0.052   3.664   3.736
   60        0.020   0.052   3.664   3.736
   61       -0.020  -0.052  -3.664  -3.736
   62       -0.020  -0.052  -3.664  -3.736
   63       -0.020  -0.052  -3.664  -3.736
   64       -0.020  -0.052  -3.664  -3.736
--------------------------------------------------
tot         -0.002   0.002  -0.002  -0.002
 
 BZINTS: Fermi energy:  5.228123;688.000000 electrons
         Band energy:***********;  BLOECHL correction:  0.000000

 total amount of memory used by VASP MPI-rank0   658257. kBytes
=======================================================================

   base      :      30000. kBytes
   nonl-proj :     485900. kBytes
   fftplans  :       4588. kBytes
   grid      :      69719. kBytes
   one-center:       1990. kBytes
   wavefun   :      66060. kBytes
 
  
  
 General timing and accounting informations for this job:
 ========================================================
  
                  Total CPU time used (sec):     3346.534
                            User time (sec):     3323.334
                          System time (sec):       23.200
                         Elapsed time (sec):     4071.903
  
                   Maximum memory used (kb):     1146284.
                   Average memory used (kb):           0.
  
                          Minor page faults:       584048
                          Major page faults:         5087
                 Voluntary context switches:         7846
