 vasp.5.4.4.18Apr17-6-g9f103f2a35 (build Oct 30 2023 17:49:44) complex          
  
 executed on             LinuxIFC date 2024.12.05  02:42:46
 running on  256 total cores
 distrk:  each k-point on  256 cores,    1 groups
 distr:  one band on NCORES_PER_BAND=   1 cores,  256 groups


--------------------------------------------------------------------------------------------------------


 INCAR:
 POTCAR:    PAW_PBE S 06Sep2000                   
 POTCAR:     PAW_PBE Cu_pv 06Sep2000              
 POTCAR:     PAW_PBE Fe_pv 02Aug2007              

 ----------------------------------------------------------------------------- 
|                                                                             |
|           W    W    AA    RRRRR   N    N  II  N    N   GGGG   !!!           |
|           W    W   A  A   R    R  NN   N  II  NN   N  G    G  !!!           |
|           W    W  A    A  R    R  N N  N  II  N N  N  G       !!!           |
|           W WW W  AAAAAA  RRRRR   N  N N  II  N  N N  G  GGG   !            |
|           WW  WW  A    A  R   R   N   NN  II  N   NN  G    G                |
|           W    W  A    A  R    R  N    N  II  N    N   GGGG   !!!           |
|                                                                             |
|      For optimal performance we recommend to set                            |
|        NCORE= 4 - approx SQRT( number of cores)                             |
|      NCORE specifies how many cores store one orbital (NPAR=cpu/NCORE).     |
|      This setting can  greatly improve the performance of VASP for DFT.     |
|      The default,   NCORE=1            might be grossly inefficient         |
|      on modern multi-core architectures or massively parallel machines.     |
|      Do your own testing !!!!                                               |
|      Unfortunately you need to use the default for GW and RPA calculations. |
|      (for HF NCORE is supported but not extensively tested yet)             |
|                                                                             |
 ----------------------------------------------------------------------------- 

 POTCAR:    PAW_PBE S 06Sep2000                   
   SHA256 =  0fc7481fb0695f01bdc6462160264c5c84044ae9ec85a907d398b887a2bc3132 S/
   COPYR  = (c) Copyright 06Sep2000 Georg Kresse                                
   COPYR  = This file is part of the software VASP. Any use, copying, and all ot
   COPYR  = If you do not have a valid VASP license, you may not use, copy or di
   VRHFIN =S : s2p4                                                             
   LEXCH  = PE                                                                  
   EATOM  =   276.8230 eV,   20.3459 Ry                                         
                                                                                
   TITEL  = PAW_PBE S 06Sep2000                                                 
   LULTRA =        F    use ultrasoft PP ?                                      
   IUNSCR =        1    unscreen: 0-lin 1-nonlin 2-no                           
   RPACOR =    1.500    partial core radius                                     
   POMASS =   32.066; ZVAL   =    6.000    mass and valenz                      
   RCORE  =    1.900    outmost cutoff radius                                   
   RWIGS  =    2.200; RWIGS  =    1.164    wigner-seitz radius (au A)           
   ENMAX  =  258.689; ENMIN  =  194.016 eV                                      
   ICORE  =        2    local potential                                         
   LCOR   =        T    correct aug charges                                     
   LPAW   =        T    paw PP                                                  
   EAUG   =  335.092                                                            
   DEXC   =    0.000                                                            
   RMAX   =    1.942    core radius for proj-oper                               
   RAUG   =    1.300    factor for augmentation sphere                          
   RDEP   =    1.954    radius for radial grids                                 
   RDEPT  =    1.744    core radius for aug-charge                              
                                                                                
   Atomic configuration                                                         
    6 entries                                                                   
     n  l   j            E        occ.                                          
     1  0  0.50     -2405.8406   2.0000                                         
     2  0  0.50      -211.7007   2.0000                                         
     2  1  1.50      -156.4958   6.0000                                         
     3  0  0.50       -17.2562   2.0000                                         
     3  1  0.50        -7.0085   4.0000                                         
     3  2  1.50        -6.8029   0.0000                                         
   Description                                                                  
     l       E           TYP  RCUT    TYP  RCUT                                 
     0    -17.2561641     23  1.900                                             
     0    -15.8743224     23  1.900                                             
     1     -7.0085400     23  1.900                                             
     1     -2.7779785     23  1.900                                             
     2     -6.8029130     23  1.900                                             
  local pseudopotential read in
  partial core-charges read in
  partial kinetic energy density read in
  atomic valenz-charges read in
  non local Contribution for L=           0  read in
    real space projection operators read in
  non local Contribution for L=           0  read in
    real space projection operators read in
  non local Contribution for L=           1  read in
    real space projection operators read in
  non local Contribution for L=           1  read in
    real space projection operators read in
    PAW grid and wavefunctions read in
 
   number of l-projection  operators is LMAX  =           4
   number of lm-projection operators is LMMAX =           8
 
 POTCAR:     PAW_PBE Cu_pv 06Sep2000              
   SHA256 =  cb7b504e2ea725fe1f25c85a9ac77d4012ce94cd394135b722c4e25ec297f1cb Cu
   COPYR  = (c) Copyright 06Sep2000 Georg Kresse                                
   COPYR  = This file is part of the software VASP. Any use, copying, and all ot
   COPYR  = If you do not have a valid VASP license, you may not use, copy or di
   VRHFIN =Cu: d10 p1                                                           
   LEXCH  = PE                                                                  
   EATOM  =  4120.1201 eV,  302.8203 Ry                                         
                                                                                
   TITEL  = PAW_PBE Cu_pv 06Sep2000                                             
   LULTRA =        F    use ultrasoft PP ?                                      
   IUNSCR =        1    unscreen: 0-lin 1-nonlin 2-no                           
   RPACOR =    1.500    partial core radius                                     
   POMASS =   63.546; ZVAL   =   17.000    mass and valenz                      
   RCORE  =    2.000    outmost cutoff radius                                   
   RWIGS  =    2.000; RWIGS  =    1.058    wigner-seitz radius (au A)           
   ENMAX  =  368.648; ENMIN  =  276.486 eV                                      
   RCLOC  =    1.304    cutoff for local pot                                    
   LCOR   =        T    correct aug charges                                     
   LPAW   =        T    paw PP                                                  
   EAUG   =  758.233                                                            
   DEXC   =    0.000                                                            
   RMAX   =    2.046    core radius for proj-oper                               
   RAUG   =    1.300    factor for augmentation sphere                          
   RDEP   =    2.025    radius for radial grids                                 
   RDEPT  =    1.558    core radius for aug-charge                              
                                                                                
   Atomic configuration                                                         
    8 entries                                                                   
     n  l   j            E        occ.                                          
     1  0  0.50     -8850.2467   2.0000                                         
     2  0  0.50     -1062.3498   2.0000                                         
     2  1  1.50      -916.8226   6.0000                                         
     3  0  0.50      -114.6929   2.0000                                         
     3  1  1.50       -72.1325   6.0000                                         
     3  2  2.50        -5.0394  10.0000                                         
     4  0  0.50        -4.6097   1.0000                                         
     4  3  2.50        -1.3606   0.0000                                         
   Description                                                                  
     l       E           TYP  RCUT    TYP  RCUT                                 
     1    -72.1324777     23  1.700                                             
     1     -1.3605826     23  1.700                                             
     2     -5.0393776     23  2.000                                             
     2     -6.3999602     23  2.000                                             
     0     -4.6097062     23  1.800                                             
     0     14.1620818     23  1.800                                             
  local pseudopotential read in
  partial core-charges read in
  partial kinetic energy density read in
  atomic valenz-charges read in
  non local Contribution for L=           1  read in
    real space projection operators read in
  non local Contribution for L=           1  read in
    real space projection operators read in
  non local Contribution for L=           2  read in
    real space projection operators read in
  non local Contribution for L=           2  read in
    real space projection operators read in
  non local Contribution for L=           0  read in
    real space projection operators read in
  non local Contribution for L=           0  read in
    real space projection operators read in
    PAW grid and wavefunctions read in
 
   number of l-projection  operators is LMAX  =           6
   number of lm-projection operators is LMMAX =          18
 
 POTCAR:     PAW_PBE Fe_pv 02Aug2007              
   SHA256 =  5d22e414b1f82158bf2c7ecb8b97b28fd0923e48cadc1c3bf74d524558f5dd32 Fe
   COPYR  = (c) Copyright 02Aug2007 Georg Kresse                                
   COPYR  = This file is part of the software VASP. Any use, copying, and all ot
   COPYR  = If you do not have a valid VASP license, you may not use, copy or di
   VRHFIN =Fe:  3pd7s1                                                          
   LEXCH  = PE                                                                  
   EATOM  =  2457.4239 eV,  180.6156 Ry                                         
                                                                                
   TITEL  = PAW_PBE Fe_pv 02Aug2007                                             
   LULTRA =        F    use ultrasoft PP ?                                      
   IUNSCR =        1    unscreen: 0-lin 1-nonlin 2-no                           
   RPACOR =    1.750    partial core radius                                     
   POMASS =   55.847; ZVAL   =   14.000    mass and valenz                      
   RCORE  =    2.200    outmost cutoff radius                                   
   RWIGS  =    2.200; RWIGS  =    1.164    wigner-seitz radius (au A)           
   ENMAX  =  293.238; ENMIN  =  219.928 eV                                      
   ICORE  =        3    local potential                                         
   LCOR   =        T    correct aug charges                                     
   LPAW   =        T    paw PP                                                  
   EAUG   =  578.342                                                            
   DEXC   =    0.000                                                            
   RMAX   =    2.249    core radius for proj-oper                               
   RAUG   =    1.300    factor for augmentation sphere                          
   RDEP   =    2.296    radius for radial grids                                 
   RDEPT  =    1.766    core radius for aug-charge                              
                                                                                
   Atomic configuration                                                         
    8 entries                                                                   
     n  l   j            E        occ.                                          
     1  0  0.50     -6993.8440   2.0000                                         
     2  0  0.50      -814.6047   2.0000                                         
     2  1  1.50      -693.3689   6.0000                                         
     3  0  0.50       -89.4732   2.0000                                         
     3  1  1.50       -55.6373   6.0000                                         
     3  2  2.50        -3.8151   7.0000                                         
     4  0  0.50        -4.2551   1.0000                                         
     4  3  2.50        -1.3606   0.0000                                         
   Description                                                                  
     l       E           TYP  RCUT    TYP  RCUT                                 
     1    -55.6372668     23  2.000                                             
     1     -5.4423304     23  2.000                                             
     2     -3.8151096     23  2.200                                             
     2     -5.1756922     23  2.200                                             
     0     -4.2550951     23  2.200                                             
     0     27.2116520     23  2.200                                             
     3     -1.3605826     23  2.200                                             
  local pseudopotential read in
  partial core-charges read in
  partial kinetic energy density read in
  atomic valenz-charges read in
  non local Contribution for L=           1  read in
    real space projection operators read in
  non local Contribution for L=           1  read in
    real space projection operators read in
  non local Contribution for L=           2  read in
    real space projection operators read in
  non local Contribution for L=           2  read in
    real space projection operators read in
  non local Contribution for L=           0  read in
    real space projection operators read in
  non local Contribution for L=           0  read in
    real space projection operators read in
    PAW grid and wavefunctions read in
 
   number of l-projection  operators is LMAX  =           6
   number of lm-projection operators is LMMAX =          18
 

 ----------------------------------------------------------------------------- 
|                                                                             |
|  ADVICE TO THIS USER RUNNING 'VASP/VAMP'   (HEAR YOUR MASTER'S VOICE ...):  |
|                                                                             |
|      You enforced a specific xc-type in the INCAR file,                     |
|      a different type was found on the POTCAR file                          |
|          I HOPE YOU KNOW, WHAT YOU ARE  DOING                               |
|                                                                             |
 ----------------------------------------------------------------------------- 

  PAW_PBE S 06Sep2000                   :
 energy of atom  1       EATOM= -276.8230
 kinetic energy error for atom=    0.0007 (will be added to EATOM!!)
   PAW_PBE Cu_pv 06Sep2000              :
 energy of atom  2       EATOM=-4120.1201
 kinetic energy error for atom=    0.0094 (will be added to EATOM!!)
   PAW_PBE Fe_pv 02Aug2007              :
 energy of atom  3       EATOM=-2457.4239
 kinetic energy error for atom=    0.0025 (will be added to EATOM!!)
 
 
 POSCAR: Fe4 Cu4 S8                              
  positions in direct lattice
  velocities in cartesian coordinates
 exchange correlation table for  LEXCH =       14
   RHO(1)=    0.500       N(1)  =     2000
   RHO(2)=  100.500       N(2)  =     4000
 


--------------------------------------------------------------------------------------------------------


 ion  position               nearest neighbor table
   1  0.253  0.241  0.126-  11 2.26  16 2.27  10 2.27  13 2.29
   2  0.747  0.741  0.124-  10 2.26  13 2.27  11 2.27  16 2.29
   3  0.250  0.742  0.875-  12 2.27  11 2.27  14 2.27  13 2.27
   4  0.750  0.246  0.875-  12 2.26  11 2.26  14 2.29  13 2.29
   5  0.247  0.241  0.624-  12 2.26  15 2.27   9 2.27  14 2.29
   6  0.753  0.741  0.626-   9 2.26  14 2.27  12 2.27  15 2.29
   7  0.750  0.242  0.375-   9 2.27  10 2.27  15 2.27  16 2.27
   8  0.250  0.746  0.375-   9 2.26  10 2.26  15 2.29  16 2.29
   9  0.997  0.008  0.500-   6 2.26   8 2.26   7 2.27   5 2.27
  10  0.503  0.008  0.250-   2 2.26   8 2.26   7 2.27   1 2.27
  11  0.497  0.508  0.000-   1 2.26   4 2.26   3 2.27   2 2.27
  12  0.003  0.508  0.750-   5 2.26   4 2.26   3 2.27   6 2.27
  13  0.998  0.007  0.000-   2 2.27   3 2.27   4 2.29   1 2.29
  14  0.502  0.007  0.750-   6 2.27   3 2.27   4 2.29   5 2.29
  15  0.498  0.507  0.500-   5 2.27   7 2.27   8 2.29   6 2.29
  16  0.002  0.507  0.250-   1 2.27   7 2.27   8 2.29   2 2.29
 
  LATTYP: Found a simple monoclinic cell.
 ALAT       =    11.9733461176
 B/A-ratio  =     0.4399744669
 C/A-ratio  =     1.8209958308
 COS(beta)  =    -0.9779641806
  
  Lattice vectors:
  
 A1 = (  -5.6136390000,   0.0000000000, -10.5758250000)
 A2 = (   0.0000000000,  -5.2679665755,   0.0000000000)
 A3 = (   5.9764970000,   0.0000000000,  20.9683170000)


Analysis of symmetry for initial positions (statically):
=====================================================================
 Subroutine PRICEL returns following result:
 
  LATTYP: Found a base centered monoclinic cell.
 ALAT       =    11.3189539597
 B/A-ratio  =     0.4654110790
 C/A-ratio  =     0.9187089879
 COS(beta)  =    -0.8035677962
  
  Lattice vectors:
  
 A1 = (  -2.4439615000,  -2.6339832878,   5.1045795000)
 A2 = (  -2.4439615000,   2.6339832878,   5.1045795000)
 A3 = (  -0.3628580000,   0.0000000000, -10.3924920000)
 
   2 primitive cells build up your supercell.
 

 Routine SETGRP: Setting up the symmetry group for a 
 simple monoclinic supercell.


 Subroutine GETGRP returns: Found  2 space group operations
 (whereof  1 operations were pure point group operations)
 out of a pool of  4 trial point group operations.


The static configuration has the point symmetry C_1 .
 The point group associated with its full space group is C_2 .


Analysis of symmetry for dynamics (positions and initial velocities):
=====================================================================
 Subroutine PRICEL returns following result:
 
  LATTYP: Found a base centered monoclinic cell.
 ALAT       =    11.3189539597
 B/A-ratio  =     0.4654110790
 C/A-ratio  =     0.9187089879
 COS(beta)  =    -0.8035677962
  
  Lattice vectors:
  
 A1 = (  -2.4439615000,  -2.6339832878,   5.1045795000)
 A2 = (  -2.4439615000,   2.6339832878,   5.1045795000)
 A3 = (  -0.3628580000,   0.0000000000, -10.3924920000)
 
   2 primitive cells build up your supercell.
 

 Routine SETGRP: Setting up the symmetry group for a 
 simple monoclinic supercell.


 Subroutine GETGRP returns: Found  2 space group operations
 (whereof  1 operations were pure point group operations)
 out of a pool of  4 trial point group operations.


The dynamic configuration has the point symmetry C_1 .
 The point group associated with its full space group is C_2 .


Analysis of structural, dynamic, and magnetic symmetry:
=====================================================================
 Subroutine PRICEL returns following result:
 
  LATTYP: Found a base centered monoclinic cell.
 ALAT       =    11.3189539597
 B/A-ratio  =     0.4654110790
 C/A-ratio  =     0.9187089879
 COS(beta)  =    -0.8035677962
  
  Lattice vectors:
  
 A1 = (  -2.4439615000,  -2.6339832878,   5.1045795000)
 A2 = (  -2.4439615000,   2.6339832878,   5.1045795000)
 A3 = (  -0.3628580000,   0.0000000000, -10.3924920000)
 
   2 primitive cells build up your supercell.
 

 Routine SETGRP: Setting up the symmetry group for a 
 simple monoclinic supercell.


 Subroutine GETGRP returns: Found  2 space group operations
 (whereof  1 operations were pure point group operations)
 out of a pool of  4 trial point group operations.


The (compounded) configuration has the point symmetry C_1 .
 The point group associated with its full space group is C_2 .


 Subroutine INISYM returns: Found  2 space group operations
 (whereof  1 operations are pure point group operations),
 and found     2 'primitive' translations

 
 
 KPOINTS: Automatic mesh                          

Automatic generation of k-mesh.
Space group operators:
 irot       det(A)        alpha          n_x          n_y          n_z        tau_x        tau_y        tau_z
    1     1.000000     0.000000     1.000000     0.000000     0.000000     0.000000     0.000000     0.000000
    2     1.000000   180.000000     0.000000     1.000000     0.000000    -0.500000     0.000000    -0.250000
 
 Subroutine IBZKPT returns following result:
 ===========================================
 
 Found     60 irreducible k-points:
 
 Following reciprocal coordinates:
            Coordinates               Weight
  0.000000  0.000000  0.000000      1.000000
  0.166667  0.000000 -0.000000      2.000000
  0.333333  0.000000 -0.000000      2.000000
  0.500000  0.000000 -0.000000      1.000000
  0.000000  0.166667  0.000000      1.000000
  0.166667  0.166667 -0.000000      2.000000
  0.333333  0.166667 -0.000000      2.000000
  0.500000  0.166667 -0.000000      1.000000
  0.000000  0.333333  0.000000      1.000000
  0.166667  0.333333 -0.000000      2.000000
  0.333333  0.333333 -0.000000      2.000000
  0.500000  0.333333 -0.000000      1.000000
  0.000000  0.500000  0.000000      1.000000
  0.166667  0.500000 -0.000000      2.000000
  0.333333  0.500000 -0.000000      2.000000
  0.500000  0.500000 -0.000000      1.000000
  0.000000 -0.333333  0.000000      1.000000
  0.166667 -0.333333 -0.000000      2.000000
  0.333333 -0.333333 -0.000000      2.000000
  0.500000 -0.333333 -0.000000      1.000000
  0.000000 -0.166667  0.000000      1.000000
  0.166667 -0.166667 -0.000000      2.000000
  0.333333 -0.166667 -0.000000      2.000000
  0.500000 -0.166667 -0.000000      1.000000
 -0.000000  0.000000  0.333333      2.000000
  0.166667  0.000000  0.333333      2.000000
  0.333333  0.000000  0.333333      2.000000
  0.500000  0.000000  0.333333      2.000000
 -0.333333  0.000000  0.333333      2.000000
 -0.166667  0.000000  0.333333      2.000000
 -0.000000  0.166667  0.333333      2.000000
  0.166667  0.166667  0.333333      2.000000
  0.333333  0.166667  0.333333      2.000000
  0.500000  0.166667  0.333333      2.000000
 -0.333333  0.166667  0.333333      2.000000
 -0.166667  0.166667  0.333333      2.000000
 -0.000000  0.333333  0.333333      2.000000
  0.166667  0.333333  0.333333      2.000000
  0.333333  0.333333  0.333333      2.000000
  0.500000  0.333333  0.333333      2.000000
 -0.333333  0.333333  0.333333      2.000000
 -0.166667  0.333333  0.333333      2.000000
 -0.000000  0.500000  0.333333      2.000000
  0.166667  0.500000  0.333333      2.000000
  0.333333  0.500000  0.333333      2.000000
  0.500000  0.500000  0.333333      2.000000
 -0.333333  0.500000  0.333333      2.000000
 -0.166667  0.500000  0.333333      2.000000
 -0.000000 -0.333333  0.333333      2.000000
  0.166667 -0.333333  0.333333      2.000000
  0.333333 -0.333333  0.333333      2.000000
  0.500000 -0.333333  0.333333      2.000000
 -0.333333 -0.333333  0.333333      2.000000
 -0.166667 -0.333333  0.333333      2.000000
 -0.000000 -0.166667  0.333333      2.000000
  0.166667 -0.166667  0.333333      2.000000
  0.333333 -0.166667  0.333333      2.000000
  0.500000 -0.166667  0.333333      2.000000
 -0.333333 -0.166667  0.333333      2.000000
 -0.166667 -0.166667  0.333333      2.000000
 
 Following cartesian coordinates:
            Coordinates               Weight
  0.000000  0.000000  0.000000      1.000000
  0.031780  0.000000 -0.001110      2.000000
  0.063560  0.000000 -0.002219      2.000000
  0.095340  0.000000 -0.003329      1.000000
  0.000000  0.031638  0.000000      1.000000
  0.031780  0.031638 -0.001110      2.000000
  0.063560  0.031638 -0.002219      2.000000
  0.095340  0.031638 -0.003329      1.000000
  0.000000  0.063276  0.000000      1.000000
  0.031780  0.063276 -0.001110      2.000000
  0.063560  0.063276 -0.002219      2.000000
  0.095340  0.063276 -0.003329      1.000000
  0.000000  0.094913  0.000000      1.000000
  0.031780  0.094913 -0.001110      2.000000
  0.063560  0.094913 -0.002219      2.000000
  0.095340  0.094913 -0.003329      1.000000
  0.000000 -0.063276  0.000000      1.000000
  0.031780 -0.063276 -0.001110      2.000000
  0.063560 -0.063276 -0.002219      2.000000
  0.095340 -0.063276 -0.003329      1.000000
  0.000000 -0.031638  0.000000      1.000000
  0.031780 -0.031638 -0.001110      2.000000
  0.063560 -0.031638 -0.002219      2.000000
  0.095340 -0.031638 -0.003329      1.000000
 -0.001121  0.000000  0.032114      2.000000
  0.030659  0.000000  0.031004      2.000000
  0.062439  0.000000  0.029894      2.000000
  0.094219  0.000000  0.028785      2.000000
 -0.064681  0.000000  0.034333      2.000000
 -0.032901  0.000000  0.033223      2.000000
 -0.001121  0.031638  0.032114      2.000000
  0.030659  0.031638  0.031004      2.000000
  0.062439  0.031638  0.029894      2.000000
  0.094219  0.031638  0.028785      2.000000
 -0.064681  0.031638  0.034333      2.000000
 -0.032901  0.031638  0.033223      2.000000
 -0.001121  0.063276  0.032114      2.000000
  0.030659  0.063276  0.031004      2.000000
  0.062439  0.063276  0.029894      2.000000
  0.094219  0.063276  0.028785      2.000000
 -0.064681  0.063276  0.034333      2.000000
 -0.032901  0.063276  0.033223      2.000000
 -0.001121  0.094913  0.032114      2.000000
  0.030659  0.094913  0.031004      2.000000
  0.062439  0.094913  0.029894      2.000000
  0.094219  0.094913  0.028785      2.000000
 -0.064681  0.094913  0.034333      2.000000
 -0.032901  0.094913  0.033223      2.000000
 -0.001121 -0.063276  0.032114      2.000000
  0.030659 -0.063276  0.031004      2.000000
  0.062439 -0.063276  0.029894      2.000000
  0.094219 -0.063276  0.028785      2.000000
 -0.064681 -0.063276  0.034333      2.000000
 -0.032901 -0.063276  0.033223      2.000000
 -0.001121 -0.031638  0.032114      2.000000
  0.030659 -0.031638  0.031004      2.000000
  0.062439 -0.031638  0.029894      2.000000
  0.094219 -0.031638  0.028785      2.000000
 -0.064681 -0.031638  0.034333      2.000000
 -0.032901 -0.031638  0.033223      2.000000
 
 TETIRR: Found    648 inequivalent tetrahedra from      648
 
 Subroutine IBZKPT_HF returns following result:
 ==============================================
 
 Found    108 k-points in 1st BZ
 the following    108 k-points will be used (e.g. in the exchange kernel)
 Following reciprocal coordinates:   # in IRBZ
  0.000000  0.000000  0.000000    0.00925926   1 t-inv F
  0.166667  0.000000 -0.000000    0.00925926   2 t-inv F
  0.333333  0.000000 -0.000000    0.00925926   3 t-inv F
  0.500000  0.000000 -0.000000    0.00925926   4 t-inv F
  0.000000  0.166667  0.000000    0.00925926   5 t-inv F
  0.166667  0.166667 -0.000000    0.00925926   6 t-inv F
  0.333333  0.166667 -0.000000    0.00925926   7 t-inv F
  0.500000  0.166667 -0.000000    0.00925926   8 t-inv F
  0.000000  0.333333  0.000000    0.00925926   9 t-inv F
  0.166667  0.333333 -0.000000    0.00925926  10 t-inv F
  0.333333  0.333333 -0.000000    0.00925926  11 t-inv F
  0.500000  0.333333 -0.000000    0.00925926  12 t-inv F
  0.000000  0.500000  0.000000    0.00925926  13 t-inv F
  0.166667  0.500000 -0.000000    0.00925926  14 t-inv F
  0.333333  0.500000 -0.000000    0.00925926  15 t-inv F
  0.500000  0.500000 -0.000000    0.00925926  16 t-inv F
  0.000000 -0.333333  0.000000    0.00925926  17 t-inv F
  0.166667 -0.333333 -0.000000    0.00925926  18 t-inv F
  0.333333 -0.333333 -0.000000    0.00925926  19 t-inv F
  0.500000 -0.333333 -0.000000    0.00925926  20 t-inv F
  0.000000 -0.166667  0.000000    0.00925926  21 t-inv F
  0.166667 -0.166667 -0.000000    0.00925926  22 t-inv F
  0.333333 -0.166667 -0.000000    0.00925926  23 t-inv F
  0.500000 -0.166667 -0.000000    0.00925926  24 t-inv F
 -0.000000  0.000000  0.333333    0.00925926  25 t-inv F
  0.166667  0.000000  0.333333    0.00925926  26 t-inv F
  0.333333  0.000000  0.333333    0.00925926  27 t-inv F
  0.500000  0.000000  0.333333    0.00925926  28 t-inv F
 -0.333333  0.000000  0.333333    0.00925926  29 t-inv F
 -0.166667  0.000000  0.333333    0.00925926  30 t-inv F
 -0.000000  0.166667  0.333333    0.00925926  31 t-inv F
  0.166667  0.166667  0.333333    0.00925926  32 t-inv F
  0.333333  0.166667  0.333333    0.00925926  33 t-inv F
  0.500000  0.166667  0.333333    0.00925926  34 t-inv F
 -0.333333  0.166667  0.333333    0.00925926  35 t-inv F
 -0.166667  0.166667  0.333333    0.00925926  36 t-inv F
 -0.000000  0.333333  0.333333    0.00925926  37 t-inv F
  0.166667  0.333333  0.333333    0.00925926  38 t-inv F
  0.333333  0.333333  0.333333    0.00925926  39 t-inv F
  0.500000  0.333333  0.333333    0.00925926  40 t-inv F
 -0.333333  0.333333  0.333333    0.00925926  41 t-inv F
 -0.166667  0.333333  0.333333    0.00925926  42 t-inv F
 -0.000000  0.500000  0.333333    0.00925926  43 t-inv F
  0.166667  0.500000  0.333333    0.00925926  44 t-inv F
  0.333333  0.500000  0.333333    0.00925926  45 t-inv F
  0.500000  0.500000  0.333333    0.00925926  46 t-inv F
 -0.333333  0.500000  0.333333    0.00925926  47 t-inv F
 -0.166667  0.500000  0.333333    0.00925926  48 t-inv F
 -0.000000 -0.333333  0.333333    0.00925926  49 t-inv F
  0.166667 -0.333333  0.333333    0.00925926  50 t-inv F
  0.333333 -0.333333  0.333333    0.00925926  51 t-inv F
  0.500000 -0.333333  0.333333    0.00925926  52 t-inv F
 -0.333333 -0.333333  0.333333    0.00925926  53 t-inv F
 -0.166667 -0.333333  0.333333    0.00925926  54 t-inv F
 -0.000000 -0.166667  0.333333    0.00925926  55 t-inv F
  0.166667 -0.166667  0.333333    0.00925926  56 t-inv F
  0.333333 -0.166667  0.333333    0.00925926  57 t-inv F
  0.500000 -0.166667  0.333333    0.00925926  58 t-inv F
 -0.333333 -0.166667  0.333333    0.00925926  59 t-inv F
 -0.166667 -0.166667  0.333333    0.00925926  60 t-inv F
 -0.166667  0.000000  0.000000    0.00925926   2 t-inv F
 -0.333333  0.000000  0.000000    0.00925926   3 t-inv F
 -0.166667  0.166667  0.000000    0.00925926   6 t-inv F
 -0.333333  0.166667  0.000000    0.00925926   7 t-inv F
 -0.166667  0.333333  0.000000    0.00925926  10 t-inv F
 -0.333333  0.333333  0.000000    0.00925926  11 t-inv F
 -0.166667  0.500000  0.000000    0.00925926  14 t-inv F
 -0.333333  0.500000  0.000000    0.00925926  15 t-inv F
 -0.166667 -0.333333  0.000000    0.00925926  18 t-inv F
 -0.333333 -0.333333  0.000000    0.00925926  19 t-inv F
 -0.166667 -0.166667  0.000000    0.00925926  22 t-inv F
 -0.333333 -0.166667  0.000000    0.00925926  23 t-inv F
  0.000000  0.000000 -0.333333    0.00925926  25 t-inv F
 -0.166667  0.000000 -0.333333    0.00925926  26 t-inv F
 -0.333333  0.000000 -0.333333    0.00925926  27 t-inv F
 -0.500000  0.000000 -0.333333    0.00925926  28 t-inv F
  0.333333  0.000000 -0.333333    0.00925926  29 t-inv F
  0.166667  0.000000 -0.333333    0.00925926  30 t-inv F
  0.000000  0.166667 -0.333333    0.00925926  31 t-inv F
 -0.166667  0.166667 -0.333333    0.00925926  32 t-inv F
 -0.333333  0.166667 -0.333333    0.00925926  33 t-inv F
 -0.500000  0.166667 -0.333333    0.00925926  34 t-inv F
  0.333333  0.166667 -0.333333    0.00925926  35 t-inv F
  0.166667  0.166667 -0.333333    0.00925926  36 t-inv F
  0.000000  0.333333 -0.333333    0.00925926  37 t-inv F
 -0.166667  0.333333 -0.333333    0.00925926  38 t-inv F
 -0.333333  0.333333 -0.333333    0.00925926  39 t-inv F
 -0.500000  0.333333 -0.333333    0.00925926  40 t-inv F
  0.333333  0.333333 -0.333333    0.00925926  41 t-inv F
  0.166667  0.333333 -0.333333    0.00925926  42 t-inv F
  0.000000  0.500000 -0.333333    0.00925926  43 t-inv F
 -0.166667  0.500000 -0.333333    0.00925926  44 t-inv F
 -0.333333  0.500000 -0.333333    0.00925926  45 t-inv F
 -0.500000  0.500000 -0.333333    0.00925926  46 t-inv F
  0.333333  0.500000 -0.333333    0.00925926  47 t-inv F
  0.166667  0.500000 -0.333333    0.00925926  48 t-inv F
  0.000000 -0.333333 -0.333333    0.00925926  49 t-inv F
 -0.166667 -0.333333 -0.333333    0.00925926  50 t-inv F
 -0.333333 -0.333333 -0.333333    0.00925926  51 t-inv F
 -0.500000 -0.333333 -0.333333    0.00925926  52 t-inv F
  0.333333 -0.333333 -0.333333    0.00925926  53 t-inv F
  0.166667 -0.333333 -0.333333    0.00925926  54 t-inv F
  0.000000 -0.166667 -0.333333    0.00925926  55 t-inv F
 -0.166667 -0.166667 -0.333333    0.00925926  56 t-inv F
 -0.333333 -0.166667 -0.333333    0.00925926  57 t-inv F
 -0.500000 -0.166667 -0.333333    0.00925926  58 t-inv F
  0.333333 -0.166667 -0.333333    0.00925926  59 t-inv F
  0.166667 -0.166667 -0.333333    0.00925926  60 t-inv F


--------------------------------------------------------------------------------------------------------




 Dimension of arrays:
   k-points           NKPTS =     60   k-points in BZ     NKDIM =     60   number of bands    NBANDS=    256
   number of dos      NEDOS =    301   number of ions     NIONS =     16
   non local maximal  LDIM  =      6   non local SUM 2l+1 LMDIM =     18
   total plane-waves  NPLWV = 207360
   max r-space proj   IRMAX =      1   max aug-charges    IRDMAX=  22950
   dimension x,y,z NGX =    48 NGY =   48 NGZ =   90
   dimension x,y,z NGXF=    96 NGYF=   96 NGZF=  180
   support grid    NGXF=    96 NGYF=   96 NGZF=  180
   ions per type =               8   4   4
   NGX,Y,Z   is equivalent  to a cutoff of  15.19, 15.15, 14.39 a.u.
   NGXF,Y,Z  is equivalent  to a cutoff of  30.38, 30.30, 28.78 a.u.

 SYSTEM =  CuFeS2                                  
 POSCAR =  Fe4 Cu4 S8                              

 Startparameter for this run:
   NWRITE =      2    write-flag & timer
   PREC   = accura    normal or accurate (medium, high low for compatibility)
   ISTART =      1    job   : 0-new  1-cont  2-samecut
   ICHARG =      1    charge: 1-file 2-atom 10-const
   ISPIN  =      1    spin polarized calculation?
   LNONCOLLINEAR =      T non collinear calculations
   LSORBIT =      T    spin-orbit coupling
   INIWAV =      1    electr: 0-lowe 1-rand  2-diag
   LASPH  =      T    aspherical Exc in radial PAW
   METAGGA=      F    non-selfconsistent MetaGGA calc.

 Electronic Relaxation 1
   ENCUT  =  700.0 eV  51.45 Ry    7.17 a.u.  11.33 11.36 22.43*2*pi/ulx,y,z
   ENINI  =  700.0     initial cutoff
   ENAUG  =  758.2 eV  augmentation charge cutoff
   NELM   =    200;   NELMIN=  2; NELMDL=  0     # of ELM steps 
   EDIFF  = 0.1E-07   stopping-criterion for ELM
   LREAL  =      F    real-space projection
   NLSPLINE    = F    spline interpolate recip. space projectors
   LCOMPAT=      F    compatible to vasp.4.4
   GGA_COMPAT  = T    GGA compatible to vasp.4.4-vasp.4.6
   LMAXPAW     = -100 max onsite density
   LMAXMIX     =    4 max onsite mixed and CHGCAR
   VOSKOWN=      0    Vosko Wilk Nusair interpolation
   ROPT   =    0.00000   0.00000   0.00000
 Ionic relaxation
   EDIFFG = -.1E-04   stopping-criterion for IOM
   NSW    =      0    number of steps for IOM
   NBLOCK =      1;   KBLOCK =      1    inner block; outer block 
   IBRION =     -1    ionic relax: 0-MD 1-quasi-New 2-CG
   NFREE  =      0    steps in history (QN), initial steepest desc. (CG)
   ISIF   =      2    stress and relaxation
   IWAVPR =     10    prediction:  0-non 1-charg 2-wave 3-comb
   ISYM   =      2    0-nonsym 1-usesym 2-fastsym
   LCORR  =      T    Harris-Foulkes like correction to forces

   POTIM  = 0.5000    time-step for ionic-motion
   TEIN   =    0.0    initial temperature
   TEBEG  =    0.0;   TEEND  =   0.0 temperature during run
   SMASS  =  -3.00    Nose mass-parameter (am)
   estimated Nose-frequenzy (Omega)   =  0.10E-29 period in steps =****** mass=  -0.631E-27a.u.
   SCALEE = 1.0000    scale energy and forces
   NPACO  =    256;   APACO  = 16.0  distance and # of slots for P.C.
   PSTRESS=    0.0 pullay stress

  Mass of Ions in am
   POMASS =  32.07 63.55 55.85
  Ionic Valenz
   ZVAL   =   6.00 17.00 14.00
  Atomic Wigner-Seitz radii
   RWIGS  =  -1.00 -1.00 -1.00
  virtual crystal weights 
   VCA    =   1.00  1.00  1.00
   NELECT =     172.0000    total number of electrons
   NUPDOWN=      -1.0000    fix difference up-down

 DOS related values:
   EMIN   =  10.00;   EMAX   =-10.00  energy-range for DOS
   EFERMI =   0.00
   ISMEAR =    -5;   SIGMA  =   0.03  broadening in eV -4-tet -1-fermi 0-gaus

 Electronic relaxation 2 (details)
   IALGO  =     38    algorithm
   LDIAG  =      T    sub-space diagonalisation (order eigenvalues)
   LSUBROT=      F    optimize rotation matrix (better conditioning)
   TURBO    =      0    0=normal 1=particle mesh
   IRESTART =      0    0=no restart 2=restart with 2 vectors
   NREBOOT  =      0    no. of reboots
   NMIN     =      0    reboot dimension
   EREF     =   0.00    reference energy to select bands
   IMIX   =      4    mixing-type and parameters
     AMIX     =   0.40;   BMIX     =  1.00
     AMIX_MAG =   1.60;   BMIX_MAG =  1.00
     AMIN     =   0.10
     WC   =   100.;   INIMIX=   1;  MIXPRE=   1;  MAXMIX= -45

 Intra band minimization:
   WEIMIN = 0.0000     energy-eigenvalue tresh-hold
   EBREAK =  0.98E-11  absolut break condition
   DEPER  =   0.30     relativ break condition  

   TIME   =   0.40     timestep for ELM

  volume/ion in A,a.u.               =      17.94       121.10
  Fermi-wavevector in a.u.,A,eV,Ry     =   1.380062  2.607940 25.913275  1.904572
  Thomas-Fermi vector in A             =   2.504974
 
 Write flags
   LWAVE        =      T    write WAVECAR
   LDOWNSAMPLE  =      F    k-point downsampling of WAVECAR
   LCHARG       =      T    write CHGCAR
   LVTOT        =      F    write LOCPOT, total local potential
   LVHAR        =      F    write LOCPOT, Hartree potential only
   LELF         =      F    write electronic localiz. function (ELF)
   LORBIT       =     11    0 simple, 1 ext, 2 COOP (PROOUT), +10 PAW based schemes


 Dipole corrections
   LMONO  =      F    monopole corrections only (constant potential shift)
   LDIPOL =      F    correct potential (dipole corrections)
   IDIPOL =      0    1-x, 2-y, 3-z, 4-all directions 
   EPSILON=  1.0000000 bulk dielectric constant

 LDA+U is selected, type is set to LDAUTYPE =  2
   angular momentum for each species LDAUL =     2    2    2
   U (eV)           for each species LDAUU =   0.0  0.1  4.7
   J (eV)           for each species LDAUJ =   0.0  0.0  0.0
 Exchange correlation treatment:
   GGA     =    PS    GGA type
   LEXCH   =    14    internal setting for exchange type
   VOSKOWN=      0    Vosko Wilk Nusair interpolation
   LHFCALC =     F    Hartree Fock is set to
   LHFONE  =     F    Hartree Fock one center treatment
   AEXX    =    0.0000 exact exchange contribution

 Linear response parameters
   LEPSILON=     F    determine dielectric tensor
   LRPA    =     F    only Hartree local field effects (RPA)
   LNABLA  =     F    use nabla operator in PAW spheres
   LVEL    =     F    velocity operator in full k-point grid
   LINTERFAST=   F  fast interpolation
   KINTER  =     0    interpolate to denser k-point grid
   CSHIFT  =0.1000    complex shift for real part using Kramers Kronig
   OMEGAMAX=  -1.0    maximum frequency
   DEG_THRESHOLD= 0.2000000E-02 threshold for treating states as degnerate
   RTIME   =   -0.100 relaxation time in fs
  (WPLASMAI=    0.000 imaginary part of plasma frequency in eV, 0.658/RTIME)
   DFIELD  = 0.0000000 0.0000000 0.0000000 field for delta impulse in time
 
 Orbital magnetization related:
   ORBITALMAG=     F  switch on orbital magnetization
   LCHIMAG   =     F  perturbation theory with respect to B field
   DQ        =  0.001000  dq finite difference perturbation B field
   LLRAUG    =     F  two centre corrections for induced B field

 PEAD related settings:
   LPEAD      =     T    switch on PEAD
   IPEAD      =     4    finite difference order for dpsi/dk
   LCALCPOL   =     T    calculate macroscopic polarization
   LCALCEPS   =     F    calculate dielectric tensor
   EFIELD_PEAD=    0.0000    0.0000    0.0000
   SKIP_EDOTP =     F
   LRPA       =     F
   SKIP_SCF   =     F


--------------------------------------------------------------------------------------------------------


 Static calculation
 charge density and potential will be updated during run
 non collinear spin polarized calculation
 Variant of blocked Davidson
 Davidson routine will perform the subspace rotation
 perform sub-space diagonalisation
    after iterative eigenvector-optimisation
 modified Broyden-mixing scheme, WC =      100.0
 initial mixing is a Kerker type mixing with AMIX =  0.4000 and BMIX =      1.0000
 Hartree-type preconditioning will be used
 using additional bands          170
 reciprocal scheme for non local part
 use partial core corrections
 calculate Harris-corrections to forces 
   (improved forces if not selfconsistent)
 use gradient corrections 
 use of overlap-Matrix (Vanderbilt PP)
 Fermi weights with tetrahedron method with Bloechl corrections


--------------------------------------------------------------------------------------------------------


  energy-cutoff  :      700.00
  volume of cell :      287.12
      direct lattice vectors                 reciprocal lattice vectors
     5.250781000  0.000000000  0.183333000     0.190680314  0.000000000 -0.006657679
     0.000000000  5.267966576  0.000000000     0.000000000  0.189826565  0.000000000
     0.362858000  0.000000000 10.392492000    -0.003363774  0.000000000  0.096340759

  length of vectors
     5.253980596  5.267966576 10.398824736     0.190796507  0.189826565  0.096399465


 
 old parameters found on file WAVECAR:
  energy-cutoff  :      700.00
  volume of cell :      286.62
      direct lattice vectors                 reciprocal lattice vectors
     5.250781000  0.000000000  0.183333000     0.190680314  0.000000000 -0.006657679
     0.000000000  5.258786000  0.000000000     0.000000000  0.190157957  0.000000000
     0.362858000  0.000000000 10.392492000    -0.003363774  0.000000000  0.096340759

  length of vectors

 
 k-points in units of 2pi/SCALE and weight: Automatic mesh                          
   0.00000000  0.00000000  0.00000000       0.009
   0.03178005  0.00000000 -0.00110961       0.019
   0.06356010  0.00000000 -0.00221923       0.019
   0.09534016  0.00000000 -0.00332884       0.009
   0.00000000  0.03163776  0.00000000       0.009
   0.03178005  0.03163776 -0.00110961       0.019
   0.06356010  0.03163776 -0.00221923       0.019
   0.09534016  0.03163776 -0.00332884       0.009
   0.00000000  0.06327552  0.00000000       0.009
   0.03178005  0.06327552 -0.00110961       0.019
   0.06356010  0.06327552 -0.00221923       0.019
   0.09534016  0.06327552 -0.00332884       0.009
   0.00000000  0.09491328  0.00000000       0.009
   0.03178005  0.09491328 -0.00110961       0.019
   0.06356010  0.09491328 -0.00221923       0.019
   0.09534016  0.09491328 -0.00332884       0.009
   0.00000000 -0.06327552  0.00000000       0.009
   0.03178005 -0.06327552 -0.00110961       0.019
   0.06356010 -0.06327552 -0.00221923       0.019
   0.09534016 -0.06327552 -0.00332884       0.009
   0.00000000 -0.03163776  0.00000000       0.009
   0.03178005 -0.03163776 -0.00110961       0.019
   0.06356010 -0.03163776 -0.00221923       0.019
   0.09534016 -0.03163776 -0.00332884       0.009
  -0.00112126  0.00000000  0.03211359       0.019
   0.03065879  0.00000000  0.03100397       0.019
   0.06243885  0.00000000  0.02989436       0.019
   0.09421890  0.00000000  0.02878475       0.019
  -0.06468136  0.00000000  0.03433281       0.019
  -0.03290131  0.00000000  0.03322320       0.019
  -0.00112126  0.03163776  0.03211359       0.019
   0.03065879  0.03163776  0.03100397       0.019
   0.06243885  0.03163776  0.02989436       0.019
   0.09421890  0.03163776  0.02878475       0.019
  -0.06468136  0.03163776  0.03433281       0.019
  -0.03290131  0.03163776  0.03322320       0.019
  -0.00112126  0.06327552  0.03211359       0.019
   0.03065879  0.06327552  0.03100397       0.019
   0.06243885  0.06327552  0.02989436       0.019
   0.09421890  0.06327552  0.02878475       0.019
  -0.06468136  0.06327552  0.03433281       0.019
  -0.03290131  0.06327552  0.03322320       0.019
  -0.00112126  0.09491328  0.03211359       0.019
   0.03065879  0.09491328  0.03100397       0.019
   0.06243885  0.09491328  0.02989436       0.019
   0.09421890  0.09491328  0.02878475       0.019
  -0.06468136  0.09491328  0.03433281       0.019
  -0.03290131  0.09491328  0.03322320       0.019
  -0.00112126 -0.06327552  0.03211359       0.019
   0.03065879 -0.06327552  0.03100397       0.019
   0.06243885 -0.06327552  0.02989436       0.019
   0.09421890 -0.06327552  0.02878475       0.019
  -0.06468136 -0.06327552  0.03433281       0.019
  -0.03290131 -0.06327552  0.03322320       0.019
  -0.00112126 -0.03163776  0.03211359       0.019
   0.03065879 -0.03163776  0.03100397       0.019
   0.06243885 -0.03163776  0.02989436       0.019
   0.09421890 -0.03163776  0.02878475       0.019
  -0.06468136 -0.03163776  0.03433281       0.019
  -0.03290131 -0.03163776  0.03322320       0.019
 
 k-points in reciprocal lattice and weights: Automatic mesh                          
   0.00000000  0.00000000  0.00000000       0.009
   0.16666667  0.00000000 -0.00000000       0.019
   0.33333333  0.00000000 -0.00000000       0.019
   0.50000000  0.00000000 -0.00000000       0.009
   0.00000000  0.16666667  0.00000000       0.009
   0.16666667  0.16666667 -0.00000000       0.019
   0.33333333  0.16666667 -0.00000000       0.019
   0.50000000  0.16666667 -0.00000000       0.009
   0.00000000  0.33333333  0.00000000       0.009
   0.16666667  0.33333333 -0.00000000       0.019
   0.33333333  0.33333333 -0.00000000       0.019
   0.50000000  0.33333333 -0.00000000       0.009
   0.00000000  0.50000000  0.00000000       0.009
   0.16666667  0.50000000 -0.00000000       0.019
   0.33333333  0.50000000 -0.00000000       0.019
   0.50000000  0.50000000 -0.00000000       0.009
   0.00000000 -0.33333333  0.00000000       0.009
   0.16666667 -0.33333333 -0.00000000       0.019
   0.33333333 -0.33333333 -0.00000000       0.019
   0.50000000 -0.33333333 -0.00000000       0.009
   0.00000000 -0.16666667  0.00000000       0.009
   0.16666667 -0.16666667 -0.00000000       0.019
   0.33333333 -0.16666667 -0.00000000       0.019
   0.50000000 -0.16666667 -0.00000000       0.009
  -0.00000000  0.00000000  0.33333333       0.019
   0.16666667  0.00000000  0.33333333       0.019
   0.33333333  0.00000000  0.33333333       0.019
   0.50000000  0.00000000  0.33333333       0.019
  -0.33333333  0.00000000  0.33333333       0.019
  -0.16666667  0.00000000  0.33333333       0.019
  -0.00000000  0.16666667  0.33333333       0.019
   0.16666667  0.16666667  0.33333333       0.019
   0.33333333  0.16666667  0.33333333       0.019
   0.50000000  0.16666667  0.33333333       0.019
  -0.33333333  0.16666667  0.33333333       0.019
  -0.16666667  0.16666667  0.33333333       0.019
  -0.00000000  0.33333333  0.33333333       0.019
   0.16666667  0.33333333  0.33333333       0.019
   0.33333333  0.33333333  0.33333333       0.019
   0.50000000  0.33333333  0.33333333       0.019
  -0.33333333  0.33333333  0.33333333       0.019
  -0.16666667  0.33333333  0.33333333       0.019
  -0.00000000  0.50000000  0.33333333       0.019
   0.16666667  0.50000000  0.33333333       0.019
   0.33333333  0.50000000  0.33333333       0.019
   0.50000000  0.50000000  0.33333333       0.019
  -0.33333333  0.50000000  0.33333333       0.019
  -0.16666667  0.50000000  0.33333333       0.019
  -0.00000000 -0.33333333  0.33333333       0.019
   0.16666667 -0.33333333  0.33333333       0.019
   0.33333333 -0.33333333  0.33333333       0.019
   0.50000000 -0.33333333  0.33333333       0.019
  -0.33333333 -0.33333333  0.33333333       0.019
  -0.16666667 -0.33333333  0.33333333       0.019
  -0.00000000 -0.16666667  0.33333333       0.019
   0.16666667 -0.16666667  0.33333333       0.019
   0.33333333 -0.16666667  0.33333333       0.019
   0.50000000 -0.16666667  0.33333333       0.019
  -0.33333333 -0.16666667  0.33333333       0.019
  -0.16666667 -0.16666667  0.33333333       0.019
 
 position of ions in fractional coordinates (direct lattice) 
   0.25262517  0.24115904  0.12573732
   0.74737483  0.74115904  0.12426268
   0.25000000  0.74191078  0.87500000
   0.75000000  0.24617148  0.87500000
   0.24737483  0.24115904  0.62426268
   0.75262517  0.74115904  0.62573732
   0.75000000  0.24191078  0.37500000
   0.25000000  0.74617148  0.37500000
   0.99701064  0.00751381  0.50002812
   0.50298936  0.00751381  0.24997188
   0.49701064  0.50751381  0.00002812
   0.00298936  0.50751381  0.74997188
   0.99848371  0.00728602  0.00028157
   0.50151629  0.00728602  0.74971843
   0.49848371  0.50728602  0.50028157
   0.00151629  0.50728602  0.24971843
 
 position of ions in cartesian coordinates  (Angst):
   1.37210421  1.27041775  1.35303857
   3.96939129  3.90440104  1.42841743
   1.63019600  3.90836117  9.13926375
   4.25558650  1.29682311  9.23093025
   1.52542979  1.27041775  6.53299693
   4.17892371  3.90440104  6.64095107
   4.07415750  1.27437788  4.03468425
   1.44876700  3.93080640  3.94301775
   5.41652373  0.03958251  5.37932320
   2.73179127  0.03958251  2.69004530
   2.60970423  2.67356580  0.09141070
   0.28782977  2.67356580  7.79462480
   5.24292145  0.03838253  0.18598121
   2.90539355  0.03838253  7.88338729
   2.79895995  2.67236582  5.29056071
   0.09857405  2.67236582  2.59547479
 
 Euler angles ALPHA=     0.0000000  BETA=     0.0000000

 transformation matrix from SAXIS to cartesian coordinates
 ---------------------------------------------------------
     1.0000000 m_x     0.0000000 m_y     0.0000000 m_z
     0.0000000 m_x     1.0000000 m_y     0.0000000 m_z
     0.0000000 m_x     0.0000000 m_y     1.0000000 m_z

 transformation matrix from cartesian coordinates to SAXIS
 ---------------------------------------------------------
     1.0000000 m_x     0.0000000 m_y     0.0000000 m_z
     0.0000000 m_x     1.0000000 m_y     0.0000000 m_z
     0.0000000 m_x     0.0000000 m_y     1.0000000 m_z




--------------------------------------------------------------------------------------------------------


 k-point  1 :   0.0000 0.0000 0.0000  plane waves:   24126
 k-point  2 :   0.1667 0.0000-0.0000  plane waves:   24186
 k-point  3 :   0.3333 0.0000-0.0000  plane waves:   24148
 k-point  4 :   0.5000 0.0000-0.0000  plane waves:   24168
 k-point  5 :   0.0000 0.1667 0.0000  plane waves:   24174
 k-point  6 :   0.1667 0.1667-0.0000  plane waves:   24156
 k-point  7 :   0.3333 0.1667-0.0000  plane waves:   24170
 k-point  8 :   0.5000 0.1667-0.0000  plane waves:   24152
 k-point  9 :   0.0000 0.3333 0.0000  plane waves:   24146
 k-point 10 :   0.1667 0.3333-0.0000  plane waves:   24160
 k-point 11 :   0.3333 0.3333-0.0000  plane waves:   24138
 k-point 12 :   0.5000 0.3333-0.0000  plane waves:   24132
 k-point 13 :   0.0000 0.5000 0.0000  plane waves:   24188
 k-point 14 :   0.1667 0.5000-0.0000  plane waves:   24196
 k-point 15 :   0.3333 0.5000-0.0000  plane waves:   24096
 k-point 16 :   0.5000 0.5000-0.0000  plane waves:   24040
 k-point 17 :   0.0000-0.3333 0.0000  plane waves:   24146
 k-point 18 :   0.1667-0.3333-0.0000  plane waves:   24160
 k-point 19 :   0.3333-0.3333-0.0000  plane waves:   24138
 k-point 20 :   0.5000-0.3333-0.0000  plane waves:   24132
 k-point 21 :   0.0000-0.1667 0.0000  plane waves:   24174
 k-point 22 :   0.1667-0.1667-0.0000  plane waves:   24156
 k-point 23 :   0.3333-0.1667-0.0000  plane waves:   24170
 k-point 24 :   0.5000-0.1667-0.0000  plane waves:   24152
 k-point 25 :  -0.0000 0.0000 0.3333  plane waves:   24160
 k-point 26 :   0.1667 0.0000 0.3333  plane waves:   24180
 k-point 27 :   0.3333 0.0000 0.3333  plane waves:   24134
 k-point 28 :   0.5000 0.0000 0.3333  plane waves:   24232
 k-point 29 :  -0.3333 0.0000 0.3333  plane waves:   24168
 k-point 30 :  -0.1667 0.0000 0.3333  plane waves:   24150
 k-point 31 :  -0.0000 0.1667 0.3333  plane waves:   24168
 k-point 32 :   0.1667 0.1667 0.3333  plane waves:   24166
 k-point 33 :   0.3333 0.1667 0.3333  plane waves:   24132
 k-point 34 :   0.5000 0.1667 0.3333  plane waves:   24180
 k-point 35 :  -0.3333 0.1667 0.3333  plane waves:   24146
 k-point 36 :  -0.1667 0.1667 0.3333  plane waves:   24136
 k-point 37 :  -0.0000 0.3333 0.3333  plane waves:   24170
 k-point 38 :   0.1667 0.3333 0.3333  plane waves:   24128
 k-point 39 :   0.3333 0.3333 0.3333  plane waves:   24138
 k-point 40 :   0.5000 0.3333 0.3333  plane waves:   24104
 k-point 41 :  -0.3333 0.3333 0.3333  plane waves:   24120
 k-point 42 :  -0.1667 0.3333 0.3333  plane waves:   24156
 k-point 43 :  -0.0000 0.5000 0.3333  plane waves:   24172
 k-point 44 :   0.1667 0.5000 0.3333  plane waves:   24200
 k-point 45 :   0.3333 0.5000 0.3333  plane waves:   24108
 k-point 46 :   0.5000 0.5000 0.3333  plane waves:   24084
 k-point 47 :  -0.3333 0.5000 0.3333  plane waves:   24116
 k-point 48 :  -0.1667 0.5000 0.3333  plane waves:   24116
 k-point 49 :  -0.0000-0.3333 0.3333  plane waves:   24170
 k-point 50 :   0.1667-0.3333 0.3333  plane waves:   24128
 k-point 51 :   0.3333-0.3333 0.3333  plane waves:   24138
 k-point 52 :   0.5000-0.3333 0.3333  plane waves:   24104
 k-point 53 :  -0.3333-0.3333 0.3333  plane waves:   24120
 k-point 54 :  -0.1667-0.3333 0.3333  plane waves:   24156
 k-point 55 :  -0.0000-0.1667 0.3333  plane waves:   24168
 k-point 56 :   0.1667-0.1667 0.3333  plane waves:   24166
 k-point 57 :   0.3333-0.1667 0.3333  plane waves:   24132
 k-point 58 :   0.5000-0.1667 0.3333  plane waves:   24180
 k-point 59 :  -0.3333-0.1667 0.3333  plane waves:   24146
 k-point 60 :  -0.1667-0.1667 0.3333  plane waves:   24136

 maximum and minimum number of plane-waves per node :     24232    24040

 maximum number of plane-waves:     24232
 maximum index in each direction: 
   IXMAX=   11   IYMAX=   11   IZMAX=   22
   IXMIN=  -11   IYMIN=  -11   IZMIN=  -22


 serial   3D FFT for wavefunctions
 parallel 3D FFT for charge:
    minimum data exchange during FFTs selected (reduces bandwidth)


 total amount of memory used by VASP MPI-rank0   410429. kBytes
=======================================================================

   base      :      30000. kBytes
   nonl-proj :     321650. kBytes
   fftplans  :       2735. kBytes
   grid      :      30965. kBytes
   one-center:        995. kBytes
   wavefun   :      24084. kBytes
 
     INWAV:  cpu time   15.6758: real time   15.9018
 Broyden mixing: mesh for mixing (old mesh)
   NGX = 23   NGY = 23   NGZ = 45
  (NGX  = 96   NGY  = 96   NGZ  =180)
  gives a total of  23805 points

 initial charge density was supplied:
 number of electron     172.0000029 magnetization       0.0000000      0.0000026      0.0000000
 keeping initial charge density in first step


--------------------------------------------------------------------------------------------------------


 Maximum index for augmentation-charges          895 (set IRDMAX)


--------------------------------------------------------------------------------------------------------


 First call to EWALD:  gamma=   0.269
 Maximum number of real-space cells 3x 3x 2
 Maximum number of reciprocal cells 2x 2x 4

    FEWALD:  cpu time    0.0019: real time    0.0019


--------------------------------------- Iteration      1(   1)  ---------------------------------------


    POTLOK:  cpu time    0.2467: real time    0.2920
    SETDIJ:  cpu time    0.5902: real time    0.5922
     EDDAV:  cpu time   77.1651: real time   77.6654
 BZINTS: Fermi energy:  4.884081;172.000000 electrons
         Band energy:***********;  BLOECHL correction:  0.000000
       DOS:  cpu time    0.0402: real time    0.0403
    CHARGE:  cpu time    1.4795: real time    1.4930
    MIXING:  cpu time    0.0027: real time    0.0028
    --------------------------------------------
      LOOP:  cpu time   79.5243: real time   80.0857

 eigenvalue-minimisations  : 30720
 total energy-change (2. order) :-0.8212947E+02  (-0.1935288E+00)
 number of electron     172.0000029 magnetization       0.0000000      0.0003092      0.0000000
 augmentation part       70.5583018 magnetization       0.0000000     -0.0003319      0.0000000

 Broyden mixing:
  rms(total) = 0.79100E-01    rms(broyden)= 0.79100E-01
  rms(prec ) = 0.79163E-01
  weight for this iteration     100.00

 Free energy of the ion-electron system (eV)
  ---------------------------------------------------
  alpha Z        PSCENC =       590.16955383
  Ewald energy   TEWEN  =    -15631.84053416
  -Hartree energ DENC   =    -10729.82264188
  -exchange      EXHF   =         0.00000000
  -V(xc)+E(xc)   XCENC  =       821.63428758
  PAW double counting   =     28060.17527763   -28983.44575335
  entropy T*S    EENTRO =         0.00000000
  eigenvalues    EBANDS =     -2714.01593786
  atomic energy  EATOM  =     28505.01627691
  Solvation  Ediel_sol  =         0.00000000
  ---------------------------------------------------
  free energy    TOTEN  =       -82.12947131 eV

  energy without entropy =      -82.12947131  energy(sigma->0) =      -82.12947131


--------------------------------------------------------------------------------------------------------




--------------------------------------- Iteration      1(   2)  ---------------------------------------


    POTLOK:  cpu time    0.1246: real time    0.1281
    SETDIJ:  cpu time    0.5894: real time    0.5912
     EDDAV:  cpu time   80.6898: real time   81.1170
 BZINTS: Fermi energy:  5.074983;172.000000 electrons
         Band energy:***********;  BLOECHL correction:  0.000000
       DOS:  cpu time    0.0394: real time    0.0395
    CHARGE:  cpu time    1.4700: real time    1.4839
    MIXING:  cpu time    0.0020: real time    0.0134
    --------------------------------------------
      LOOP:  cpu time   82.9152: real time   83.3733

 eigenvalue-minimisations  : 30720
 total energy-change (2. order) :-0.8986539E-02  (-0.6574047E-02)
 number of electron     172.0000029 magnetization       0.0000000      0.0004399      0.0000000
 augmentation part       70.5589222 magnetization       0.0000000     -0.0005758      0.0000000

 Broyden mixing:
  rms(total) = 0.47357E-01    rms(broyden)= 0.47357E-01
  rms(prec ) = 0.47664E-01
  weight for this iteration     100.00

 eigenvalues of (default mixing * dielectric matrix)
  average eigenvalue GAMMA=   0.6355
  0.6355

 Free energy of the ion-electron system (eV)
  ---------------------------------------------------
  alpha Z        PSCENC =       590.16955383
  Ewald energy   TEWEN  =    -15631.84053416
  -Hartree energ DENC   =    -10729.54933898
  -exchange      EXHF   =         0.00000000
  -V(xc)+E(xc)   XCENC  =       821.62061003
  PAW double counting   =     28061.00319504   -28984.24895999
  entropy T*S    EENTRO =         0.00000000
  eigenvalues    EBANDS =     -2714.30926053
  atomic energy  EATOM  =     28505.01627691
  Solvation  Ediel_sol  =         0.00000000
  ---------------------------------------------------
  free energy    TOTEN  =       -82.13845785 eV

  energy without entropy =      -82.13845785  energy(sigma->0) =      -82.13845785


--------------------------------------------------------------------------------------------------------




--------------------------------------- Iteration      1(   3)  ---------------------------------------


    POTLOK:  cpu time    0.1270: real time    0.1281
    SETDIJ:  cpu time    0.5871: real time    0.5890
     EDDAV:  cpu time  333.7599: real time  335.3769
 BZINTS: Fermi energy:  4.885024;172.000000 electrons
         Band energy:***********;  BLOECHL correction:  0.000000
       DOS:  cpu time    0.0343: real time    0.0344
    CHARGE:  cpu time    1.4750: real time    1.4888
    MIXING:  cpu time    0.0017: real time    0.0017
    --------------------------------------------
      LOOP:  cpu time  335.9851: real time  337.6191

 eigenvalue-minimisations  : 57344
 total energy-change (2. order) :-0.1155264E-02  (-0.1693074E-02)
 number of electron     172.0000029 magnetization       0.0000000      0.0003988      0.0000000
 augmentation part       70.5600963 magnetization       0.0000000     -0.0001570      0.0000000

 Broyden mixing:
  rms(total) = 0.14264E-01    rms(broyden)= 0.14263E-01
  rms(prec ) = 0.15338E-01
  weight for this iteration     100.00

 eigenvalues of (default mixing * dielectric matrix)
  average eigenvalue GAMMA=   0.5900
  0.6665  0.5134

 Free energy of the ion-electron system (eV)
  ---------------------------------------------------
  alpha Z        PSCENC =       590.16955383
  Ewald energy   TEWEN  =    -15631.84053416
  -Hartree energ DENC   =    -10729.71982970
  -exchange      EXHF   =         0.00000000
  -V(xc)+E(xc)   XCENC  =       821.62923764
  PAW double counting   =     28061.74390053   -28985.00829455
  entropy T*S    EENTRO =         0.00000000
  eigenvalues    EBANDS =     -2714.12992362
  atomic energy  EATOM  =     28505.01627691
  Solvation  Ediel_sol  =         0.00000000
  ---------------------------------------------------
  free energy    TOTEN  =       -82.13961312 eV

  energy without entropy =      -82.13961312  energy(sigma->0) =      -82.13961312


--------------------------------------------------------------------------------------------------------




--------------------------------------- Iteration      1(   4)  ---------------------------------------


    POTLOK:  cpu time    0.1265: real time    0.1274
    SETDIJ:  cpu time    0.5895: real time    0.5913
     EDDAV:  cpu time   89.7304: real time   90.2051
 BZINTS: Fermi energy:  4.876742;172.000000 electrons
         Band energy:***********;  BLOECHL correction:  0.000000
       DOS:  cpu time    0.0343: real time    0.0344
    CHARGE:  cpu time    1.4744: real time    1.4884
    MIXING:  cpu time    0.0018: real time    0.0018
    --------------------------------------------
      LOOP:  cpu time   91.9567: real time   92.4482

 eigenvalue-minimisations  : 31744
 total energy-change (2. order) :-0.3982725E-04  (-0.2782793E-02)
 number of electron     172.0000029 magnetization       0.0000000      0.0001309      0.0000000
 augmentation part       70.5589912 magnetization       0.0000000     -0.0001624      0.0000000

 Broyden mixing:
  rms(total) = 0.14033E-01    rms(broyden)= 0.14033E-01
  rms(prec ) = 0.14645E-01
  weight for this iteration     100.00

 eigenvalues of (default mixing * dielectric matrix)
  average eigenvalue GAMMA=   0.7565
  1.3572  0.6267  0.2857

 Free energy of the ion-electron system (eV)
  ---------------------------------------------------
  alpha Z        PSCENC =       590.16955383
  Ewald energy   TEWEN  =    -15631.84053416
  -Hartree energ DENC   =    -10729.55669651
  -exchange      EXHF   =         0.00000000
  -V(xc)+E(xc)   XCENC  =       821.61847218
  PAW double counting   =     28062.24019225   -28985.51058938
  entropy T*S    EENTRO =         0.00000000
  eigenvalues    EBANDS =     -2714.27632806
  atomic energy  EATOM  =     28505.01627691
  Solvation  Ediel_sol  =         0.00000000
  ---------------------------------------------------
  free energy    TOTEN  =       -82.13965294 eV

  energy without entropy =      -82.13965294  energy(sigma->0) =      -82.13965294


--------------------------------------------------------------------------------------------------------




--------------------------------------- Iteration      1(   5)  ---------------------------------------


    POTLOK:  cpu time    0.1280: real time    0.1289
    SETDIJ:  cpu time    0.5877: real time    0.5895
     EDDAV:  cpu time  348.5884: real time  350.2534
 BZINTS: Fermi energy:  4.875207;172.000000 electrons
         Band energy:***********;  BLOECHL correction:  0.000000
       DOS:  cpu time    0.0357: real time    0.0358
 


 total charge     
 
# of ion       s       p       d       tot
------------------------------------------
    1        1.314   2.409   0.000   3.723
    2        1.314   2.408   0.000   3.723
    3        1.315   2.405   0.000   3.720
    4        1.313   2.412   0.000   3.725
    5        1.314   2.408   0.000   3.723
    6        1.314   2.409   0.000   3.723
    7        1.315   2.405   0.000   3.720
    8        1.313   2.412   0.000   3.725
    9        0.259   6.202   8.917  15.378
   10        0.259   6.202   8.917  15.378
   11        0.259   6.202   8.917  15.378
   12        0.259   6.202   8.917  15.378
   13        0.349   6.350   5.823  12.521
   14        0.349   6.350   5.823  12.521
   15        0.349   6.350   5.823  12.521
   16        0.349   6.350   5.823  12.521
--------------------------------------------------
tot         12.945  69.474  58.958 141.377
 


 magnetization (x)
 
# of ion       s       p       d       tot
------------------------------------------
    1       -0.000  -0.000   0.000  -0.000
    2        0.000   0.000   0.000   0.000
    3       -0.000  -0.000   0.000  -0.000
    4       -0.000  -0.000   0.000  -0.000
    5        0.000   0.000   0.000   0.000
    6       -0.000  -0.000   0.000  -0.000
    7       -0.000  -0.000   0.000  -0.000
    8       -0.000  -0.000   0.000  -0.000
    9        0.000  -0.000   0.000   0.000
   10        0.000   0.000  -0.000  -0.000
   11        0.000  -0.000   0.000   0.000
   12        0.000   0.000  -0.000  -0.000
   13       -0.000  -0.000   0.000   0.000
   14       -0.000   0.000  -0.000  -0.000
   15       -0.000  -0.000   0.000   0.000
   16       -0.000   0.000  -0.000  -0.000
--------------------------------------------------
tot         -0.000  -0.000  -0.000  -0.001
 


 magnetization (y)
 
# of ion       s       p       d       tot
------------------------------------------
    1       -0.000  -0.000   0.000  -0.000
    2       -0.000  -0.000   0.000  -0.000
    3       -0.000  -0.000   0.000  -0.000
    4        0.000  -0.000   0.000  -0.000
    5       -0.000  -0.000   0.000  -0.000
    6       -0.000  -0.000   0.000  -0.000
    7       -0.000  -0.000   0.000  -0.000
    8        0.000  -0.000   0.000  -0.000
    9       -0.000   0.000  -0.000  -0.000
   10       -0.000   0.000  -0.000  -0.000
   11       -0.000   0.000  -0.000  -0.000
   12       -0.000   0.000  -0.000  -0.000
   13        0.000   0.000  -0.000  -0.000
   14        0.000   0.000  -0.000  -0.000
   15        0.000   0.000  -0.000  -0.000
   16        0.000   0.000  -0.000  -0.000
--------------------------------------------------
tot         -0.000  -0.001  -0.001  -0.002
 


 magnetization (z)
 
# of ion       s       p       d       tot
------------------------------------------
    1       -0.000  -0.018   0.000  -0.018
    2        0.000   0.018   0.000   0.018
    3        0.000   0.000   0.000   0.000
    4       -0.000  -0.000   0.000  -0.000
    5        0.000   0.018   0.000   0.018
    6       -0.000  -0.018   0.000  -0.018
    7        0.000   0.000   0.000   0.000
    8       -0.000  -0.000   0.000  -0.000
    9        0.000   0.001  -0.002  -0.001
   10       -0.000  -0.001   0.002   0.001
   11        0.000   0.001  -0.002  -0.001
   12       -0.000  -0.001   0.002   0.001
   13        0.020   0.054   3.663   3.737
   14       -0.020  -0.054  -3.663  -3.737
   15        0.020   0.054   3.663   3.737
   16       -0.020  -0.054  -3.663  -3.737
--------------------------------------------------
tot         -0.000  -0.000   0.000   0.000
 
    CHARGE:  cpu time    1.6975: real time    1.7117
    MIXING:  cpu time    0.0018: real time    0.0018
    --------------------------------------------
      LOOP:  cpu time  351.0391: real time  352.7212

 eigenvalue-minimisations  : 58112
 total energy-change (2. order) :-0.3699254E-03  (-0.2516235E-02)
 number of electron     172.0000029 magnetization       0.0000000      0.0000954      0.0000000
 augmentation part       70.5597596 magnetization       0.0000000     -0.0012118      0.0000000

 Broyden mixing:
  rms(total) = 0.76476E-02    rms(broyden)= 0.76474E-02
  rms(prec ) = 0.79265E-02
  weight for this iteration     100.00

 eigenvalues of (default mixing * dielectric matrix)
  average eigenvalue GAMMA=   0.7183
  1.5767  0.6308  0.3807  0.2852

 Free energy of the ion-electron system (eV)
  ---------------------------------------------------
  alpha Z        PSCENC =       590.16955383
  Ewald energy   TEWEN  =    -15631.84053416
  -Hartree energ DENC   =    -10729.58328993
  -exchange      EXHF   =         0.00000000
  -V(xc)+E(xc)   XCENC  =       821.61678408
  PAW double counting   =     28063.47095727   -28986.75114453
  entropy T*S    EENTRO =         0.00000000
  eigenvalues    EBANDS =     -2714.23862634
  atomic energy  EATOM  =     28505.01627691
  Solvation  Ediel_sol  =         0.00000000
  ---------------------------------------------------
  free energy    TOTEN  =       -82.14002287 eV

  energy without entropy =      -82.14002287  energy(sigma->0) =      -82.14002287


--------------------------------------------------------------------------------------------------------




--------------------------------------- Iteration      1(   6)  ---------------------------------------


    POTLOK:  cpu time    0.1259: real time    0.1267
    SETDIJ:  cpu time    0.5870: real time    0.5889
     EDDAV:  cpu time   81.2204: real time   81.6511
 BZINTS: Fermi energy:  4.876229;172.000000 electrons
         Band energy:***********;  BLOECHL correction:  0.000000
       DOS:  cpu time    0.0343: real time    0.0344
    CHARGE:  cpu time    1.4722: real time    1.4863
    MIXING:  cpu time    0.0020: real time    0.0020
    --------------------------------------------
      LOOP:  cpu time   83.4417: real time   83.8894

 eigenvalue-minimisations  : 30720
 total energy-change (2. order) : 0.1854420E-03  (-0.1897911E-02)
 number of electron     172.0000029 magnetization       0.0000000     -0.0004044      0.0000000
 augmentation part       70.5596471 magnetization       0.0000000      0.0007979      0.0000000

 Broyden mixing:
  rms(total) = 0.55014E-02    rms(broyden)= 0.55013E-02
  rms(prec ) = 0.55076E-02
  weight for this iteration     100.00

 eigenvalues of (default mixing * dielectric matrix)
  average eigenvalue GAMMA=   0.7694
  1.8828  0.8145  0.6211  0.3082  0.2202

 Free energy of the ion-electron system (eV)
  ---------------------------------------------------
  alpha Z        PSCENC =       590.16955383
  Ewald energy   TEWEN  =    -15631.84053416
  -Hartree energ DENC   =    -10729.63773800
  -exchange      EXHF   =         0.00000000
  -V(xc)+E(xc)   XCENC  =       821.61959917
  PAW double counting   =     28063.83956019   -28987.12355864
  entropy T*S    EENTRO =         0.00000000
  eigenvalues    EBANDS =     -2714.18299673
  atomic energy  EATOM  =     28505.01627691
  Solvation  Ediel_sol  =         0.00000000
  ---------------------------------------------------
  free energy    TOTEN  =       -82.13983743 eV

  energy without entropy =      -82.13983743  energy(sigma->0) =      -82.13983743


--------------------------------------------------------------------------------------------------------




--------------------------------------- Iteration      1(   7)  ---------------------------------------


    POTLOK:  cpu time    0.1267: real time    0.1288
    SETDIJ:  cpu time    0.5889: real time    0.5907
     EDDAV:  cpu time  212.9709: real time  214.3831
 BZINTS: Fermi energy:  4.875598;172.000000 electrons
         Band energy:***********;  BLOECHL correction:  0.000000
       DOS:  cpu time    0.0345: real time    0.0346
    CHARGE:  cpu time    1.4750: real time    1.5420
    MIXING:  cpu time    0.0030: real time    0.1410
    --------------------------------------------
      LOOP:  cpu time  215.1990: real time  216.8202

 eigenvalue-minimisations  : 44032
 total energy-change (2. order) :-0.1302656E-04  (-0.8515728E-03)
 number of electron     172.0000029 magnetization       0.0000000     -0.0004208      0.0000000
 augmentation part       70.5592184 magnetization       0.0000000     -0.0020787      0.0000000

 Broyden mixing:
  rms(total) = 0.28855E-02    rms(broyden)= 0.28854E-02
  rms(prec ) = 0.29120E-02
  weight for this iteration     100.00

 eigenvalues of (default mixing * dielectric matrix)
  average eigenvalue GAMMA=   0.7208
  1.9565  0.9196  0.6224  0.3041  0.3041  0.2181

 Free energy of the ion-electron system (eV)
  ---------------------------------------------------
  alpha Z        PSCENC =       590.16955383
  Ewald energy   TEWEN  =    -15631.84053416
  -Hartree energ DENC   =    -10729.65634638
  -exchange      EXHF   =         0.00000000
  -V(xc)+E(xc)   XCENC  =       821.61994042
  PAW double counting   =     28064.11849268   -28987.40420969
  entropy T*S    EENTRO =         0.00000000
  eigenvalues    EBANDS =     -2714.16302406
  atomic energy  EATOM  =     28505.01627691
  Solvation  Ediel_sol  =         0.00000000
  ---------------------------------------------------
  free energy    TOTEN  =       -82.13985045 eV

  energy without entropy =      -82.13985045  energy(sigma->0) =      -82.13985045


--------------------------------------------------------------------------------------------------------




--------------------------------------- Iteration      1(   8)  ---------------------------------------


    POTLOK:  cpu time    0.1268: real time    0.1532
    SETDIJ:  cpu time    0.5864: real time    0.5882
     EDDAV:  cpu time   83.2437: real time   83.6915
 BZINTS: Fermi energy:  4.875987;172.000000 electrons
         Band energy:***********;  BLOECHL correction:  0.000000
       DOS:  cpu time    0.0344: real time    0.0345
    CHARGE:  cpu time    1.4744: real time    1.4876
    MIXING:  cpu time    0.0022: real time    0.0022
    --------------------------------------------
      LOOP:  cpu time   85.4678: real time   85.9571

 eigenvalue-minimisations  : 30976
 total energy-change (2. order) :-0.1042765E-03  (-0.5783942E-03)
 number of electron     172.0000029 magnetization       0.0000000     -0.0007467      0.0000000
 augmentation part       70.5593528 magnetization       0.0000000      0.0008488      0.0000000

 Broyden mixing:
  rms(total) = 0.26824E-02    rms(broyden)= 0.26823E-02
  rms(prec ) = 0.26847E-02
  weight for this iteration     100.00

 eigenvalues of (default mixing * dielectric matrix)
  average eigenvalue GAMMA=   0.7115
  2.0688  1.0814  0.6210  0.5113  0.3081  0.2228  0.1670

 Free energy of the ion-electron system (eV)
  ---------------------------------------------------
  alpha Z        PSCENC =       590.16955383
  Ewald energy   TEWEN  =    -15631.84053416
  -Hartree energ DENC   =    -10729.64324145
  -exchange      EXHF   =         0.00000000
  -V(xc)+E(xc)   XCENC  =       821.61927411
  PAW double counting   =     28064.12465047   -28987.40877959
  entropy T*S    EENTRO =         0.00000000
  eigenvalues    EBANDS =     -2714.17715485
  atomic energy  EATOM  =     28505.01627691
  Solvation  Ediel_sol  =         0.00000000
  ---------------------------------------------------
  free energy    TOTEN  =       -82.13995473 eV

  energy without entropy =      -82.13995473  energy(sigma->0) =      -82.13995473


--------------------------------------------------------------------------------------------------------




--------------------------------------- Iteration      1(   9)  ---------------------------------------


    POTLOK:  cpu time    0.1267: real time    0.1277
    SETDIJ:  cpu time    0.5860: real time    0.5882
     EDDAV:  cpu time  182.4464: real time  183.3478
 BZINTS: Fermi energy:  4.875717;172.000000 electrons
         Band energy:***********;  BLOECHL correction:  0.000000
       DOS:  cpu time    0.0343: real time    0.0345
    CHARGE:  cpu time    1.4735: real time    1.4872
    MIXING:  cpu time    0.0022: real time    0.0022
    --------------------------------------------
      LOOP:  cpu time  184.6691: real time  185.5877

 eigenvalue-minimisations  : 40960
 total energy-change (2. order) : 0.5777938E-04  (-0.2300623E-03)
 number of electron     172.0000029 magnetization       0.0000000     -0.0009579      0.0000000
 augmentation part       70.5594985 magnetization       0.0000000     -0.0009315      0.0000000

 Broyden mixing:
  rms(total) = 0.12211E-02    rms(broyden)= 0.12211E-02
  rms(prec ) = 0.12377E-02
  weight for this iteration     100.00

 eigenvalues of (default mixing * dielectric matrix)
  average eigenvalue GAMMA=   0.6961
  2.1724  1.1916  0.6150  0.6150  0.2947  0.2947  0.2291  0.1566

 Free energy of the ion-electron system (eV)
  ---------------------------------------------------
  alpha Z        PSCENC =       590.16955383
  Ewald energy   TEWEN  =    -15631.84053416
  -Hartree energ DENC   =    -10729.63424492
  -exchange      EXHF   =         0.00000000
  -V(xc)+E(xc)   XCENC  =       821.61885807
  PAW double counting   =     28064.11034980   -28987.39325947
  entropy T*S    EENTRO =         0.00000000
  eigenvalues    EBANDS =     -2714.18689701
  atomic energy  EATOM  =     28505.01627691
  Solvation  Ediel_sol  =         0.00000000
  ---------------------------------------------------
  free energy    TOTEN  =       -82.13989695 eV

  energy without entropy =      -82.13989695  energy(sigma->0) =      -82.13989695


--------------------------------------------------------------------------------------------------------




--------------------------------------- Iteration      1(  10)  ---------------------------------------


    POTLOK:  cpu time    0.1268: real time    0.1275
    SETDIJ:  cpu time    0.5864: real time    0.5882
     EDDAV:  cpu time  106.5112: real time  107.0598
 BZINTS: Fermi energy:  4.875764;172.000000 electrons
         Band energy:***********;  BLOECHL correction:  0.000000
       DOS:  cpu time    0.0344: real time    0.0346
 


 total charge     
 
# of ion       s       p       d       tot
------------------------------------------
    1        1.314   2.408   0.000   3.723
    2        1.314   2.408   0.000   3.722
    3        1.315   2.404   0.000   3.720
    4        1.313   2.412   0.000   3.725
    5        1.314   2.408   0.000   3.722
    6        1.314   2.408   0.000   3.723
    7        1.315   2.404   0.000   3.720
    8        1.313   2.412   0.000   3.725
    9        0.259   6.202   8.916  15.378
   10        0.259   6.202   8.916  15.378
[...]
     0.0000000     0.0000000     0.0000000     0.0000000     0.0000000     0.0000000     0.0000000

 Ion:    5  E_soc:     -0.0017391
 l=   1
     0.0000000    -0.0002485    -0.0003670
    -0.0002485     0.0000000    -0.0002541
    -0.0003670    -0.0002541     0.0000000
 l=   2
     0.0000000     0.0000000     0.0000000     0.0000000     0.0000000
     0.0000000     0.0000000     0.0000000     0.0000000     0.0000000
     0.0000000     0.0000000     0.0000000     0.0000000     0.0000000
     0.0000000     0.0000000     0.0000000     0.0000000     0.0000000
     0.0000000     0.0000000     0.0000000     0.0000000     0.0000000
 l=   3
     0.0000000     0.0000000     0.0000000     0.0000000     0.0000000     0.0000000     0.0000000
     0.0000000     0.0000000     0.0000000     0.0000000     0.0000000     0.0000000     0.0000000
     0.0000000     0.0000000     0.0000000     0.0000000     0.0000000     0.0000000     0.0000000
     0.0000000     0.0000000     0.0000000     0.0000000     0.0000000     0.0000000     0.0000000
     0.0000000     0.0000000     0.0000000     0.0000000     0.0000000     0.0000000     0.0000000
     0.0000000     0.0000000     0.0000000     0.0000000     0.0000000     0.0000000     0.0000000
     0.0000000     0.0000000     0.0000000     0.0000000     0.0000000     0.0000000     0.0000000

 Ion:    6  E_soc:     -0.0017391
 l=   1
     0.0000000    -0.0002485    -0.0003670
    -0.0002485     0.0000000    -0.0002541
    -0.0003670    -0.0002541     0.0000000
 l=   2
     0.0000000     0.0000000     0.0000000     0.0000000     0.0000000
     0.0000000     0.0000000     0.0000000     0.0000000     0.0000000
     0.0000000     0.0000000     0.0000000     0.0000000     0.0000000
     0.0000000     0.0000000     0.0000000     0.0000000     0.0000000
     0.0000000     0.0000000     0.0000000     0.0000000     0.0000000
 l=   3
     0.0000000     0.0000000     0.0000000     0.0000000     0.0000000     0.0000000     0.0000000
     0.0000000     0.0000000     0.0000000     0.0000000     0.0000000     0.0000000     0.0000000
     0.0000000     0.0000000     0.0000000     0.0000000     0.0000000     0.0000000     0.0000000
     0.0000000     0.0000000     0.0000000     0.0000000     0.0000000     0.0000000     0.0000000
     0.0000000     0.0000000     0.0000000     0.0000000     0.0000000     0.0000000     0.0000000
     0.0000000     0.0000000     0.0000000     0.0000000     0.0000000     0.0000000     0.0000000
     0.0000000     0.0000000     0.0000000     0.0000000     0.0000000     0.0000000     0.0000000

 Ion:    7  E_soc:     -0.0017715
 l=   1
     0.0000000    -0.0002531    -0.0003845
    -0.0002531     0.0000000    -0.0002481
    -0.0003845    -0.0002481     0.0000000
 l=   2
     0.0000000     0.0000000     0.0000000     0.0000000     0.0000000
     0.0000000     0.0000000     0.0000000     0.0000000     0.0000000
     0.0000000     0.0000000     0.0000000     0.0000000     0.0000000
     0.0000000     0.0000000     0.0000000     0.0000000     0.0000000
     0.0000000     0.0000000     0.0000000     0.0000000     0.0000000
 l=   3
     0.0000000     0.0000000     0.0000000     0.0000000     0.0000000     0.0000000     0.0000000
     0.0000000     0.0000000     0.0000000     0.0000000     0.0000000     0.0000000     0.0000000
     0.0000000     0.0000000     0.0000000     0.0000000     0.0000000     0.0000000     0.0000000
     0.0000000     0.0000000     0.0000000     0.0000000     0.0000000     0.0000000     0.0000000
     0.0000000     0.0000000     0.0000000     0.0000000     0.0000000     0.0000000     0.0000000
     0.0000000     0.0000000     0.0000000     0.0000000     0.0000000     0.0000000     0.0000000
     0.0000000     0.0000000     0.0000000     0.0000000     0.0000000     0.0000000     0.0000000

 Ion:    8  E_soc:     -0.0017001
 l=   1
     0.0000000    -0.0002535    -0.0003479
    -0.0002535     0.0000000    -0.0002486
    -0.0003479    -0.0002486     0.0000000
 l=   2
     0.0000000     0.0000000     0.0000000     0.0000000     0.0000000
     0.0000000     0.0000000     0.0000000     0.0000000     0.0000000
     0.0000000     0.0000000     0.0000000     0.0000000     0.0000000
     0.0000000     0.0000000     0.0000000     0.0000000     0.0000000
     0.0000000     0.0000000     0.0000000     0.0000000     0.0000000
 l=   3
     0.0000000     0.0000000     0.0000000     0.0000000     0.0000000     0.0000000     0.0000000
     0.0000000     0.0000000     0.0000000     0.0000000     0.0000000     0.0000000     0.0000000
     0.0000000     0.0000000     0.0000000     0.0000000     0.0000000     0.0000000     0.0000000
     0.0000000     0.0000000     0.0000000     0.0000000     0.0000000     0.0000000     0.0000000
     0.0000000     0.0000000     0.0000000     0.0000000     0.0000000     0.0000000     0.0000000
     0.0000000     0.0000000     0.0000000     0.0000000     0.0000000     0.0000000     0.0000000
     0.0000000     0.0000000     0.0000000     0.0000000     0.0000000     0.0000000     0.0000000

 Ion:    9  E_soc:     -0.0618429
 l=   1
     0.0000000    -0.0085623    -0.0085518
    -0.0085623     0.0000000    -0.0085625
    -0.0085518    -0.0085625     0.0000000
 l=   2
     0.0000000    -0.0004016     0.0000000    -0.0003995    -0.0013521
    -0.0004016     0.0000000    -0.0010654    -0.0002950    -0.0003387
     0.0000000    -0.0010654     0.0000000    -0.0010567     0.0000000
    -0.0003995    -0.0002950    -0.0010567     0.0000000    -0.0003358
    -0.0013521    -0.0003387     0.0000000    -0.0003358     0.0000000
 l=   3
     0.0000000     0.0000000     0.0000000     0.0000000     0.0000000     0.0000000     0.0000000
     0.0000000     0.0000000     0.0000000     0.0000000     0.0000000     0.0000000     0.0000000
     0.0000000     0.0000000     0.0000000     0.0000000     0.0000000     0.0000000     0.0000000
     0.0000000     0.0000000     0.0000000     0.0000000     0.0000000     0.0000000     0.0000000
     0.0000000     0.0000000     0.0000000     0.0000000     0.0000000     0.0000000     0.0000000
     0.0000000     0.0000000     0.0000000     0.0000000     0.0000000     0.0000000     0.0000000
     0.0000000     0.0000000     0.0000000     0.0000000     0.0000000     0.0000000     0.0000000

 Ion:   10  E_soc:     -0.0618429
 l=   1
     0.0000000    -0.0085623    -0.0085518
    -0.0085623     0.0000000    -0.0085625
    -0.0085518    -0.0085625     0.0000000
 l=   2
     0.0000000    -0.0004016     0.0000000    -0.0003995    -0.0013521
    -0.0004016     0.0000000    -0.0010654    -0.0002950    -0.0003387
     0.0000000    -0.0010654     0.0000000    -0.0010567     0.0000000
    -0.0003995    -0.0002950    -0.0010567     0.0000000    -0.0003358
    -0.0013521    -0.0003387     0.0000000    -0.0003358     0.0000000
 l=   3
     0.0000000     0.0000000     0.0000000     0.0000000     0.0000000     0.0000000     0.0000000
     0.0000000     0.0000000     0.0000000     0.0000000     0.0000000     0.0000000     0.0000000
     0.0000000     0.0000000     0.0000000     0.0000000     0.0000000     0.0000000     0.0000000
     0.0000000     0.0000000     0.0000000     0.0000000     0.0000000     0.0000000     0.0000000
     0.0000000     0.0000000     0.0000000     0.0000000     0.0000000     0.0000000     0.0000000
     0.0000000     0.0000000     0.0000000     0.0000000     0.0000000     0.0000000     0.0000000
     0.0000000     0.0000000     0.0000000     0.0000000     0.0000000     0.0000000     0.0000000

 Ion:   11  E_soc:     -0.0618429
 l=   1
     0.0000000    -0.0085623    -0.0085518
    -0.0085623     0.0000000    -0.0085625
    -0.0085518    -0.0085625     0.0000000
 l=   2
     0.0000000    -0.0004016     0.0000000    -0.0003995    -0.0013521
    -0.0004016     0.0000000    -0.0010654    -0.0002950    -0.0003387
     0.0000000    -0.0010654     0.0000000    -0.0010567     0.0000000
    -0.0003995    -0.0002950    -0.0010567     0.0000000    -0.0003358
    -0.0013521    -0.0003387     0.0000000    -0.0003358     0.0000000
 l=   3
     0.0000000     0.0000000     0.0000000     0.0000000     0.0000000     0.0000000     0.0000000
     0.0000000     0.0000000     0.0000000     0.0000000     0.0000000     0.0000000     0.0000000
     0.0000000     0.0000000     0.0000000     0.0000000     0.0000000     0.0000000     0.0000000
     0.0000000     0.0000000     0.0000000     0.0000000     0.0000000     0.0000000     0.0000000
     0.0000000     0.0000000     0.0000000     0.0000000     0.0000000     0.0000000     0.0000000
     0.0000000     0.0000000     0.0000000     0.0000000     0.0000000     0.0000000     0.0000000
     0.0000000     0.0000000     0.0000000     0.0000000     0.0000000     0.0000000     0.0000000

 Ion:   12  E_soc:     -0.0618429
 l=   1
     0.0000000    -0.0085623    -0.0085518
    -0.0085623     0.0000000    -0.0085625
    -0.0085518    -0.0085625     0.0000000
 l=   2
     0.0000000    -0.0004016     0.0000000    -0.0003995    -0.0013521
    -0.0004016     0.0000000    -0.0010654    -0.0002950    -0.0003387
     0.0000000    -0.0010654     0.0000000    -0.0010567     0.0000000
    -0.0003995    -0.0002950    -0.0010567     0.0000000    -0.0003358
    -0.0013521    -0.0003387     0.0000000    -0.0003358     0.0000000
 l=   3
     0.0000000     0.0000000     0.0000000     0.0000000     0.0000000     0.0000000     0.0000000
     0.0000000     0.0000000     0.0000000     0.0000000     0.0000000     0.0000000     0.0000000
     0.0000000     0.0000000     0.0000000     0.0000000     0.0000000     0.0000000     0.0000000
     0.0000000     0.0000000     0.0000000     0.0000000     0.0000000     0.0000000     0.0000000
     0.0000000     0.0000000     0.0000000     0.0000000     0.0000000     0.0000000     0.0000000
     0.0000000     0.0000000     0.0000000     0.0000000     0.0000000     0.0000000     0.0000000
     0.0000000     0.0000000     0.0000000     0.0000000     0.0000000     0.0000000     0.0000000

 Ion:   13  E_soc:     -0.0364269
 l=   1
     0.0000000    -0.0042797    -0.0043112
    -0.0042797     0.0000000    -0.0042789
    -0.0043112    -0.0042789     0.0000000
 l=   2
     0.0000000    -0.0003499     0.0000000    -0.0003512    -0.0008769
    -0.0003499     0.0000000    -0.0013047    -0.0002943    -0.0004271
     0.0000000    -0.0013047     0.0000000    -0.0013097     0.0000000
    -0.0003512    -0.0002943    -0.0013097     0.0000000    -0.0004299
    -0.0008769    -0.0004271     0.0000000    -0.0004299     0.0000000
 l=   3
     0.0000000     0.0000000     0.0000000     0.0000000     0.0000000     0.0000000     0.0000000
     0.0000000     0.0000000     0.0000000     0.0000000     0.0000000     0.0000000     0.0000000
     0.0000000     0.0000000     0.0000000     0.0000000     0.0000000     0.0000000     0.0000000
     0.0000000     0.0000000     0.0000000     0.0000000     0.0000000     0.0000000     0.0000000
     0.0000000     0.0000000     0.0000000     0.0000000     0.0000000     0.0000000     0.0000000
     0.0000000     0.0000000     0.0000000     0.0000000     0.0000000     0.0000000     0.0000000
     0.0000000     0.0000000     0.0000000     0.0000000     0.0000000     0.0000000     0.0000000

 Ion:   14  E_soc:     -0.0364269
 l=   1
     0.0000000    -0.0042797    -0.0043112
    -0.0042797     0.0000000    -0.0042789
    -0.0043112    -0.0042789     0.0000000
 l=   2
     0.0000000    -0.0003499     0.0000000    -0.0003512    -0.0008769
    -0.0003499     0.0000000    -0.0013047    -0.0002943    -0.0004271
     0.0000000    -0.0013047     0.0000000    -0.0013097     0.0000000
    -0.0003512    -0.0002943    -0.0013097     0.0000000    -0.0004299
    -0.0008769    -0.0004271     0.0000000    -0.0004299     0.0000000
 l=   3
     0.0000000     0.0000000     0.0000000     0.0000000     0.0000000     0.0000000     0.0000000
     0.0000000     0.0000000     0.0000000     0.0000000     0.0000000     0.0000000     0.0000000
     0.0000000     0.0000000     0.0000000     0.0000000     0.0000000     0.0000000     0.0000000
     0.0000000     0.0000000     0.0000000     0.0000000     0.0000000     0.0000000     0.0000000
     0.0000000     0.0000000     0.0000000     0.0000000     0.0000000     0.0000000     0.0000000
     0.0000000     0.0000000     0.0000000     0.0000000     0.0000000     0.0000000     0.0000000
     0.0000000     0.0000000     0.0000000     0.0000000     0.0000000     0.0000000     0.0000000

 Ion:   15  E_soc:     -0.0364269
 l=   1
     0.0000000    -0.0042797    -0.0043112
    -0.0042797     0.0000000    -0.0042789
    -0.0043112    -0.0042789     0.0000000
 l=   2
     0.0000000    -0.0003499     0.0000000    -0.0003512    -0.0008769
    -0.0003499     0.0000000    -0.0013047    -0.0002943    -0.0004271
     0.0000000    -0.0013047     0.0000000    -0.0013097     0.0000000
    -0.0003512    -0.0002943    -0.0013097     0.0000000    -0.0004299
    -0.0008769    -0.0004271     0.0000000    -0.0004299     0.0000000
 l=   3
     0.0000000     0.0000000     0.0000000     0.0000000     0.0000000     0.0000000     0.0000000
     0.0000000     0.0000000     0.0000000     0.0000000     0.0000000     0.0000000     0.0000000
     0.0000000     0.0000000     0.0000000     0.0000000     0.0000000     0.0000000     0.0000000
     0.0000000     0.0000000     0.0000000     0.0000000     0.0000000     0.0000000     0.0000000
     0.0000000     0.0000000     0.0000000     0.0000000     0.0000000     0.0000000     0.0000000
     0.0000000     0.0000000     0.0000000     0.0000000     0.0000000     0.0000000     0.0000000
     0.0000000     0.0000000     0.0000000     0.0000000     0.0000000     0.0000000     0.0000000

 Ion:   16  E_soc:     -0.0364269
 l=   1
     0.0000000    -0.0042797    -0.0043112
    -0.0042797     0.0000000    -0.0042789
    -0.0043112    -0.0042789     0.0000000
 l=   2
     0.0000000    -0.0003499     0.0000000    -0.0003512    -0.0008769
    -0.0003499     0.0000000    -0.0013047    -0.0002943    -0.0004271
     0.0000000    -0.0013047     0.0000000    -0.0013097     0.0000000
    -0.0003512    -0.0002943    -0.0013097     0.0000000    -0.0004299
    -0.0008769    -0.0004271     0.0000000    -0.0004299     0.0000000
 l=   3
     0.0000000     0.0000000     0.0000000     0.0000000     0.0000000     0.0000000     0.0000000
     0.0000000     0.0000000     0.0000000     0.0000000     0.0000000     0.0000000     0.0000000
     0.0000000     0.0000000     0.0000000     0.0000000     0.0000000     0.0000000     0.0000000
     0.0000000     0.0000000     0.0000000     0.0000000     0.0000000     0.0000000     0.0000000
     0.0000000     0.0000000     0.0000000     0.0000000     0.0000000     0.0000000     0.0000000
     0.0000000     0.0000000     0.0000000     0.0000000     0.0000000     0.0000000     0.0000000
     0.0000000     0.0000000     0.0000000     0.0000000     0.0000000     0.0000000     0.0000000
 


 total charge     
 
# of ion       s       p       d       tot
------------------------------------------
    1        1.314   2.408   0.000   3.723
    2        1.314   2.408   0.000   3.722
    3        1.315   2.404   0.000   3.720
    4        1.313   2.412   0.000   3.725
    5        1.314   2.408   0.000   3.722
    6        1.314   2.408   0.000   3.723
    7        1.315   2.404   0.000   3.720
    8        1.313   2.412   0.000   3.725
    9        0.259   6.202   8.916  15.378
   10        0.259   6.202   8.916  15.378
   11        0.259   6.202   8.916  15.378
   12        0.259   6.202   8.916  15.378
   13        0.349   6.350   5.823  12.522
   14        0.349   6.350   5.824  12.522
   15        0.349   6.350   5.823  12.522
   16        0.349   6.350   5.824  12.522
--------------------------------------------------
tot         12.945  69.474  58.959 141.377
 


 magnetization (x)
 
# of ion       s       p       d       tot
------------------------------------------
    1       -0.000   0.000   0.000   0.000
    2        0.000  -0.000   0.000  -0.000
    3       -0.000  -0.000   0.000  -0.000
    4       -0.000  -0.000   0.000  -0.000
    5        0.000  -0.000   0.000  -0.000
    6       -0.000   0.000   0.000   0.000
    7       -0.000  -0.000   0.000  -0.000
    8       -0.000  -0.000   0.000  -0.000
    9        0.000  -0.000  -0.000  -0.000
   10        0.000   0.000  -0.000  -0.000
   11        0.000  -0.000  -0.000  -0.000
   12        0.000   0.000  -0.000  -0.000
   13       -0.000   0.000   0.002   0.002
   14       -0.000  -0.000  -0.002  -0.002
   15       -0.000   0.000   0.002   0.002
   16       -0.000  -0.000  -0.002  -0.002
--------------------------------------------------
tot         -0.000  -0.000  -0.000  -0.001
 


 magnetization (y)
 
# of ion       s       p       d       tot
------------------------------------------
    1        0.000  -0.000   0.000  -0.000
    2        0.000  -0.000   0.000  -0.000
    3       -0.000   0.000   0.000   0.000
    4        0.000  -0.000   0.000   0.000
    5        0.000  -0.000   0.000  -0.000
    6        0.000  -0.000   0.000  -0.000
    7       -0.000   0.000   0.000   0.000
    8        0.000  -0.000   0.000   0.000
    9       -0.000   0.000  -0.000  -0.000
   10       -0.000   0.000   0.000   0.000
   11       -0.000   0.000  -0.000  -0.000
   12       -0.000   0.000   0.000   0.000
   13       -0.000  -0.000  -0.002  -0.002
   14       -0.000  -0.000  -0.002  -0.002
   15       -0.000  -0.000  -0.002  -0.002
   16       -0.000  -0.000  -0.002  -0.002
--------------------------------------------------
tot         -0.000  -0.000  -0.007  -0.007
 


 magnetization (z)
 
# of ion       s       p       d       tot
------------------------------------------
    1       -0.000  -0.018   0.000  -0.018
    2        0.000   0.018   0.000   0.018
    3        0.000   0.000   0.000   0.000
    4       -0.000  -0.000   0.000  -0.000
    5        0.000   0.018   0.000   0.018
    6       -0.000  -0.018   0.000  -0.018
    7        0.000   0.000   0.000   0.000
    8       -0.000  -0.000   0.000  -0.000
    9        0.000   0.001  -0.002  -0.001
   10       -0.000  -0.001   0.002   0.001
   11        0.000   0.001  -0.002  -0.001
   12       -0.000  -0.001   0.002   0.001
   13        0.020   0.054   3.663   3.737
   14       -0.020  -0.054  -3.663  -3.737
   15        0.020   0.054   3.663   3.737
   16       -0.020  -0.054  -3.663  -3.737
--------------------------------------------------
tot         -0.000  -0.000   0.000   0.000
 
 BZINTS: Fermi energy:  4.875771;172.000000 electrons
         Band energy:***********;  BLOECHL correction:  0.000000
 BZINTS: Fermi energy:  4.875771;172.000000 electrons
         Band energy:***********;  BLOECHL correction:  0.000000
 BZINTS: Fermi energy:  4.875771;172.000000 electrons
         Band energy:***********;  BLOECHL correction:  0.000000
 BZINTS: Fermi energy:  4.875771;172.000000 electrons
         Band energy:***********;  BLOECHL correction:  0.000000

 total amount of memory used by VASP MPI-rank0   410429. kBytes
=======================================================================

   base      :      30000. kBytes
   nonl-proj :     321650. kBytes
   fftplans  :       2735. kBytes
   grid      :      30965. kBytes
   one-center:        995. kBytes
   wavefun   :      24084. kBytes
 
  
  
 General timing and accounting informations for this job:
 ========================================================
  
                  Total CPU time used (sec):    20887.535
                            User time (sec):    20872.833
                          System time (sec):       14.702
                         Elapsed time (sec):    21233.435
  
                   Maximum memory used (kb):      862380.
                   Average memory used (kb):           0.
  
                          Minor page faults:      3479661
                          Major page faults:         5656
                 Voluntary context switches:         7389
