       N       E                     dE             d eps       ncg     rms          rms(c)
DAV:   1    -0.298390001767E+03   -0.29839E+03   -0.17739E+03 18944   0.243E+02    0.417E+01
DAV:   2    -0.327818776358E+03   -0.29429E+02   -0.29509E+02 14080   0.273E+01    0.170E+01
DAV:   3    -0.328136532463E+03   -0.31776E+00   -0.54519E+00 18432   0.509E+00    0.128E+01
DAV:   4    -0.328115109485E+03    0.21423E-01   -0.71364E-01 15104   0.235E+00    0.106E+01
DAV:   5    -0.328115267717E+03   -0.15823E-03   -0.44945E-02 14592   0.623E-01    0.916E+00
DAV:   6    -0.328114885247E+03    0.38247E-03   -0.40523E-03 15872   0.166E-01    0.730E+00
DAV:   7    -0.328112547875E+03    0.23374E-02   -0.77489E-03 16384   0.268E-01    0.155E+00
DAV:   8    -0.328112559243E+03   -0.11368E-04   -0.35573E-04 13824   0.420E-02    0.982E-01
DAV:   9    -0.328112546712E+03    0.12531E-04   -0.17566E-05 19200   0.918E-03    0.902E-01
DAV:  10    -0.328112493755E+03    0.52957E-04   -0.37826E-04 14848   0.440E-02    0.410E-02
DAV:  11    -0.328112494787E+03   -0.10315E-05   -0.10632E-05 14080   0.546E-03    0.931E-03
DAV:  12    -0.328112495153E+03   -0.36566E-06   -0.78969E-07 19456   0.177E-03    0.303E-02
DAV:  13    -0.328112495672E+03   -0.51902E-06   -0.84687E-07 14336   0.137E-03    0.397E-02
DAV:  14    -0.328112496075E+03   -0.40355E-06   -0.12697E-07 15872   0.873E-04    0.137E-02
DAV:  15    -0.328112496261E+03   -0.18625E-06   -0.73158E-08 12544   0.321E-04    0.671E-03
DAV:  16    -0.328112496331E+03   -0.70024E-07   -0.56397E-08 14592   0.301E-04    0.230E-03
DAV:  17    -0.328112496343E+03   -0.11278E-07   -0.44244E-09 10752   0.128E-04    0.303E-04
DAV:  18    -0.328112496350E+03   -0.71450E-08   -0.21911E-09 10240   0.700E-05
   1 F= -.32811250E+03 E0= -.32811250E+03  d E =-.553592E-36  mag=    -0.0000
