 vasp.5.4.4.18Apr17-6-g9f103f2a35 (build Oct 30 2023 17:30:16) complex          
  
 executed on             LinuxIFC date 2024.06.29  00:26:11
 running on  256 total cores
 distrk:  each k-point on  256 cores,    1 groups
 distr:  one band on NCORES_PER_BAND=   1 cores,  256 groups


--------------------------------------------------------------------------------------------------------


 INCAR:
 POTCAR:    PAW_PBE S 06Sep2000                   
 POTCAR:     PAW_PBE Cu_pv 06Sep2000              
 POTCAR:     PAW_PBE Fe_pv 02Aug2007              

 ----------------------------------------------------------------------------- 
|                                                                             |
|           W    W    AA    RRRRR   N    N  II  N    N   GGGG   !!!           |
|           W    W   A  A   R    R  NN   N  II  NN   N  G    G  !!!           |
|           W    W  A    A  R    R  N N  N  II  N N  N  G       !!!           |
|           W WW W  AAAAAA  RRRRR   N  N N  II  N  N N  G  GGG   !            |
|           WW  WW  A    A  R   R   N   NN  II  N   NN  G    G                |
|           W    W  A    A  R    R  N    N  II  N    N   GGGG   !!!           |
|                                                                             |
|      For optimal performance we recommend to set                            |
|        NCORE= 4 - approx SQRT( number of cores)                             |
|      NCORE specifies how many cores store one orbital (NPAR=cpu/NCORE).     |
|      This setting can  greatly improve the performance of VASP for DFT.     |
|      The default,   NCORE=1            might be grossly inefficient         |
|      on modern multi-core architectures or massively parallel machines.     |
|      Do your own testing !!!!                                               |
|      Unfortunately you need to use the default for GW and RPA calculations. |
|      (for HF NCORE is supported but not extensively tested yet)             |
|                                                                             |
 ----------------------------------------------------------------------------- 

 POTCAR:    PAW_PBE S 06Sep2000                   
   SHA256 =  0fc7481fb0695f01bdc6462160264c5c84044ae9ec85a907d398b887a2bc3132 S/
   COPYR  = (c) Copyright 06Sep2000 Georg Kresse                                
   COPYR  = This file is part of the software VASP. Any use, copying, and all ot
   COPYR  = If you do not have a valid VASP license, you may not use, copy or di
   VRHFIN =S : s2p4                                                             
   LEXCH  = PE                                                                  
   EATOM  =   276.8230 eV,   20.3459 Ry                                         
                                                                                
   TITEL  = PAW_PBE S 06Sep2000                                                 
   LULTRA =        F    use ultrasoft PP ?                                      
   IUNSCR =        1    unscreen: 0-lin 1-nonlin 2-no                           
   RPACOR =    1.500    partial core radius                                     
   POMASS =   32.066; ZVAL   =    6.000    mass and valenz                      
   RCORE  =    1.900    outmost cutoff radius                                   
   RWIGS  =    2.200; RWIGS  =    1.164    wigner-seitz radius (au A)           
   ENMAX  =  258.689; ENMIN  =  194.016 eV                                      
   ICORE  =        2    local potential                                         
   LCOR   =        T    correct aug charges                                     
   LPAW   =        T    paw PP                                                  
   EAUG   =  335.092                                                            
   DEXC   =    0.000                                                            
   RMAX   =    1.942    core radius for proj-oper                               
   RAUG   =    1.300    factor for augmentation sphere                          
   RDEP   =    1.954    radius for radial grids                                 
   RDEPT  =    1.744    core radius for aug-charge                              
                                                                                
   Atomic configuration                                                         
    6 entries                                                                   
     n  l   j            E        occ.                                          
     1  0  0.50     -2405.8406   2.0000                                         
     2  0  0.50      -211.7007   2.0000                                         
     2  1  1.50      -156.4958   6.0000                                         
     3  0  0.50       -17.2562   2.0000                                         
     3  1  0.50        -7.0085   4.0000                                         
     3  2  1.50        -6.8029   0.0000                                         
   Description                                                                  
     l       E           TYP  RCUT    TYP  RCUT                                 
     0    -17.2561641     23  1.900                                             
     0    -15.8743224     23  1.900                                             
     1     -7.0085400     23  1.900                                             
     1     -2.7779785     23  1.900                                             
     2     -6.8029130     23  1.900                                             
  local pseudopotential read in
  partial core-charges read in
  partial kinetic energy density read in
  atomic valenz-charges read in
  non local Contribution for L=           0  read in
    real space projection operators read in
  non local Contribution for L=           0  read in
    real space projection operators read in
  non local Contribution for L=           1  read in
    real space projection operators read in
  non local Contribution for L=           1  read in
    real space projection operators read in
    PAW grid and wavefunctions read in
 
   number of l-projection  operators is LMAX  =           4
   number of lm-projection operators is LMMAX =           8
 
 POTCAR:     PAW_PBE Cu_pv 06Sep2000              
   SHA256 =  cb7b504e2ea725fe1f25c85a9ac77d4012ce94cd394135b722c4e25ec297f1cb Cu
   COPYR  = (c) Copyright 06Sep2000 Georg Kresse                                
   COPYR  = This file is part of the software VASP. Any use, copying, and all ot
   COPYR  = If you do not have a valid VASP license, you may not use, copy or di
   VRHFIN =Cu: d10 p1                                                           
   LEXCH  = PE                                                                  
   EATOM  =  4120.1201 eV,  302.8203 Ry                                         
                                                                                
   TITEL  = PAW_PBE Cu_pv 06Sep2000                                             
   LULTRA =        F    use ultrasoft PP ?                                      
   IUNSCR =        1    unscreen: 0-lin 1-nonlin 2-no                           
   RPACOR =    1.500    partial core radius                                     
   POMASS =   63.546; ZVAL   =   17.000    mass and valenz                      
   RCORE  =    2.000    outmost cutoff radius                                   
   RWIGS  =    2.000; RWIGS  =    1.058    wigner-seitz radius (au A)           
   ENMAX  =  368.648; ENMIN  =  276.486 eV                                      
   RCLOC  =    1.304    cutoff for local pot                                    
   LCOR   =        T    correct aug charges                                     
   LPAW   =        T    paw PP                                                  
   EAUG   =  758.233                                                            
   DEXC   =    0.000                                                            
   RMAX   =    2.046    core radius for proj-oper                               
   RAUG   =    1.300    factor for augmentation sphere                          
   RDEP   =    2.025    radius for radial grids                                 
   RDEPT  =    1.558    core radius for aug-charge                              
                                                                                
   Atomic configuration                                                         
    8 entries                                                                   
     n  l   j            E        occ.                                          
     1  0  0.50     -8850.2467   2.0000                                         
     2  0  0.50     -1062.3498   2.0000                                         
     2  1  1.50      -916.8226   6.0000                                         
     3  0  0.50      -114.6929   2.0000                                         
     3  1  1.50       -72.1325   6.0000                                         
     3  2  2.50        -5.0394  10.0000                                         
     4  0  0.50        -4.6097   1.0000                                         
     4  3  2.50        -1.3606   0.0000                                         
   Description                                                                  
     l       E           TYP  RCUT    TYP  RCUT                                 
     1    -72.1324777     23  1.700                                             
     1     -1.3605826     23  1.700                                             
     2     -5.0393776     23  2.000                                             
     2     -6.3999602     23  2.000                                             
     0     -4.6097062     23  1.800                                             
     0     14.1620818     23  1.800                                             
  local pseudopotential read in
  partial core-charges read in
  partial kinetic energy density read in
  atomic valenz-charges read in
  non local Contribution for L=           1  read in
    real space projection operators read in
  non local Contribution for L=           1  read in
    real space projection operators read in
  non local Contribution for L=           2  read in
    real space projection operators read in
  non local Contribution for L=           2  read in
    real space projection operators read in
  non local Contribution for L=           0  read in
    real space projection operators read in
  non local Contribution for L=           0  read in
    real space projection operators read in
    PAW grid and wavefunctions read in
 
   number of l-projection  operators is LMAX  =           6
   number of lm-projection operators is LMMAX =          18
 
 POTCAR:     PAW_PBE Fe_pv 02Aug2007              
   SHA256 =  5d22e414b1f82158bf2c7ecb8b97b28fd0923e48cadc1c3bf74d524558f5dd32 Fe
   COPYR  = (c) Copyright 02Aug2007 Georg Kresse                                
   COPYR  = This file is part of the software VASP. Any use, copying, and all ot
   COPYR  = If you do not have a valid VASP license, you may not use, copy or di
   VRHFIN =Fe:  3pd7s1                                                          
   LEXCH  = PE                                                                  
   EATOM  =  2457.4239 eV,  180.6156 Ry                                         
                                                                                
   TITEL  = PAW_PBE Fe_pv 02Aug2007                                             
   LULTRA =        F    use ultrasoft PP ?                                      
   IUNSCR =        1    unscreen: 0-lin 1-nonlin 2-no                           
   RPACOR =    1.750    partial core radius                                     
   POMASS =   55.847; ZVAL   =   14.000    mass and valenz                      
   RCORE  =    2.200    outmost cutoff radius                                   
   RWIGS  =    2.200; RWIGS  =    1.164    wigner-seitz radius (au A)           
   ENMAX  =  293.238; ENMIN  =  219.928 eV                                      
   ICORE  =        3    local potential                                         
   LCOR   =        T    correct aug charges                                     
   LPAW   =        T    paw PP                                                  
   EAUG   =  578.342                                                            
   DEXC   =    0.000                                                            
   RMAX   =    2.249    core radius for proj-oper                               
   RAUG   =    1.300    factor for augmentation sphere                          
   RDEP   =    2.296    radius for radial grids                                 
   RDEPT  =    1.766    core radius for aug-charge                              
                                                                                
   Atomic configuration                                                         
    8 entries                                                                   
     n  l   j            E        occ.                                          
     1  0  0.50     -6993.8440   2.0000                                         
     2  0  0.50      -814.6047   2.0000                                         
     2  1  1.50      -693.3689   6.0000                                         
     3  0  0.50       -89.4732   2.0000                                         
     3  1  1.50       -55.6373   6.0000                                         
     3  2  2.50        -3.8151   7.0000                                         
     4  0  0.50        -4.2551   1.0000                                         
     4  3  2.50        -1.3606   0.0000                                         
   Description                                                                  
     l       E           TYP  RCUT    TYP  RCUT                                 
     1    -55.6372668     23  2.000                                             
     1     -5.4423304     23  2.000                                             
     2     -3.8151096     23  2.200                                             
     2     -5.1756922     23  2.200                                             
     0     -4.2550951     23  2.200                                             
     0     27.2116520     23  2.200                                             
     3     -1.3605826     23  2.200                                             
  local pseudopotential read in
  partial core-charges read in
  partial kinetic energy density read in
  atomic valenz-charges read in
  non local Contribution for L=           1  read in
    real space projection operators read in
  non local Contribution for L=           1  read in
    real space projection operators read in
  non local Contribution for L=           2  read in
    real space projection operators read in
  non local Contribution for L=           2  read in
    real space projection operators read in
  non local Contribution for L=           0  read in
    real space projection operators read in
  non local Contribution for L=           0  read in
    real space projection operators read in
    PAW grid and wavefunctions read in
 
   number of l-projection  operators is LMAX  =           6
   number of lm-projection operators is LMMAX =          18
 

 ----------------------------------------------------------------------------- 
|                                                                             |
|  ADVICE TO THIS USER RUNNING 'VASP/VAMP'   (HEAR YOUR MASTER'S VOICE ...):  |
|                                                                             |
|      You have a (more or less) 'large supercell' and for larger cells       |
|      it might be more efficient to use real space projection opertators     |
|      So try LREAL= Auto  in the INCAR   file.                               |
|      Mind:          For very  accurate calculation you might also keep the  |
|      reciprocal projection scheme          (i.e. LREAL=.FALSE.)             |
|                                                                             |
 ----------------------------------------------------------------------------- 


 ----------------------------------------------------------------------------- 
|                                                                             |
|  ADVICE TO THIS USER RUNNING 'VASP/VAMP'   (HEAR YOUR MASTER'S VOICE ...):  |
|                                                                             |
|      You enforced a specific xc-type in the INCAR file,                     |
|      a different type was found on the POTCAR file                          |
|          I HOPE YOU KNOW, WHAT YOU ARE  DOING                               |
|                                                                             |
 ----------------------------------------------------------------------------- 

  PAW_PBE S 06Sep2000                   :
 energy of atom  1       EATOM= -276.8230
 kinetic energy error for atom=    0.0007 (will be added to EATOM!!)
   PAW_PBE Cu_pv 06Sep2000              :
 energy of atom  2       EATOM=-4120.1201
 kinetic energy error for atom=    0.0094 (will be added to EATOM!!)
   PAW_PBE Fe_pv 02Aug2007              :
 energy of atom  3       EATOM=-2457.4239
 kinetic energy error for atom=    0.0025 (will be added to EATOM!!)
 
 
 POSCAR: Fe16 Cu16 S32                           
  positions in direct lattice
  No initial velocities read in
 exchange correlation table for  LEXCH =       14
   RHO(1)=    0.500       N(1)  =     2000
   RHO(2)=  100.500       N(2)  =     4000
 


--------------------------------------------------------------------------------------------------------


 ion  position               nearest neighbor table
   1  0.126  0.125  0.123-  37 2.26  41 2.27  61 2.27  49 2.28
   2  0.626  0.125  0.123-  38 2.26  42 2.27  62 2.27  50 2.28
   3  0.126  0.625  0.123-  39 2.26  43 2.27  63 2.27  51 2.28
   4  0.626  0.625  0.123-  40 2.26  44 2.27  64 2.27  52 2.28
   5  0.374  0.375  0.123-  39 2.26  41 2.27  62 2.27  52 2.28
   6  0.874  0.375  0.123-  40 2.26  42 2.27  61 2.27  51 2.28
   7  0.374  0.875  0.123-  37 2.26  43 2.27  64 2.27  50 2.28
   8  0.874  0.875  0.123-  38 2.26  44 2.27  63 2.27  49 2.28
   9  0.125  0.374  0.873-  41 2.26  45 2.27  51 2.27  55 2.28
  10  0.625  0.374  0.873-  42 2.26  46 2.27  52 2.27  56 2.28
  11  0.125  0.874  0.873-  43 2.26  47 2.27  49 2.27  53 2.28
  12  0.625  0.874  0.873-  44 2.26  48 2.27  50 2.27  54 2.28
  13  0.375  0.126  0.873-  41 2.26  46 2.27  50 2.27  53 2.28
  14  0.875  0.126  0.873-  42 2.26  45 2.27  49 2.27  54 2.28
  15  0.375  0.626  0.873-  43 2.26  48 2.27  52 2.27  55 2.28
  16  0.875  0.626  0.873-  44 2.26  47 2.27  51 2.27  56 2.28
  17  0.124  0.125  0.623-  45 2.26  33 2.27  53 2.27  57 2.28
  18  0.624  0.125  0.623-  46 2.26  34 2.27  54 2.27  58 2.28
  19  0.124  0.625  0.623-  47 2.26  35 2.27  55 2.27  59 2.28
  20  0.624  0.625  0.623-  48 2.26  36 2.27  56 2.27  60 2.28
  21  0.376  0.375  0.623-  46 2.26  36 2.27  55 2.27  57 2.28
  22  0.876  0.375  0.623-  45 2.26  35 2.27  56 2.27  58 2.28
  23  0.376  0.875  0.623-  48 2.26  34 2.27  53 2.27  59 2.28
  24  0.876  0.875  0.623-  47 2.26  33 2.27  54 2.27  60 2.28
  25  0.375  0.124  0.373-  34 2.26  37 2.27  57 2.27  62 2.28
  26  0.875  0.124  0.373-  33 2.26  38 2.27  58 2.27  61 2.28
  27  0.375  0.624  0.373-  36 2.26  39 2.27  59 2.27  64 2.28
  28  0.875  0.624  0.373-  35 2.26  40 2.27  60 2.27  63 2.28
  29  0.125  0.376  0.373-  35 2.26  39 2.27  57 2.27  61 2.28
  30  0.625  0.376  0.373-  36 2.26  40 2.27  58 2.27  62 2.28
  31  0.125  0.876  0.373-  33 2.26  37 2.27  59 2.27  63 2.28
  32  0.625  0.876  0.373-  34 2.26  38 2.27  60 2.27  64 2.28
  33  0.000  0.000  0.502-  26 2.26  31 2.26  17 2.27  24 2.27
  34  0.500  0.000  0.502-  25 2.26  32 2.26  18 2.27  23 2.27
  35  0.000  0.500  0.502-  28 2.26  29 2.26  19 2.27  22 2.27
  36  0.500  0.500  0.502-  27 2.26  30 2.26  20 2.27  21 2.27
  37  0.250  0.000  0.252-   1 2.26   7 2.26  25 2.27  31 2.27
  38  0.750  0.000  0.252-   2 2.26   8 2.26  26 2.27  32 2.27
  39  0.250  0.500  0.252-   3 2.26   5 2.26  27 2.27  29 2.27
  40  0.750  0.500  0.252-   4 2.26   6 2.26  28 2.27  30 2.27
  41  0.250  0.250  0.002-   9 2.26  13 2.26   1 2.27   5 2.27
  42  0.750  0.250  0.002-  10 2.26  14 2.26   2 2.27   6 2.27
  43  0.250  0.750  0.002-  11 2.26  15 2.26   3 2.27   7 2.27
  44  0.750  0.750  0.002-  12 2.26  16 2.26   4 2.27   8 2.27
  45  0.000  0.250  0.752-  17 2.26  22 2.26   9 2.27  14 2.27
  46  0.500  0.250  0.752-  18 2.26  21 2.26  10 2.27  13 2.27
  47  0.000  0.750  0.752-  19 2.26  24 2.26  11 2.27  16 2.27
  48  0.500  0.750  0.752-  20 2.26  23 2.26  12 2.27  15 2.27
  49  0.000  0.000  0.002-  11 2.27  14 2.27   1 2.28   8 2.28
  50  0.500  0.000  0.002-  12 2.27  13 2.27   2 2.28   7 2.28
  51  0.000  0.500  0.002-   9 2.27  16 2.27   3 2.28   6 2.28
  52  0.500  0.500  0.002-  10 2.27  15 2.27   4 2.28   5 2.28
  53  0.250  0.000  0.752-  17 2.27  23 2.27  11 2.28  13 2.28
  54  0.750  0.000  0.752-  18 2.27  24 2.27  12 2.28  14 2.28
  55  0.250  0.500  0.752-  19 2.27  21 2.27   9 2.28  15 2.28
  56  0.750  0.500  0.752-  20 2.27  22 2.27  10 2.28  16 2.28
  57  0.250  0.250  0.502-  25 2.27  29 2.27  17 2.28  21 2.28
  58  0.750  0.250  0.502-  26 2.27  30 2.27  18 2.28  22 2.28
  59  0.250  0.750  0.502-  27 2.27  31 2.27  19 2.28  23 2.28
  60  0.750  0.750  0.502-  28 2.27  32 2.27  20 2.28  24 2.28
  61  0.000  0.250  0.252-   1 2.27   6 2.27  26 2.28  29 2.28
  62  0.500  0.250  0.252-   2 2.27   5 2.27  25 2.28  30 2.28
  63  0.000  0.750  0.252-   3 2.27   8 2.27  28 2.28  31 2.28
  64  0.500  0.750  0.252-   4 2.27   7 2.27  27 2.28  32 2.28
 
  LATTYP: Found a base centered orthorhombic cell.
 ALAT       =    14.5876991629
 B/A-ratio  =     1.0373182476
 C/A-ratio  =     0.7144045736
  
  Lattice vectors:
  
 A1 = (  10.5075310000,   0.1924700000,   0.0000000000)
 A2 = (  -0.1924700000, -10.5075310000,   0.0000000000)
 A3 = (   0.0000000000,   0.0000000000, -10.4215190000)


Analysis of symmetry for initial positions (statically):
=====================================================================
 Subroutine PRICEL returns following result:
 
  LATTYP: Found a face centered orthorhombic cell.
 ALAT       =     7.2938495815
 B/A-ratio  =     1.0373182476
 C/A-ratio  =     1.4288091472
  
  Lattice vectors:
  
 A1 = (  -2.6750002500,  -2.6750002500,   5.2107595000)
 A2 = (  -2.5787652500,   2.5787652500,   5.2107595000)
 A3 = (  -5.2537655000,  -0.0962350000,   0.0000000000)
 
   8 primitive cells build up your supercell.
 

 Routine SETGRP: Setting up the symmetry group for a 
 base centered orthorhombic supercell.


 Subroutine GETGRP returns: Found  4 space group operations
 (whereof  2 operations were pure point group operations)
 out of a pool of  8 trial point group operations.


The static configuration has the point symmetry C_2 .
 The point group associated with its full space group is C_2v.


Analysis of symmetry for dynamics (positions and initial velocities):
=====================================================================
 Subroutine PRICEL returns following result:
 
  LATTYP: Found a face centered orthorhombic cell.
 ALAT       =     7.2938495815
 B/A-ratio  =     1.0373182476
 C/A-ratio  =     1.4288091472
  
  Lattice vectors:
  
 A1 = (  -2.6750002500,  -2.6750002500,   5.2107595000)
 A2 = (  -2.5787652500,   2.5787652500,   5.2107595000)
 A3 = (  -5.2537655000,  -0.0962350000,   0.0000000000)
 
   8 primitive cells build up your supercell.
 

 Routine SETGRP: Setting up the symmetry group for a 
 base centered orthorhombic supercell.


 Subroutine GETGRP returns: Found  4 space group operations
 (whereof  2 operations were pure point group operations)
 out of a pool of  8 trial point group operations.


The dynamic configuration has the point symmetry C_2 .
 The point group associated with its full space group is C_2v.


Analysis of structural, dynamic, and magnetic symmetry:
=====================================================================
 Subroutine PRICEL returns following result:
 
  LATTYP: Found a face centered orthorhombic cell.
 ALAT       =     7.2938495815
 B/A-ratio  =     1.0373182476
 C/A-ratio  =     1.4288091472
  
  Lattice vectors:
  
 A1 = (  -2.6750002500,  -2.6750002500,   5.2107595000)
 A2 = (  -2.5787652500,   2.5787652500,   5.2107595000)
 A3 = (  -5.2537655000,  -0.0962350000,   0.0000000000)
 
   8 primitive cells build up your supercell.
 

 Routine SETGRP: Setting up the symmetry group for a 
 base centered orthorhombic supercell.


 Subroutine GETGRP returns: Found  4 space group operations
 (whereof  2 operations were pure point group operations)
 out of a pool of  8 trial point group operations.


The magnetic configuration has the point symmetry C_2 .
 The point group associated with its full space group is C_2v.


 Subroutine INISYM returns: Found  4 space group operations
 (whereof  2 operations are pure point group operations),
 and found     8 'primitive' translations

 
 
 KPOINTS: Automatic mesh                          

Automatic generation of k-mesh.
Space group operators:
 irot       det(A)        alpha          n_x          n_y          n_z        tau_x        tau_y        tau_z
    1     1.000000     0.000000     1.000000     0.000000     0.000000     0.000000     0.000000     0.000000
    2     1.000000   180.000000     0.000000     0.000000     1.000000     0.000000     0.000000     0.000000
    3    -1.000000   180.000000     0.707107     0.707107     0.000000    -0.750000    -0.000000     0.750000
    4    -1.000000   180.000000     0.707107    -0.707107     0.000000    -0.750000    -0.000000     0.750000
 
 Subroutine IBZKPT returns following result:
 ===========================================
 
 Found      6 irreducible k-points:
 
 Following reciprocal coordinates:
            Coordinates               Weight
  0.000000  0.000000  0.000000      1.000000
  0.500000 -0.000000  0.000000      2.000000
  0.500000  0.500000  0.000000      1.000000
  0.000000  0.000000  0.500000      1.000000
  0.500000 -0.000000  0.500000      2.000000
  0.500000  0.500000  0.500000      1.000000
 
 Following cartesian coordinates:
            Coordinates               Weight
  0.000000  0.000000  0.000000      1.000000
  0.047601 -0.000872  0.000000      2.000000
  0.046729  0.046729  0.000000      1.000000
  0.000000  0.000000  0.047978      1.000000
  0.047601 -0.000872  0.047978      2.000000
  0.046729  0.046729  0.047978      1.000000
 
 TETIRR: Found     12 inequivalent tetrahedra from       48
 
 Subroutine IBZKPT_HF returns following result:
 ==============================================
 
 Found      8 k-points in 1st BZ
 the following      8 k-points will be used (e.g. in the exchange kernel)
 Following reciprocal coordinates:   # in IRBZ
  0.000000  0.000000  0.000000    0.12500000   1 t-inv F
  0.500000 -0.000000  0.000000    0.12500000   2 t-inv F
  0.500000  0.500000  0.000000    0.12500000   3 t-inv F
  0.000000  0.000000  0.500000    0.12500000   4 t-inv F
  0.500000 -0.000000  0.500000    0.12500000   5 t-inv F
  0.500000  0.500000  0.500000    0.12500000   6 t-inv F
  0.000000 -0.500000  0.000000    0.12500000   2 t-inv F spinflp
  0.000000 -0.500000  0.500000    0.12500000   5 t-inv F spinflp


--------------------------------------------------------------------------------------------------------




 Dimension of arrays:
   k-points           NKPTS =      6   k-points in BZ     NKDIM =      6   number of bands    NBANDS=    512
   number of dos      NEDOS =    301   number of ions     NIONS =     64
   non local maximal  LDIM  =      6   non local SUM 2l+1 LMDIM =     18
   total plane-waves  NPLWV = 829440
   max r-space proj   IRMAX =      1   max aug-charges    IRDMAX=  22915
   dimension x,y,z NGX =    96 NGY =   96 NGZ =   90
   dimension x,y,z NGXF=   192 NGYF=  192 NGZF=  180
   support grid    NGXF=   192 NGYF=  192 NGZF=  180
   ions per type =              32  16  16
   NGX,Y,Z   is equivalent  to a cutoff of  15.19, 15.19, 14.36 a.u.
   NGXF,Y,Z  is equivalent  to a cutoff of  30.37, 30.37, 28.71 a.u.

 SYSTEM =  CuFeS2                                  
 POSCAR =  Fe16 Cu16 S32                           

 Startparameter for this run:
   NWRITE =      2    write-flag & timer
   PREC   = accura    normal or accurate (medium, high low for compatibility)
   ISTART =      1    job   : 0-new  1-cont  2-samecut
   ICHARG =      1    charge: 1-file 2-atom 10-const
   ISPIN  =      2    spin polarized calculation?
   LNONCOLLINEAR =      F non collinear calculations
   LSORBIT =      F    spin-orbit coupling
   INIWAV =      1    electr: 0-lowe 1-rand  2-diag
   LASPH  =      F    aspherical Exc in radial PAW
   METAGGA=      F    non-selfconsistent MetaGGA calc.

 Electronic Relaxation 1
   ENCUT  =  700.0 eV  51.45 Ry    7.17 a.u.  22.67 22.67 22.48*2*pi/ulx,y,z
   ENINI  =  700.0     initial cutoff
   ENAUG  =  758.2 eV  augmentation charge cutoff
   NELM   =    500;   NELMIN=  2; NELMDL=  0     # of ELM steps 
   EDIFF  = 0.1E-07   stopping-criterion for ELM
   LREAL  =      F    real-space projection
   NLSPLINE    = F    spline interpolate recip. space projectors
   LCOMPAT=      F    compatible to vasp.4.4
   GGA_COMPAT  = T    GGA compatible to vasp.4.4-vasp.4.6
   LMAXPAW     = -100 max onsite density
   LMAXMIX     =    4 max onsite mixed and CHGCAR
   VOSKOWN=      0    Vosko Wilk Nusair interpolation
   ROPT   =    0.00000   0.00000   0.00000
 Ionic relaxation
   EDIFFG = -.1E-04   stopping-criterion for IOM
   NSW    =      0    number of steps for IOM
   NBLOCK =      1;   KBLOCK =      1    inner block; outer block 
   IBRION =     -1    ionic relax: 0-MD 1-quasi-New 2-CG
   NFREE  =      0    steps in history (QN), initial steepest desc. (CG)
   ISIF   =      2    stress and relaxation
   IWAVPR =     10    prediction:  0-non 1-charg 2-wave 3-comb
   ISYM   =      2    0-nonsym 1-usesym 2-fastsym
   LCORR  =      T    Harris-Foulkes like correction to forces

   POTIM  = 0.5000    time-step for ionic-motion
   TEIN   =    0.0    initial temperature
   TEBEG  =    0.0;   TEEND  =   0.0 temperature during run
   SMASS  =  -3.00    Nose mass-parameter (am)
   estimated Nose-frequenzy (Omega)   =  0.10E-29 period in steps =****** mass=  -0.252E-26a.u.
   SCALEE = 1.0000    scale energy and forces
   NPACO  =    256;   APACO  = 16.0  distance and # of slots for P.C.
   PSTRESS=    0.0 pullay stress

  Mass of Ions in am
   POMASS =  32.07 63.55 55.85
  Ionic Valenz
   ZVAL   =   6.00 17.00 14.00
  Atomic Wigner-Seitz radii
   RWIGS  =  -1.00 -1.00 -1.00
  virtual crystal weights 
   VCA    =   1.00  1.00  1.00
   NELECT =     688.0000    total number of electrons
   NUPDOWN=      -1.0000    fix difference up-down

 DOS related values:
   EMIN   =  10.00;   EMAX   =-10.00  energy-range for DOS
   EFERMI =   0.00
   ISMEAR =    -5;   SIGMA  =   0.03  broadening in eV -4-tet -1-fermi 0-gaus

 Electronic relaxation 2 (details)
   IALGO  =     38    algorithm
   LDIAG  =      T    sub-space diagonalisation (order eigenvalues)
   LSUBROT=      F    optimize rotation matrix (better conditioning)
   TURBO    =      0    0=normal 1=particle mesh
   IRESTART =      0    0=no restart 2=restart with 2 vectors
   NREBOOT  =      0    no. of reboots
   NMIN     =      0    reboot dimension
   EREF     =   0.00    reference energy to select bands
   IMIX   =      4    mixing-type and parameters
     AMIX     =   0.40;   BMIX     =  1.00
     AMIX_MAG =   1.60;   BMIX_MAG =  1.00
     AMIN     =   0.10
     WC   =   100.;   INIMIX=   1;  MIXPRE=   1;  MAXMIX= -45

 Intra band minimization:
   WEIMIN = 0.0000     energy-eigenvalue tresh-hold
   EBREAK =  0.49E-11  absolut break condition
   DEPER  =   0.30     relativ break condition  

   TIME   =   0.40     timestep for ELM

  volume/ion in A,a.u.               =      17.97       121.28
  Fermi-wavevector in a.u.,A,eV,Ry     =   1.379353  2.606599 25.886645  1.902615
  Thomas-Fermi vector in A             =   2.504330
 
 Write flags
   LWAVE        =      T    write WAVECAR
   LDOWNSAMPLE  =      F    k-point downsampling of WAVECAR
   LCHARG       =      T    write CHGCAR
   LVTOT        =      F    write LOCPOT, total local potential
   LVHAR        =      F    write LOCPOT, Hartree potential only
   LELF         =      F    write electronic localiz. function (ELF)
   LORBIT       =     11    0 simple, 1 ext, 2 COOP (PROOUT), +10 PAW based schemes


 Dipole corrections
   LMONO  =      F    monopole corrections only (constant potential shift)
   LDIPOL =      F    correct potential (dipole corrections)
   IDIPOL =      0    1-x, 2-y, 3-z, 4-all directions 
   EPSILON=  1.0000000 bulk dielectric constant

 LDA+U is selected, type is set to LDAUTYPE =  2
   angular momentum for each species LDAUL =     2    2    2
   U (eV)           for each species LDAUU =   0.0  0.1  4.7
   J (eV)           for each species LDAUJ =   0.0  0.0  0.0
 Exchange correlation treatment:
   GGA     =    PS    GGA type
   LEXCH   =    14    internal setting for exchange type
   VOSKOWN=      0    Vosko Wilk Nusair interpolation
   LHFCALC =     F    Hartree Fock is set to
   LHFONE  =     F    Hartree Fock one center treatment
   AEXX    =    0.0000 exact exchange contribution

 Linear response parameters
   LEPSILON=     F    determine dielectric tensor
   LRPA    =     F    only Hartree local field effects (RPA)
   LNABLA  =     F    use nabla operator in PAW spheres
   LVEL    =     F    velocity operator in full k-point grid
   LINTERFAST=   F  fast interpolation
   KINTER  =     0    interpolate to denser k-point grid
   CSHIFT  =0.1000    complex shift for real part using Kramers Kronig
   OMEGAMAX=  -1.0    maximum frequency
   DEG_THRESHOLD= 0.2000000E-02 threshold for treating states as degnerate
   RTIME   =   -0.100 relaxation time in fs
  (WPLASMAI=    0.000 imaginary part of plasma frequency in eV, 0.658/RTIME)
   DFIELD  = 0.0000000 0.0000000 0.0000000 field for delta impulse in time
 
 Orbital magnetization related:
   ORBITALMAG=     F  switch on orbital magnetization
   LCHIMAG   =     F  perturbation theory with respect to B field
   DQ        =  0.001000  dq finite difference perturbation B field
   LLRAUG    =     F  two centre corrections for induced B field

 PEAD related settings:
   LPEAD      =     T    switch on PEAD
   IPEAD      =     4    finite difference order for dpsi/dk
   LCALCPOL   =     T    calculate macroscopic polarization
   LCALCEPS   =     F    calculate dielectric tensor
   EFIELD_PEAD=    0.0000    0.0000    0.0000
   SKIP_EDOTP =     F
   LRPA       =     F
   SKIP_SCF   =     F


--------------------------------------------------------------------------------------------------------


 Static calculation
 charge density and potential will be updated during run
 spin polarized calculation
 Variant of blocked Davidson
 Davidson routine will perform the subspace rotation
 perform sub-space diagonalisation
    after iterative eigenvector-optimisation
 modified Broyden-mixing scheme, WC =      100.0
 initial mixing is a Kerker type mixing with AMIX =  0.4000 and BMIX =      1.0000
 Hartree-type preconditioning will be used
 using additional bands          168
 reciprocal scheme for non local part
 use partial core corrections
 calculate Harris-corrections to forces 
   (improved forces if not selfconsistent)
 use gradient corrections 
 use of overlap-Matrix (Vanderbilt PP)
 Fermi weights with tetrahedron method with Bloechl corrections


--------------------------------------------------------------------------------------------------------


  energy-cutoff  :      700.00
  volume of cell :     1150.24
      direct lattice vectors                 reciprocal lattice vectors
    10.507531000  0.192470000  0.000000000     0.095201778 -0.001743843  0.000000000
     0.192470000 10.507531000  0.000000000    -0.001743843  0.095201778  0.000000000
     0.000000000  0.000000000 10.421519000     0.000000000  0.000000000  0.095955302

  length of vectors
    10.509293621 10.509293621 10.421519000     0.095217748  0.095217748  0.095955302


 
 old parameters found on file WAVECAR:
  energy-cutoff  :      700.00
  volume of cell :     1150.24
      direct lattice vectors                 reciprocal lattice vectors
    10.507531000  0.192470000  0.000000000     0.095201778 -0.001743843  0.000000000
     0.192470000 10.507531000  0.000000000    -0.001743843  0.095201778  0.000000000
     0.000000000  0.000000000 10.421519000     0.000000000  0.000000000  0.095955302

  length of vectors

 
 k-points in units of 2pi/SCALE and weight: Automatic mesh                          
   0.00000000  0.00000000  0.00000000       0.125
   0.04760089 -0.00087192  0.00000000       0.250
   0.04672897  0.04672897  0.00000000       0.125
   0.00000000  0.00000000  0.04797765       0.125
   0.04760089 -0.00087192  0.04797765       0.250
   0.04672897  0.04672897  0.04797765       0.125
 
 k-points in reciprocal lattice and weights: Automatic mesh                          
   0.00000000  0.00000000  0.00000000       0.125
   0.50000000 -0.00000000  0.00000000       0.250
   0.50000000  0.50000000  0.00000000       0.125
   0.00000000  0.00000000  0.50000000       0.125
   0.50000000 -0.00000000  0.50000000       0.250
   0.50000000  0.50000000  0.50000000       0.125
 
 position of ions in fractional coordinates (direct lattice) 
   0.12614500  0.12523300  0.12295600
   0.62614500  0.12523300  0.12295600
   0.12614500  0.62523300  0.12295600
   0.62614500  0.62523300  0.12295600
   0.37385500  0.37476700  0.12295600
   0.87385500  0.37476700  0.12295600
   0.37385500  0.87476700  0.12295600
   0.87385500  0.87476700  0.12295600
   0.12476700  0.37385500  0.87295600
   0.62476700  0.37385500  0.87295600
   0.12476700  0.87385500  0.87295600
   0.62476700  0.87385500  0.87295600
   0.37523300  0.12614500  0.87295600
   0.87523300  0.12614500  0.87295600
   0.37523300  0.62614500  0.87295600
   0.87523300  0.62614500  0.87295600
   0.12385500  0.12476700  0.62295600
   0.62385500  0.12476700  0.62295600
   0.12385500  0.62476700  0.62295600
   0.62385500  0.62476700  0.62295600
   0.37614500  0.37523300  0.62295600
   0.87614500  0.37523300  0.62295600
   0.37614500  0.87523300  0.62295600
   0.87614500  0.87523300  0.62295600
   0.37476700  0.12385500  0.37295600
   0.87476700  0.12385500  0.37295600
   0.37476700  0.62385500  0.37295600
   0.87476700  0.62385500  0.37295600
   0.12523300  0.37614500  0.37295600
   0.62523300  0.37614500  0.37295600
   0.12523300  0.87614500  0.37295600
   0.62523300  0.87614500  0.37295600
   0.00000000  0.00000000  0.50174100
   0.50000000  0.00000000  0.50174100
   0.00000000  0.50000000  0.50174100
   0.50000000  0.50000000  0.50174100
   0.25000000  0.00000000  0.25174100
   0.75000000  0.00000000  0.25174100
   0.25000000  0.50000000  0.25174100
   0.75000000  0.50000000  0.25174100
   0.25000000  0.25000000  0.00174100
   0.75000000  0.25000000  0.00174100
   0.25000000  0.75000000  0.00174100
   0.75000000  0.75000000  0.00174100
   0.00000000  0.25000000  0.75174100
   0.50000000  0.25000000  0.75174100
   0.00000000  0.75000000  0.75174100
   0.50000000  0.75000000  0.75174100
   0.00000000  0.00000000  0.00234700
   0.50000000  0.00000000  0.00234700
   0.00000000  0.50000000  0.00234700
   0.50000000  0.50000000  0.00234700
   0.25000000  0.00000000  0.75234700
   0.75000000  0.00000000  0.75234700
   0.25000000  0.50000000  0.75234700
   0.75000000  0.50000000  0.75234700
   0.25000000  0.25000000  0.50234700
   0.75000000  0.25000000  0.50234700
   0.25000000  0.75000000  0.50234700
   0.75000000  0.75000000  0.50234700
   0.00000000  0.25000000  0.25234700
   0.50000000  0.25000000  0.25234700
   0.00000000  0.75000000  0.25234700
   0.50000000  0.75000000  0.25234700
 
 position of ions in cartesian coordinates  (Angst):
   1.34957609  1.34016876  1.28138829
   6.60334159  1.43640376  1.28138829
   1.44581109  6.59393426  1.28138829
   6.69957659  6.69016926  1.28138829
   4.00042441  4.00983174  1.28138829
   9.25418991  4.10606674  1.28138829
   4.09665941  9.26359724  1.28138829
   9.35042491  9.35983224  1.28138829
   1.38294899  3.95230691  9.09752754
   6.63671449  4.04854191  9.09752754
   1.47918399  9.20607241  9.09752754
   6.73294949  9.30230741  9.09752754
   3.96705151  1.39769359  9.09752754
   9.22081701  1.49392859  9.09752754
   4.06328651  6.65145909  9.09752754
   9.31705201  6.74769409  9.09752754
   1.32542416  1.33483149  6.49214779
   6.57918966  1.43106649  6.49214779
   1.42165916  6.58859699  6.49214779
   6.67542466  6.68483199  6.49214779
   4.02457634  4.01516901  6.49214779
   9.27834184  4.11140401  6.49214779
   4.12081134  9.26893451  6.49214779
   9.37457684  9.36516951  6.49214779
   3.96171424  1.37354166  3.88676804
   9.21547974  1.46977666  3.88676804
   4.05794924  6.62730716  3.88676804
   9.31171474  6.72354216  3.88676804
   1.38828626  3.97645884  3.88676804
   6.64205176  4.07269384  3.88676804
   1.48452126  9.23022434  3.88676804
   6.73828676  9.32645934  3.88676804
   0.00000000  0.00000000  5.22890336
   5.25376550  0.09623500  5.22890336
   0.09623500  5.25376550  5.22890336
   5.35000050  5.35000050  5.22890336
   2.62688275  0.04811750  2.62352361
   7.88064825  0.14435250  2.62352361
   2.72311775  5.30188300  2.62352361
   7.97688325  5.39811800  2.62352361
   2.67500025  2.67500025  0.01814386
   7.92876575  2.77123525  0.01814386
   2.77123525  7.92876575  0.01814386
   8.02500075  8.02500075  0.01814386
   0.04811750  2.62688275  7.83428311
   5.30188300  2.72311775  7.83428311
   0.14435250  7.88064825  7.83428311
   5.39811800  7.97688325  7.83428311
   0.00000000  0.00000000  0.02445931
   5.25376550  0.09623500  0.02445931
   0.09623500  5.25376550  0.02445931
   5.35000050  5.35000050  0.02445931
   2.62688275  0.04811750  7.84059856
   7.88064825  0.14435250  7.84059856
   2.72311775  5.30188300  7.84059856
   7.97688325  5.39811800  7.84059856
   2.67500025  2.67500025  5.23521881
   7.92876575  2.77123525  5.23521881
   2.77123525  7.92876575  5.23521881
   8.02500075  8.02500075  5.23521881
   0.04811750  2.62688275  2.62983906
   5.30188300  2.72311775  2.62983906
   0.14435250  7.88064825  2.62983906
   5.39811800  7.97688325  2.62983906
 


--------------------------------------------------------------------------------------------------------


 k-point  1 :   0.0000 0.0000 0.0000  plane waves:   48415
 k-point  2 :   0.5000-0.0000 0.0000  plane waves:   48362
 k-point  3 :   0.5000 0.5000 0.0000  plane waves:   48420
 k-point  4 :   0.0000 0.0000 0.5000  plane waves:   48416
 k-point  5 :   0.5000-0.0000 0.5000  plane waves:   48328
 k-point  6 :   0.5000 0.5000 0.5000  plane waves:   48292

 maximum and minimum number of plane-waves per node :     48420    48292

 maximum number of plane-waves:     48420
 maximum index in each direction: 
   IXMAX=   22   IYMAX=   22   IZMAX=   22
   IXMIN=  -23   IYMIN=  -23   IZMIN=  -22


 serial   3D FFT for wavefunctions
 parallel 3D FFT for charge:
    minimum data exchange during FFTs selected (reduces bandwidth)


 total amount of memory used by VASP MPI-rank0   301249. kBytes
=======================================================================

   base      :      30000. kBytes
   nonl-proj :     175882. kBytes
   fftplans  :       4588. kBytes
   grid      :      69719. kBytes
   one-center:       1990. kBytes
   wavefun   :      19070. kBytes
 
     INWAV:  cpu time   11.5677: real time   11.7994
 Broyden mixing: mesh for mixing (old mesh)
   NGX = 45   NGY = 45   NGZ = 45
  (NGX  =192   NGY  =192   NGZ  =180)
  gives a total of  91125 points

 initial charge density was supplied:
 number of electron     688.0000399 magnetization       0.0000000
 keeping initial charge density in first step


--------------------------------------------------------------------------------------------------------


 Maximum index for augmentation-charges          890 (set IRDMAX)


--------------------------------------------------------------------------------------------------------


 First call to EWALD:  gamma=   0.169
 Maximum number of real-space cells 3x 3x 3
 Maximum number of reciprocal cells 3x 3x 3

    FEWALD:  cpu time    0.0027: real time    0.0032


--------------------------------------- Iteration      1(   1)  ---------------------------------------


    POTLOK:  cpu time    0.3315: real time    0.3538
    SETDIJ:  cpu time    0.0145: real time    0.0146
     EDDAV:  cpu time  140.3388: real time  141.4974
 BZINTS: Fermi energy:  5.000639;688.000000 electrons
         Band energy:***********;  BLOECHL correction:  0.000000
       DOS:  cpu time    0.0051: real time    0.0051
    CHARGE:  cpu time    1.1704: real time    1.1773
    MIXING:  cpu time    0.0051: real time    0.0051
    --------------------------------------------
      LOOP:  cpu time  141.8653: real time  143.0533

 eigenvalue-minimisations  : 18944
 total energy-change (2. order) :-0.3053355E+03  (-0.1324119E+03)
 number of electron     688.0000400 magnetization       0.0000000
 augmentation part      282.9105450 magnetization       0.0000000

 Broyden mixing:
  rms(total) = 0.30948E+01    rms(broyden)= 0.30948E+01
  rms(prec ) = 0.30955E+01
  weight for this iteration     100.00

 Free energy of the ion-electron system (eV)
  ---------------------------------------------------
  alpha Z        PSCENC =      2357.04020353
  Ewald energy   TEWEN  =    -62481.57566769
  -Hartree energ DENC   =    -42944.44755149
  -exchange      EXHF   =         0.00000000
  -V(xc)+E(xc)   XCENC  =      3286.51756039
  PAW double counting   =    112273.64035720  -115967.51671644
  entropy T*S    EENTRO =         0.00000000
  eigenvalues    EBANDS =    -10849.05879811
  atomic energy  EATOM  =    114020.06510763
  Solvation  Ediel_sol  =         0.00000000
  ---------------------------------------------------
  free energy    TOTEN  =      -305.33550498 eV

  energy without entropy =     -305.33550498  energy(sigma->0) =     -305.33550498


--------------------------------------------------------------------------------------------------------




--------------------------------------- Iteration      1(   2)  ---------------------------------------


    POTLOK:  cpu time    0.1187: real time    0.1224
    SETDIJ:  cpu time    0.0126: real time    0.0127
     EDDAV:  cpu time   76.3110: real time   76.8756
 BZINTS: Fermi energy:  4.933206;688.000000 electrons
         Band energy:***********;  BLOECHL correction:  0.000000
       DOS:  cpu time    0.0027: real time    0.0027
    CHARGE:  cpu time    1.1678: real time    1.1747
    MIXING:  cpu time    0.0027: real time    0.0965
    --------------------------------------------
      LOOP:  cpu time   77.6155: real time   78.2846

 eigenvalue-minimisations  : 13312
 total energy-change (2. order) :-0.2236309E+02  (-0.2239458E+02)
 number of electron     688.0000399 magnetization       0.0000000
 augmentation part      281.7170570 magnetization       0.0000000

 Broyden mixing:
  rms(total) = 0.12592E+01    rms(broyden)= 0.12592E+01
  rms(prec ) = 0.12649E+01
  weight for this iteration     100.00

 eigenvalues of (default mixing * dielectric matrix)
  average eigenvalue GAMMA=   0.7021
  0.7021

 Free energy of the ion-electron system (eV)
  ---------------------------------------------------
  alpha Z        PSCENC =      2357.04020353
  Ewald energy   TEWEN  =    -62481.57566769
  -Hartree energ DENC   =    -42959.45903565
  -exchange      EXHF   =         0.00000000
  -V(xc)+E(xc)   XCENC  =      3287.15603997
  PAW double counting   =    114921.25082337  -118627.68923528
  entropy T*S    EENTRO =         0.00000000
  eigenvalues    EBANDS =    -10844.48683144
  atomic energy  EATOM  =    114020.06510763
  Solvation  Ediel_sol  =         0.00000000
  ---------------------------------------------------
  free energy    TOTEN  =      -327.69859556 eV

  energy without entropy =     -327.69859556  energy(sigma->0) =     -327.69859556


--------------------------------------------------------------------------------------------------------




--------------------------------------- Iteration      1(   3)  ---------------------------------------


    POTLOK:  cpu time    0.1179: real time    0.1212
    SETDIJ:  cpu time    0.0128: real time    0.0129
     EDDAV:  cpu time  144.1068: real time  145.0756
 BZINTS: Fermi energy:  4.858941;688.000000 electrons
         Band energy:***********;  BLOECHL correction:  0.000000
       DOS:  cpu time    0.0027: real time    0.0027
    CHARGE:  cpu time    1.4356: real time    1.4432
    MIXING:  cpu time    0.0016: real time    0.0249
    --------------------------------------------
      LOOP:  cpu time  145.6774: real time  146.6804

 eigenvalue-minimisations  : 19712
 total energy-change (2. order) :-0.2816379E+00  (-0.3444250E+00)
 number of electron     688.0000399 magnetization       0.0000000
 augmentation part      282.2747625 magnetization       0.0000000

 Broyden mixing:
  rms(total) = 0.92126E+00    rms(broyden)= 0.92126E+00
  rms(prec ) = 0.92468E+00
  weight for this iteration     100.00

 eigenvalues of (default mixing * dielectric matrix)
  average eigenvalue GAMMA=   0.5222
  0.5222  0.5222

 Free energy of the ion-electron system (eV)
  ---------------------------------------------------
  alpha Z        PSCENC =      2357.04020353
  Ewald energy   TEWEN  =    -62481.57566769
  -Hartree energ DENC   =    -42932.15113601
  -exchange      EXHF   =         0.00000000
  -V(xc)+E(xc)   XCENC  =      3286.49359299
  PAW double counting   =    114193.71690412  -117893.22202890
  entropy T*S    EENTRO =         0.00000000
  eigenvalues    EBANDS =    -10878.34720909
  atomic energy  EATOM  =    114020.06510763
  Solvation  Ediel_sol  =         0.00000000
  ---------------------------------------------------
  free energy    TOTEN  =      -327.98023342 eV

  energy without entropy =     -327.98023342  energy(sigma->0) =     -327.98023342


--------------------------------------------------------------------------------------------------------




--------------------------------------- Iteration      1(   4)  ---------------------------------------


    POTLOK:  cpu time    0.1337: real time    0.1346
    SETDIJ:  cpu time    0.0146: real time    0.0146
     EDDAV:  cpu time   97.6410: real time   98.3379
 BZINTS: Fermi energy:  4.852508;688.000000 electrons
         Band energy:***********;  BLOECHL correction:  0.000000
       DOS:  cpu time    0.0027: real time    0.0027
    CHARGE:  cpu time    1.1704: real time    1.1773
    MIXING:  cpu time    0.0015: real time    0.0297
    --------------------------------------------
      LOOP:  cpu time   98.9638: real time   99.6969

 eigenvalue-minimisations  : 14848
 total energy-change (2. order) :-0.2096299E-02  (-0.1446966E-01)
 number of electron     688.0000399 magnetization       0.0000000
 augmentation part      282.1792077 magnetization       0.0000000

 Broyden mixing:
  rms(total) = 0.79606E+00    rms(broyden)= 0.79606E+00
  rms(prec ) = 0.79645E+00
  weight for this iteration     100.00

 eigenvalues of (default mixing * dielectric matrix)
  average eigenvalue GAMMA=   0.5411
  0.6302  0.6302  0.3629

 Free energy of the ion-electron system (eV)
  ---------------------------------------------------
  alpha Z        PSCENC =      2357.04020353
  Ewald energy   TEWEN  =    -62481.57566769
  -Hartree energ DENC   =    -42935.80596272
  -exchange      EXHF   =         0.00000000
  -V(xc)+E(xc)   XCENC  =      3286.40812595
  PAW double counting   =    113955.98538492  -117655.77170712
  entropy T*S    EENTRO =         0.00000000
  eigenvalues    EBANDS =    -10874.32781421
  atomic energy  EATOM  =    114020.06510763
  Solvation  Ediel_sol  =         0.00000000
  ---------------------------------------------------
  free energy    TOTEN  =      -327.98232972 eV

  energy without entropy =     -327.98232972  energy(sigma->0) =     -327.98232972


--------------------------------------------------------------------------------------------------------




--------------------------------------- Iteration      1(   5)  ---------------------------------------


    POTLOK:  cpu time    0.1186: real time    0.1209
    SETDIJ:  cpu time    0.0127: real time    0.0128
     EDDAV:  cpu time  102.1590: real time  102.8792
 BZINTS: Fermi energy:  4.855215;688.000000 electrons
         Band energy:***********;  BLOECHL correction:  0.000000
       DOS:  cpu time    0.0027: real time    0.0027
    CHARGE:  cpu time    1.1797: real time    1.1866
    MIXING:  cpu time    0.0021: real time    0.0022
    --------------------------------------------
      LOOP:  cpu time  103.4748: real time  104.2044

 eigenvalue-minimisations  : 15616
 total energy-change (2. order) :-0.2318488E-04  (-0.1236857E-02)
 number of electron     688.0000399 magnetization       0.0000000
 augmentation part      282.1500164 magnetization       0.0000000

 Broyden mixing:
  rms(total) = 0.69358E+00    rms(broyden)= 0.69358E+00
  rms(prec ) = 0.69374E+00
  weight for this iteration     100.00

 eigenvalues of (default mixing * dielectric matrix)
  average eigenvalue GAMMA=   0.4404
  0.6421  0.6421  0.3584  0.1192

 Free energy of the ion-electron system (eV)
  ---------------------------------------------------
  alpha Z        PSCENC =      2357.04020353
  Ewald energy   TEWEN  =    -62481.57566769
  -Hartree energ DENC   =    -42940.27189627
  -exchange      EXHF   =         0.00000000
  -V(xc)+E(xc)   XCENC  =      3286.51983219
  PAW double counting   =    113724.85702267  -117424.14389447
  entropy T*S    EENTRO =         0.00000000
  eigenvalues    EBANDS =    -10870.47306048
  atomic energy  EATOM  =    114020.06510763
  Solvation  Ediel_sol  =         0.00000000
  ---------------------------------------------------
  free energy    TOTEN  =      -327.98235290 eV

  energy without entropy =     -327.98235290  energy(sigma->0) =     -327.98235290


--------------------------------------------------------------------------------------------------------




--------------------------------------- Iteration      1(   6)  ---------------------------------------


    POTLOK:  cpu time    0.1239: real time    0.1271
    SETDIJ:  cpu time    0.0128: real time    0.0129
     EDDAV:  cpu time  109.3198: real time  110.0690
 BZINTS: Fermi energy:  4.854795;688.000000 electrons
         Band energy:***********;  BLOECHL correction:  0.000000
       DOS:  cpu time    0.0027: real time    0.0027
    CHARGE:  cpu time    1.1697: real time    1.1767
    MIXING:  cpu time    0.0014: real time    0.0015
    --------------------------------------------
      LOOP:  cpu time  110.6304: real time  111.3899

 eigenvalue-minimisations  : 15872
 total energy-change (2. order) : 0.2330006E-03  (-0.6046474E-04)
 number of electron     688.0000399 magnetization       0.0000000
 augmentation part      282.1484363 magnetization       0.0000000

 Broyden mixing:
  rms(total) = 0.63928E+00    rms(broyden)= 0.63928E+00
  rms(prec ) = 0.63944E+00
  weight for this iteration     100.00

 eigenvalues of (default mixing * dielectric matrix)
  average eigenvalue GAMMA=   0.5753
  0.7666  0.7666  0.5013  0.5013  0.3404

 Free energy of the ion-electron system (eV)
  ---------------------------------------------------
  alpha Z        PSCENC =      2357.04020353
  Ewald energy   TEWEN  =    -62481.57566769
  -Hartree energ DENC   =    -42940.73612559
  -exchange      EXHF   =         0.00000000
  -V(xc)+E(xc)   XCENC  =      3286.51412905
  PAW double counting   =    113604.72210333  -117303.53212941
  entropy T*S    EENTRO =         0.00000000
  eigenvalues    EBANDS =    -10870.47974075
  atomic energy  EATOM  =    114020.06510763
  Solvation  Ediel_sol  =         0.00000000
  ---------------------------------------------------
  free energy    TOTEN  =      -327.98211990 eV

  energy without entropy =     -327.98211990  energy(sigma->0) =     -327.98211990


--------------------------------------------------------------------------------------------------------




--------------------------------------- Iteration      1(   7)  ---------------------------------------


    POTLOK:  cpu time    0.1191: real time    0.1224
    SETDIJ:  cpu time    0.0128: real time    0.0128
     EDDAV:  cpu time  125.4232: real time  126.2722
 BZINTS: Fermi energy:  5.066961;688.000000 electrons
         Band energy:***********;  BLOECHL correction:  0.000000
       DOS:  cpu time    0.0031: real time    0.0031
    CHARGE:  cpu time    1.1679: real time    1.1749
    MIXING:  cpu time    0.0015: real time    0.0015
    --------------------------------------------
      LOOP:  cpu time  126.7276: real time  127.5870

 eigenvalue-minimisations  : 17408
 total energy-change (2. order) : 0.7119986E-03  (-0.4869528E-04)
 number of electron     688.0000399 magnetization       0.0000000
 augmentation part      282.1738663 magnetization       0.0000000

 Broyden mixing:
  rms(total) = 0.50009E+00    rms(broyden)= 0.50009E+00
  rms(prec ) = 0.50019E+00
  weight for this iteration     100.00

 eigenvalues of (default mixing * dielectric matrix)
  average eigenvalue GAMMA=   0.7212
  1.1879  1.1879  0.5759  0.5759  0.4613  0.3382

 Free energy of the ion-electron system (eV)
  ---------------------------------------------------
  alpha Z        PSCENC =      2357.04020353
  Ewald energy   TEWEN  =    -62481.57566769
  -Hartree energ DENC   =    -42941.29020004
  -exchange      EXHF   =         0.00000000
  -V(xc)+E(xc)   XCENC  =      3286.50226731
  PAW double counting   =    113295.59217190  -116993.12692067
  entropy T*S    EENTRO =         0.00000000
  eigenvalues    EBANDS =    -10871.18836987
  atomic energy  EATOM  =    114020.06510763
  Solvation  Ediel_sol  =         0.00000000
  ---------------------------------------------------
  free energy    TOTEN  =      -327.98140791 eV

  energy without entropy =     -327.98140791  energy(sigma->0) =     -327.98140791


--------------------------------------------------------------------------------------------------------




--------------------------------------- Iteration      1(   8)  ---------------------------------------


    POTLOK:  cpu time    0.1184: real time    0.1230
    SETDIJ:  cpu time    0.0126: real time    0.0127
     EDDAV:  cpu time   68.4953: real time   69.0181
 BZINTS: Fermi energy:  5.066841;688.000000 electrons
         Band energy:***********;  BLOECHL correction:  0.000000
       DOS:  cpu time    0.0031: real time    0.0031
    CHARGE:  cpu time    1.1694: real time    1.1765
    MIXING:  cpu time    0.0016: real time    0.0016
    --------------------------------------------
      LOOP:  cpu time   69.8003: real time   70.3350

 eigenvalue-minimisations  : 12544
 total energy-change (2. order) : 0.4709754E-03  (-0.4704843E-04)
 number of electron     688.0000399 magnetization       0.0000000
 augmentation part      282.1875892 magnetization       0.0000000

 Broyden mixing:
  rms(total) = 0.30363E+00    rms(broyden)= 0.30363E+00
  rms(prec ) = 0.30373E+00
  weight for this iteration     100.00

 eigenvalues of (default mixing * dielectric matrix)
  average eigenvalue GAMMA=   0.7365
  1.3215  1.3215  0.6359  0.6359  0.4549  0.4549  0.3311

 Free energy of the ion-electron system (eV)
  ---------------------------------------------------
  alpha Z        PSCENC =      2357.04020353
  Ewald energy   TEWEN  =    -62481.57566769
  -Hartree energ DENC   =    -42942.98324296
  -exchange      EXHF   =         0.00000000
  -V(xc)+E(xc)   XCENC  =      3286.51024269
  PAW double counting   =    112871.82930420  -116567.75962323
  entropy T*S    EENTRO =         0.00000000
  eigenvalues    EBANDS =    -10871.10726110
  atomic energy  EATOM  =    114020.06510763
  Solvation  Ediel_sol  =         0.00000000
  ---------------------------------------------------
  free energy    TOTEN  =      -327.98093693 eV

  energy without entropy =     -327.98093693  energy(sigma->0) =     -327.98093693


--------------------------------------------------------------------------------------------------------




--------------------------------------- Iteration      1(   9)  ---------------------------------------


    POTLOK:  cpu time    0.1189: real time    0.1213
    SETDIJ:  cpu time    0.0127: real time    0.0127
     EDDAV:  cpu time  134.7370: real time  135.6325
 BZINTS: Fermi energy:  5.048315;688.000000 electrons
         Band energy:***********;  BLOECHL correction:  0.000000
       DOS:  cpu time    0.0031: real time    0.0031
    CHARGE:  cpu time    1.1880: real time    1.1956
    MIXING:  cpu time    0.0016: real time    0.0016
    --------------------------------------------
      LOOP:  cpu time  136.0613: real time  136.9668

 eigenvalue-minimisations  : 17920
 total energy-change (2. order) : 0.1200282E-03  (-0.8267094E-05)
 number of electron     688.0000399 magnetization      -0.0000000
 augmentation part      282.1955415 magnetization      -0.0000000

 Broyden mixing:
  rms(total) = 0.24072E+00    rms(broyden)= 0.24072E+00
  rms(prec ) = 0.24079E+00
  weight for this iteration     100.00

 eigenvalues of (default mixing * dielectric matrix)
  average eigenvalue GAMMA=   0.7027
  1.3761  1.3761  0.6531  0.6531  0.4394  0.4394  0.3423  0.3423

 Free energy of the ion-electron system (eV)
  ---------------------------------------------------
  alpha Z        PSCENC =      2357.04020353
  Ewald energy   TEWEN  =    -62481.57566769
  -Hartree energ DENC   =    -42943.30949433
  -exchange      EXHF   =         0.00000000
  -V(xc)+E(xc)   XCENC  =      3286.51291217
  PAW double counting   =    112745.95809755  -116441.42237754
  entropy T*S    EENTRO =         0.00000000
  eigenvalues    EBANDS =    -10871.24959823
  atomic energy  EATOM  =    114020.06510763
  Solvation  Ediel_sol  =         0.00000000
  ---------------------------------------------------
  free energy    TOTEN  =      -327.98081690 eV

  energy without entropy =     -327.98081690  energy(sigma->0) =     -327.98081690


--------------------------------------------------------------------------------------------------------




--------------------------------------- Iteration      1(  10)  ---------------------------------------


    POTLOK:  cpu time    0.1218: real time    0.1227
    SETDIJ:  cpu time    0.0126: real time    0.0126
     EDDAV:  cpu time   78.2195: real time   78.7950
 BZINTS: Fermi energy:  4.966748;688.000000 electrons
         Band energy:***********;  BLOECHL correction:  0.000000
       DOS:  cpu time    0.0031: real time    0.0031
    CHARGE:  cpu time    1.1662: real time    1.1732
    MIXING:  cpu time    0.0017: real time    0.0017
    --------------------------------------------
      LOOP:  cpu time   79.5249: real time   80.1083

 eigenvalue-minimisations  : 13312
 total energy-change (2. order) : 0.1448813E-03  (-0.1594795E-04)
 number of electron     688.0000399 magnetization      -0.0000000
 augmentation part      282.2091434 magnetization      -0.0000000

 Broyden mixing:
  rms(total) = 0.12161E+00    rms(broyden)= 0.12161E+00
  rms(prec ) = 0.12165E+00
  weight for this iteration     100.00

 eigenvalues of (default mixing * dielectric matrix)
  average eigenvalue GAMMA=   0.8552
  1.7200  1.7200  0.8910  0.8910  0.5839  0.5839  0.4869  0.4869  0.3335

 Free energy of the ion-electron system (eV)
  ---------------------------------------------------
  alpha Z        PSCENC =      2357.04020353
  Ewald energy   TEWEN  =    -62481.57566769
  -Hartree energ DENC   =    -42943.91038662
  -exchange      EXHF   =         0.00000000
  -V(xc)+E(xc)   XCENC  =      3286.51551578
  PAW double counting   =    112509.13135261  -116203.74058894
  entropy T*S    EENTRO =         0.00000000
  eigenvalues    EBANDS =    -10871.50620832
  atomic energy  EATOM  =    114020.06510763
  Solvation  Ediel_sol  =         0.00000000
  ---------------------------------------------------
  free energy    TOTEN  =      -327.98067202 eV

  energy without entropy =     -327.98067202  energy(sigma->0) =     -327.98067202


--------------------------------------------------------------------------------------------------------




--------------------------------------- Iteration      1(  11)  ---------------------------------------


    POTLOK:  cpu time    0.1213: real time    0.1221
    SETDIJ:  cpu time    0.0128: real time    0.0129
     EDDAV:  cpu time  135.0522: real time  135.9679
 BZINTS: Fermi energy:  4.962271;688.000000 electrons
         Band energy:***********;  BLOECHL correction:  0.000000
       DOS:  cpu time    0.0031: real time    0.0032
    CHARGE:  cpu time    1.1756: real time    1.1826
    MIXING:  cpu time    0.0027: real time    0.0027
    --------------------------------------------
      LOOP:  cpu time  136.3677: real time  137.2914

 eigenvalue-minimisations  : 17664
 total energy-change (2. order) : 0.3733039E-04  (-0.4609626E-05)
 number of electron     688.0000399 magnetization      -0.0000000
 augmentation part      282.2163716 magnetization      -0.0000000

 Broyden mixing:
  rms(total) = 0.59391E-01    rms(broyden)= 0.59391E-01
  rms(prec ) = 0.59411E-01
  weight for this iteration     100.00

 eigenvalues of (default mixing * dielectric matrix)
  average eigenvalue GAMMA=   0.8938
  1.9553  1.9553  0.9717  0.9717  0.6358  0.6358  0.5032  0.5032  0.3341  0.4719

 Free energy of the ion-electron system (eV)
  ---------------------------------------------------
  alpha Z        PSCENC =      2357.04020353
  Ewald energy   TEWEN  =    -62481.57566769
  -Hartree energ DENC   =    -42944.17700902
  -exchange      EXHF   =         0.00000000
  -V(xc)+E(xc)   XCENC  =      3286.51682916
  PAW double counting   =    112389.11533943  -116083.33596150
  entropy T*S    EENTRO =         0.00000000
  eigenvalues    EBANDS =    -10871.62947623
  atomic energy  EATOM  =    114020.06510763
  Solvation  Ediel_sol  =         0.00000000
  ---------------------------------------------------
  free energy    TOTEN  =      -327.98063469 eV

  energy without entropy =     -327.98063469  energy(sigma->0) =     -327.98063469


--------------------------------------------------------------------------------------------------------




--------------------------------------- Iteration      1(  12)  ---------------------------------------


    POTLOK:  cpu time    0.1331: real time    0.1352
    SETDIJ:  cpu time    0.0131: real time    0.0131
     EDDAV:  cpu time   80.1834: real time   80.7612
 BZINTS: Fermi energy:  4.958277;688.000000 electrons
         Band energy:***********;  BLOECHL correction:  0.000000
       DOS:  cpu time    0.0031: real time    0.0031
    CHARGE:  cpu time    1.3586: real time    1.3663
    MIXING:  cpu time    0.0020: real time    0.0363
    --------------------------------------------
      LOOP:  cpu time   81.6932: real time   82.3153

 eigenvalue-minimisations  : 13312
 total energy-change (2. order) : 0.1102933E-04  (-0.8520473E-06)
 number of electron     688.0000399 magnetization      -0.0000000
 augmentation part      282.2185090 magnetization      -0.0000000

 Broyden mixing:
  rms(total) = 0.28887E-01    rms(broyden)= 0.28887E-01
  rms(prec ) = 0.28897E-01
  weight for this iteration     100.00

 eigenvalues of (default mixing * dielectric matrix)
  average eigenvalue GAMMA=   0.9691
  2.2865  2.2865  1.1025  1.1025  0.7327  0.7327  0.5472  0.5472  0.3338  0.4941
  0.4941

 Free energy of the ion-electron system (eV)
  ---------------------------------------------------
  alpha Z        PSCENC =      2357.04020353
  Ewald energy   TEWEN  =    -62481.57566769
  -Hartree energ DENC   =    -42944.33106690
  -exchange      EXHF   =         0.00000000
  -V(xc)+E(xc)   XCENC  =      3286.51942819
  PAW double counting   =    112332.53902056  -116026.60404895
  entropy T*S    EENTRO =         0.00000000
  eigenvalues    EBANDS =    -10871.63360003
  atomic energy  EATOM  =    114020.06510763
  Solvation  Ediel_sol  =         0.00000000
  ---------------------------------------------------
  free energy    TOTEN  =      -327.98062366 eV

  energy without entropy =     -327.98062366  energy(sigma->0) =     -327.98062366


--------------------------------------------------------------------------------------------------------




--------------------------------------- Iteration      1(  13)  ---------------------------------------


    POTLOK:  cpu time    0.1217: real time    0.1236
    SETDIJ:  cpu time    0.0127: real time    0.0128
     EDDAV:  cpu time  117.2079: real time  118.0033
 BZINTS: Fermi energy:  4.952715;688.000000 electrons
         Band energy:***********;  BLOECHL correction:  0.000000
       DOS:  cpu time    0.0031: real time    0.0032
    CHARGE:  cpu time    1.2179: real time    1.2250
    MIXING:  cpu time    0.0018: real time    0.0018
    --------------------------------------------
      LOOP:  cpu time  118.5651: real time  119.3697

 eigenvalue-minimisations  : 16384
 total energy-change (2. order) : 0.5979673E-05  (-0.5335629E-06)
 number of electron     688.0000399 magnetization      -0.0000000
 augmentation part      282.2208504 magnetization      -0.0000000

 Broyden mixing:
  rms(total) = 0.67156E-02    rms(broyden)= 0.67156E-02
  rms(prec ) = 0.67199E-02
  weight for this iteration     100.00

 eigenvalues of (default mixing * dielectric matrix)
  average eigenvalue GAMMA=   1.1739
  3.1188  3.1188  1.4086  1.4086  0.8979  0.8979  0.3339  0.6281  0.6281  0.5521
  0.5521  0.5423

 Free energy of the ion-electron system (eV)
  ---------------------------------------------------
  alpha Z        PSCENC =      2357.04020353
  Ewald energy   TEWEN  =    -62481.57566769
  -Hartree energ DENC   =    -42944.45257147
  -exchange      EXHF   =         0.00000000
  -V(xc)+E(xc)   XCENC  =      3286.52028442
  PAW double counting   =    112287.75603926  -115981.67376965
  entropy T*S    EENTRO =         0.00000000
  eigenvalues    EBANDS =    -10871.66024371
  atomic energy  EATOM  =    114020.06510763
  Solvation  Ediel_sol  =         0.00000000
  ---------------------------------------------------
  free energy    TOTEN  =      -327.98061768 eV

  energy without entropy =     -327.98061768  energy(sigma->0) =     -327.98061768


--------------------------------------------------------------------------------------------------------




--------------------------------------- Iteration      1(  14)  ---------------------------------------


    POTLOK:  cpu time    0.1204: real time    0.1232
    SETDIJ:  cpu time    0.0126: real time    0.0127
     EDDAV:  cpu time  102.0917: real time  102.8110
 BZINTS: Fermi energy:  4.948625;688.000000 electrons
         Band energy:***********;  BLOECHL correction:  0.000000
       DOS:  cpu time    0.0031: real time    0.0031
    CHARGE:  cpu time    1.1688: real time    1.1758
    MIXING:  cpu time    0.0020: real time    0.0020
    --------------------------------------------
      LOOP:  cpu time  103.3986: real time  104.1278

 eigenvalue-minimisations  : 15872
 total energy-change (2. order) : 0.1051463E-05  (-0.1024619E-06)
 number of electron     688.0000399 magnetization      -0.0000000
 augmentation part      282.2219081 magnetization      -0.0000000

 Broyden mixing:
  rms(total) = 0.63322E-03    rms(broyden)= 0.63322E-03
  rms(prec ) = 0.63383E-03
  weight for this iteration     100.00

 eigenvalues of (default mixing * dielectric matrix)
  average eigenvalue GAMMA=   1.2012
  3.2507  3.2507  1.5520  1.5520  0.9909  0.9909  0.3339  0.7073  0.7073  0.5690
  0.5690  0.5710  0.5710

 Free energy of the ion-electron system (eV)
  ---------------------------------------------------
  alpha Z        PSCENC =      2357.04020353
  Ewald energy   TEWEN  =    -62481.57566769
  -Hartree energ DENC   =    -42944.47600842
  -exchange      EXHF   =         0.00000000
  -V(xc)+E(xc)   XCENC  =      3286.51993569
  PAW double counting   =    112274.62356101  -115968.49682823
  entropy T*S    EENTRO =         0.00000000
  eigenvalues    EBANDS =    -10871.68092014
  atomic energy  EATOM  =    114020.06510763
  Solvation  Ediel_sol  =         0.00000000
  ---------------------------------------------------
  free energy    TOTEN  =      -327.98061663 eV

  energy without entropy =     -327.98061663  energy(sigma->0) =     -327.98061663


--------------------------------------------------------------------------------------------------------




--------------------------------------- Iteration      1(  15)  ---------------------------------------


    POTLOK:  cpu time    0.1196: real time    0.1220
    SETDIJ:  cpu time    0.0125: real time    0.0126
     EDDAV:  cpu time  118.5361: real time  119.3313
 BZINTS: Fermi energy:  4.944844;688.000000 electrons
         Band energy:***********;  BLOECHL correction:  0.000000
       DOS:  cpu time    0.0031: real time    0.0031
    CHARGE:  cpu time    1.1666: real time    1.1735
    MIXING:  cpu time    0.0021: real time    0.0021
    --------------------------------------------
      LOOP:  cpu time  119.8400: real time  120.6447

 eigenvalue-minimisations  : 16384
 total energy-change (2. order) : 0.1368753E-06  (-0.6681721E-08)
 number of electron     688.0000399 magnetization       0.0000000
 augmentation part      282.2220595 magnetization       0.0000000

 Broyden mixing:
  rms(total) = 0.27362E-03    rms(broyden)= 0.27362E-03
  rms(prec ) = 0.27639E-03
  weight for this iteration     100.00

 eigenvalues of (default mixing * dielectric matrix)
  average eigenvalue GAMMA=   1.1860
  3.2208  3.2208  1.6234  1.6234  1.0401  1.0401  0.7632  0.7632  0.3339  0.5811
  0.5811  0.6193  0.6193  0.5747

 Free energy of the ion-electron system (eV)
  ---------------------------------------------------
  alpha Z        PSCENC =      2357.04020353
  Ewald energy   TEWEN  =    -62481.57566769
  -Hartree energ DENC   =    -42944.47807869
  -exchange      EXHF   =         0.00000000
  -V(xc)+E(xc)   XCENC  =      3286.51968705
  PAW double counting   =    112272.58037034  -115966.44911332
  entropy T*S    EENTRO =         0.00000000
  eigenvalues    EBANDS =    -10871.68312534
  atomic energy  EATOM  =    114020.06510763
  Solvation  Ediel_sol  =         0.00000000
  ---------------------------------------------------
  free energy    TOTEN  =      -327.98061649 eV

  energy without entropy =     -327.98061649  energy(sigma->0) =     -327.98061649


--------------------------------------------------------------------------------------------------------




--------------------------------------- Iteration      1(  16)  ---------------------------------------


    POTLOK:  cpu time    0.1202: real time    0.1222
    SETDIJ:  cpu time    0.0127: real time    0.0128
     EDDAV:  cpu time   61.8032: real time   62.2571
 BZINTS: Fermi energy:  4.942391;688.000000 electrons
         Band energy:***********;  BLOECHL correction:  0.000000
       DOS:  cpu time    0.0031: real time    0.0031
    --------------------------------------------
      LOOP:  cpu time   61.9392: real time   62.3952

 eigenvalue-minimisations  :  9728
 total energy-change (2. order) : 0.4074536E-09  (-0.7890248E-09)
 number of electron     688.0000399 magnetization       0.0000000
 augmentation part      282.2220595 magnetization       0.0000000

 Free energy of the ion-electron system (eV)
  ---------------------------------------------------
  alpha Z        PSCENC =      2357.04020353
  Ewald energy   TEWEN  =    -62481.57566769
  -Hartree energ DENC   =    -42944.47688889
  -exchange      EXHF   =         0.00000000
  -V(xc)+E(xc)   XCENC  =      3286.51964985
  PAW double counting   =    112273.18557435  -115967.05621804
  entropy T*S    EENTRO =         0.00000000
  eigenvalues    EBANDS =    -10871.68237723
  atomic energy  EATOM  =    114020.06510763
  Solvation  Ediel_sol  =         0.00000000
  ---------------------------------------------------
  free energy    TOTEN  =      -327.98061649 eV

  energy without entropy =     -327.98061649  energy(sigma->0) =     -327.98061649


--------------------------------------------------------------------------------------------------------




 average (electrostatic) potential at core
  the test charge radii are     0.9698  0.8297  0.9500
  (the norm of the test charge is              1.0000)
       1 -86.6167       2 -86.6167       3 -86.6167       4 -86.6167       5 -86.6167
       6 -86.6167       7 -86.6167       8 -86.6167       9 -86.6167      10 -86.6167
      11 -86.6167      12 -86.6167      13 -86.6167      14 -86.6167      15 -86.6167
      16 -86.6167      17 -86.6167      18 -86.6167      19 -86.6167      20 -86.6167
      21 -86.6167      22 -86.6167      23 -86.6167      24 -86.6167      25 -86.6167
      26 -86.6167      27 -86.6167      28 -86.6167      29 -86.6167      30 -86.6167
      31 -86.6167      32 -86.6167      33 -80.6974      34 -80.6974      35 -80.6974
      36 -80.6974      37 -80.6974      38 -80.6974      39 -80.6974      40 -80.6974
      41 -80.6974      42 -80.6974      43 -80.6974      44 -80.6974      45 -80.6974
      46 -80.6974      47 -80.6974      48 -80.6974      49 -80.2212      50 -80.2212
      51 -80.2212      52 -80.2212      53 -80.2212      54 -80.2212      55 -80.2212
      56 -80.2212      57 -80.2212      58 -80.2212      59 -80.2212      60 -80.2212
      61 -80.2212      62 -80.2212      63 -80.2212      64 -80.2212
 
 
 
 E-fermi :   4.9424     XC(G=0): -10.4692     alpha+bet :-10.5503


 spin component 1

 k-point     1 :       0.0000    0.0000    0.0000
  band No.  band energies     occupation 
      1     -64.3085      1.00000
      2     -64.3085      1.00000
      3     -64.3085      1.00000
      4     -64.3085      1.00000
      5     -64.3085      1.00000
      6     -64.3085      1.00000
      7     -64.3085      1.00000
      8     -64.3085      1.00000
      9     -64.2780      1.00000
     10     -64.2780      1.00000
     11     -64.2780      1.00000
     12     -64.2779      1.00000
     13     -64.2779      1.00000
     14     -64.2779      1.00000
     15     -64.2779      1.00000
     16     -64.2779      1.00000
     17     -64.2740      1.00000
     18     -64.2740      1.00000
     19     -64.2740      1.00000
     20     -64.2740      1.00000
     21     -64.2740      1.00000
     22     -64.2740      1.00000
     23     -64.2740      1.00000
     24     -64.2740      1.00000
     25     -64.2719      1.00000
     26     -64.2719      1.00000
     27     -64.2719      1.00000
     28     -64.2719      1.00000
     29     -64.2719      1.00000
     30     -64.2719      1.00000
     31     -64.2719      1.00000
     32     -64.2719      1.00000
     33     -64.2653      1.00000
     34     -64.2653      1.00000
     35     -64.2653      1.00000
     36     -64.2653      1.00000
     37     -64.2653      1.00000
     38     -64.2653      1.00000
     39     -64.2653      1.00000
     40     -64.2653      1.00000
     41     -64.2501      1.00000
     42     -64.2501      1.00000
     43     -64.2501      1.00000
     44     -64.2501      1.00000
     45     -64.2501      1.00000
     46     -64.2501      1.00000
     47     -64.2501      1.00000
     48     -64.2501      1.00000
     49     -51.8687      1.00000
     50     -51.8687      1.00000
     51     -51.8687      1.00000
[...]
   -.421E+02 0.384E+00 0.113E+02   0.430E+02 -.372E+00 -.114E+02   -.860E+00 -.127E-01 0.113E+00   -.382E-04 -.635E-06 0.138E-06
   -.421E+02 0.384E+00 0.113E+02   0.430E+02 -.372E+00 -.114E+02   -.860E+00 -.127E-01 0.113E+00   -.382E-04 -.635E-06 0.138E-06
   -.421E+02 0.384E+00 0.113E+02   0.430E+02 -.372E+00 -.114E+02   -.860E+00 -.127E-01 0.113E+00   -.382E-04 -.635E-06 0.138E-06
   -.421E+02 0.384E+00 0.113E+02   0.430E+02 -.372E+00 -.114E+02   -.860E+00 -.127E-01 0.113E+00   -.382E-04 -.635E-06 0.138E-06
   0.421E+02 -.384E+00 0.113E+02   -.430E+02 0.372E+00 -.114E+02   0.860E+00 0.127E-01 0.113E+00   0.382E-04 0.635E-06 0.138E-06
   0.421E+02 -.384E+00 0.113E+02   -.430E+02 0.372E+00 -.114E+02   0.860E+00 0.127E-01 0.113E+00   0.382E-04 0.635E-06 0.138E-06
   0.421E+02 -.384E+00 0.113E+02   -.430E+02 0.372E+00 -.114E+02   0.860E+00 0.127E-01 0.113E+00   0.382E-04 0.635E-06 0.138E-06
   0.421E+02 -.384E+00 0.113E+02   -.430E+02 0.372E+00 -.114E+02   0.860E+00 0.127E-01 0.113E+00   0.382E-04 0.635E-06 0.138E-06
   0.384E+00 -.421E+02 0.113E+02   -.372E+00 0.430E+02 -.114E+02   -.127E-01 -.860E+00 0.113E+00   -.635E-06 -.382E-04 0.138E-06
   0.384E+00 -.421E+02 0.113E+02   -.372E+00 0.430E+02 -.114E+02   -.127E-01 -.860E+00 0.113E+00   -.635E-06 -.382E-04 0.138E-06
   0.384E+00 -.421E+02 0.113E+02   -.372E+00 0.430E+02 -.114E+02   -.127E-01 -.860E+00 0.113E+00   -.635E-06 -.382E-04 0.138E-06
   0.384E+00 -.421E+02 0.113E+02   -.372E+00 0.430E+02 -.114E+02   -.127E-01 -.860E+00 0.113E+00   -.635E-06 -.382E-04 0.138E-06
   -.384E+00 0.421E+02 0.113E+02   0.372E+00 -.430E+02 -.114E+02   0.127E-01 0.860E+00 0.113E+00   0.635E-06 0.382E-04 0.138E-06
   -.384E+00 0.421E+02 0.113E+02   0.372E+00 -.430E+02 -.114E+02   0.127E-01 0.860E+00 0.113E+00   0.635E-06 0.382E-04 0.138E-06
   -.384E+00 0.421E+02 0.113E+02   0.372E+00 -.430E+02 -.114E+02   0.127E-01 0.860E+00 0.113E+00   0.635E-06 0.382E-04 0.138E-06
   -.384E+00 0.421E+02 0.113E+02   0.372E+00 -.430E+02 -.114E+02   0.127E-01 0.860E+00 0.113E+00   0.635E-06 0.382E-04 0.138E-06
   -.211E-06 0.413E-07 -.133E+02   -.560E-13 0.242E-12 0.127E+02   0.224E-24 -.388E-24 0.537E+00   -.248E-12 0.445E-12 -.851E-05
   -.211E-06 0.413E-07 -.133E+02   -.240E-13 0.284E-12 0.127E+02   0.258E-24 0.362E-24 0.537E+00   0.235E-13 0.762E-12 -.851E-05
   -.211E-06 0.413E-07 -.133E+02   0.888E-15 0.249E-12 0.127E+02   -.162E-24 0.155E-24 0.537E+00   -.322E-12 -.318E-12 -.851E-05
   -.211E-06 0.413E-07 -.133E+02   0.444E-14 0.256E-12 0.127E+02   0.107E-24 0.284E-24 0.537E+00   0.122E-12 -.480E-12 -.851E-05
   0.413E-07 -.211E-06 -.133E+02   0.000E+00 0.284E-13 0.127E+02   -.602E-24 0.103E-24 0.537E+00   0.228E-12 0.459E-12 -.851E-05
   0.413E-07 -.211E-06 -.133E+02   0.568E-13 0.284E-13 0.127E+02   -.477E-25 0.155E-24 0.537E+00   -.544E-12 0.594E-12 -.851E-05
   0.413E-07 -.211E-06 -.133E+02   0.284E-13 0.568E-13 0.127E+02   0.186E-24 -.258E-25 0.537E+00   0.267E-12 -.578E-12 -.851E-05
   0.413E-07 -.211E-06 -.133E+02   0.284E-13 0.568E-13 0.127E+02   -.394E-24 -.336E-24 0.537E+00   -.569E-12 -.473E-12 -.851E-05
   -.211E-06 0.413E-07 -.133E+02   -.711E-14 0.186E-12 0.127E+02   0.137E-24 0.155E-24 0.537E+00   -.600E-12 -.563E-14 -.851E-05
   -.211E-06 0.414E-07 -.133E+02   -.355E-13 0.193E-12 0.127E+02   -.252E-24 -.155E-24 0.537E+00   0.353E-12 0.348E-12 -.851E-05
   -.211E-06 0.413E-07 -.133E+02   0.284E-13 0.242E-12 0.127E+02   0.347E-25 -.258E-24 0.537E+00   -.864E-12 0.116E-12 -.851E-05
   -.211E-06 0.413E-07 -.133E+02   0.284E-13 0.171E-12 0.127E+02   0.167E-24 -.155E-24 0.537E+00   0.735E-12 -.791E-13 -.851E-05
   0.413E-07 -.211E-06 -.133E+02   0.839E-14 -.624E-13 0.127E+02   -.382E-24 -.310E-24 0.537E+00   0.867E-12 -.100E-13 -.851E-05
   0.413E-07 -.211E-06 -.133E+02   0.394E-13 -.564E-14 0.127E+02   -.619E-24 -.181E-24 0.537E+00   -.120E-11 -.339E-13 -.851E-05
   0.413E-07 -.211E-06 -.133E+02   0.581E-13 0.290E-13 0.127E+02   0.207E-24 -.775E-25 0.537E+00   0.880E-12 0.517E-13 -.851E-05
   0.413E-07 -.211E-06 -.133E+02   0.322E-13 0.289E-13 0.127E+02   0.459E-24 0.168E-24 0.537E+00   -.132E-11 -.125E-13 -.851E-05
   0.573E-07 -.745E-07 -.107E+02   -.426E-13 -.711E-13 0.100E+02   -.412E-25 0.258E-25 0.641E+00   0.488E-12 0.117E-12 -.134E-04
   0.573E-07 -.745E-07 -.107E+02   -.249E-13 -.711E-13 0.100E+02   0.810E-24 -.121E-25 0.641E+00   -.904E-12 0.473E-12 -.134E-04
   0.573E-07 -.745E-07 -.107E+02   -.462E-13 -.568E-13 0.100E+02   0.331E-24 -.258E-25 0.641E+00   0.326E-12 -.316E-12 -.134E-04
   0.573E-07 -.745E-07 -.107E+02   -.426E-13 -.568E-13 0.100E+02   -.253E-24 0.493E-25 0.641E+00   -.591E-12 -.538E-12 -.134E-04
   -.745E-07 0.573E-07 -.107E+02   0.213E-13 -.146E-12 0.100E+02   0.291E-25 -.103E-24 0.641E+00   -.516E-12 0.372E-12 -.134E-04
   -.745E-07 0.573E-07 -.107E+02   0.142E-13 -.146E-12 0.100E+02   -.106E-25 -.504E-24 0.641E+00   0.263E-12 0.392E-12 -.134E-04
   -.745E-07 0.573E-07 -.107E+02   0.000E+00 -.782E-13 0.100E+02   0.145E-25 -.103E-24 0.641E+00   -.475E-12 -.344E-12 -.134E-04
   -.745E-07 0.573E-07 -.107E+02   0.213E-13 -.107E-12 0.100E+02   -.242E-26 0.517E-25 0.641E+00   0.222E-12 -.399E-12 -.134E-04
   0.573E-07 -.745E-07 -.107E+02   -.249E-13 -.180E-12 0.100E+02   -.939E-24 0.214E-25 0.641E+00   0.359E-12 -.401E-12 -.134E-04
   0.573E-07 -.744E-07 -.107E+02   -.249E-13 -.180E-12 0.100E+02   0.751E-24 -.438E-25 0.641E+00   -.736E-12 -.276E-12 -.134E-04
   0.573E-07 -.744E-07 -.107E+02   0.142E-13 -.906E-13 0.100E+02   0.421E-24 -.646E-26 0.641E+00   0.193E-12 0.191E-12 -.134E-04
   0.573E-07 -.744E-07 -.107E+02   -.142E-13 -.176E-12 0.100E+02   -.133E-24 0.517E-25 0.641E+00   -.548E-12 0.182E-12 -.134E-04
   -.745E-07 0.573E-07 -.107E+02   -.144E-13 -.161E-12 0.100E+02   -.170E-25 0.000E+00 0.641E+00   -.555E-12 -.171E-12 -.134E-04
   -.745E-07 0.573E-07 -.107E+02   -.379E-13 -.162E-12 0.100E+02   0.311E-25 0.155E-24 0.641E+00   0.322E-12 -.168E-12 -.134E-04
   -.745E-07 0.573E-07 -.107E+02   -.229E-13 -.967E-13 0.100E+02   -.489E-25 -.517E-25 0.641E+00   -.504E-12 0.220E-12 -.134E-04
   -.745E-07 0.573E-07 -.107E+02   0.105E-13 -.154E-12 0.100E+02   -.121E-26 -.310E-24 0.641E+00   0.268E-12 0.202E-12 -.134E-04
 -----------------------------------------------------------------------------------------------
   -.136E-05 -.136E-05 -.225E+02   0.393E-12 0.151E-12 -.373E-12   -.441E-15 0.444E-15 0.225E+02   -.535E-11 0.309E-12 -.346E-03
 
 
 POSITION                                       TOTAL-FORCE (eV/Angst)
 -----------------------------------------------------------------------------------
      1.34958      1.34017      1.28139         0.000376     -0.000179      0.000133
      6.60334      1.43640      1.28139         0.000376     -0.000179      0.000133
      1.44581      6.59393      1.28139         0.000376     -0.000179      0.000133
      6.69958      6.69017      1.28139         0.000376     -0.000179      0.000133
      4.00042      4.00983      1.28139        -0.000376      0.000179      0.000133
      9.25419      4.10607      1.28139        -0.000376      0.000179      0.000133
      4.09666      9.26360      1.28139        -0.000376      0.000179      0.000133
      9.35042      9.35983      1.28139        -0.000376      0.000179      0.000133
      1.38295      3.95231      9.09753         0.000179     -0.000376      0.000133
      6.63671      4.04854      9.09753         0.000179     -0.000376      0.000133
      1.47918      9.20607      9.09753         0.000179     -0.000376      0.000133
      6.73295      9.30231      9.09753         0.000179     -0.000376      0.000133
      3.96705      1.39769      9.09753        -0.000179      0.000376      0.000133
      9.22082      1.49393      9.09753        -0.000179      0.000376      0.000133
      4.06329      6.65146      9.09753        -0.000179      0.000376      0.000133
      9.31705      6.74769      9.09753        -0.000179      0.000376      0.000133
      1.32542      1.33483      6.49215        -0.000376      0.000179      0.000133
      6.57919      1.43107      6.49215        -0.000376      0.000179      0.000133
      1.42166      6.58860      6.49215        -0.000376      0.000179      0.000133
      6.67542      6.68483      6.49215        -0.000376      0.000179      0.000133
      4.02458      4.01517      6.49215         0.000376     -0.000179      0.000133
      9.27834      4.11140      6.49215         0.000376     -0.000179      0.000133
      4.12081      9.26893      6.49215         0.000376     -0.000179      0.000133
      9.37458      9.36517      6.49215         0.000376     -0.000179      0.000133
      3.96171      1.37354      3.88677         0.000179     -0.000376      0.000133
      9.21548      1.46978      3.88677         0.000179     -0.000376      0.000133
      4.05795      6.62731      3.88677         0.000179     -0.000376      0.000133
      9.31171      6.72354      3.88677         0.000179     -0.000376      0.000133
      1.38829      3.97646      3.88677        -0.000179      0.000376      0.000133
      6.64205      4.07269      3.88677        -0.000179      0.000376      0.000133
      1.48452      9.23022      3.88677        -0.000179      0.000376      0.000133
      6.73829      9.32646      3.88677        -0.000179      0.000376      0.000133
      0.00000      0.00000      5.22890         0.000000      0.000000     -0.001335
      5.25377      0.09624      5.22890         0.000000      0.000000     -0.001335
      0.09624      5.25377      5.22890         0.000000      0.000000     -0.001335
      5.35000      5.35000      5.22890         0.000000      0.000000     -0.001335
      2.62688      0.04812      2.62352         0.000000      0.000000     -0.001335
      7.88065      0.14435      2.62352         0.000000      0.000000     -0.001335
      2.72312      5.30188      2.62352         0.000000      0.000000     -0.001335
      7.97688      5.39812      2.62352         0.000000      0.000000     -0.001335
      2.67500      2.67500      0.01814         0.000000      0.000000     -0.001335
      7.92877      2.77124      0.01814         0.000000      0.000000     -0.001335
      2.77124      7.92877      0.01814         0.000000      0.000000     -0.001335
      8.02500      8.02500      0.01814         0.000000      0.000000     -0.001335
      0.04812      2.62688      7.83428         0.000000      0.000000     -0.001335
      5.30188      2.72312      7.83428         0.000000      0.000000     -0.001335
      0.14435      7.88065      7.83428         0.000000      0.000000     -0.001335
      5.39812      7.97688      7.83428         0.000000      0.000000     -0.001335
      0.00000      0.00000      0.02446         0.000000      0.000000      0.001070
      5.25377      0.09624      0.02446         0.000000      0.000000      0.001070
      0.09624      5.25377      0.02446         0.000000      0.000000      0.001070
      5.35000      5.35000      0.02446         0.000000      0.000000      0.001070
      2.62688      0.04812      7.84060         0.000000      0.000000      0.001070
      7.88065      0.14435      7.84060         0.000000      0.000000      0.001070
      2.72312      5.30188      7.84060         0.000000      0.000000      0.001070
      7.97688      5.39812      7.84060         0.000000      0.000000      0.001070
      2.67500      2.67500      5.23522         0.000000      0.000000      0.001070
      7.92877      2.77124      5.23522         0.000000      0.000000      0.001070
      2.77124      7.92877      5.23522         0.000000      0.000000      0.001070
      8.02500      8.02500      5.23522         0.000000      0.000000      0.001070
      0.04812      2.62688      2.62984         0.000000      0.000000      0.001070
      5.30188      2.72312      2.62984         0.000000      0.000000      0.001070
      0.14435      7.88065      2.62984         0.000000      0.000000      0.001070
      5.39812      7.97688      2.62984         0.000000      0.000000      0.001070
 -----------------------------------------------------------------------------------
    total drift:                               -0.000001     -0.000001     -0.035880


--------------------------------------------------------------------------------------------------------



  FREE ENERGIE OF THE ION-ELECTRON SYSTEM (eV)
  ---------------------------------------------------
  free  energy   TOTEN  =      -327.98061649 eV

  energy  without entropy=     -327.98061649  energy(sigma->0) =     -327.98061649
 


--------------------------------------------------------------------------------------------------------


    POTLOK:  cpu time    0.1341: real time    0.1348


--------------------------------------------------------------------------------------------------------


 writing wavefunctions
     LOOP+:  cpu time 1836.9582: real time 2089.5677
    4ORBIT:  cpu time    0.0000: real time    0.0000
 


 total charge     
 
# of ion       s       p       d       tot
------------------------------------------
    1        1.314   2.410   0.000   3.723
    2        1.314   2.410   0.000   3.723
    3        1.314   2.410   0.000   3.723
    4        1.314   2.410   0.000   3.723
    5        1.314   2.410   0.000   3.723
    6        1.314   2.410   0.000   3.723
    7        1.314   2.410   0.000   3.723
    8        1.314   2.410   0.000   3.723
    9        1.314   2.410   0.000   3.724
   10        1.314   2.410   0.000   3.724
   11        1.314   2.410   0.000   3.724
   12        1.314   2.410   0.000   3.724
   13        1.314   2.410   0.000   3.724
   14        1.314   2.410   0.000   3.724
   15        1.314   2.410   0.000   3.724
   16        1.314   2.410   0.000   3.724
   17        1.314   2.410   0.000   3.723
   18        1.314   2.410   0.000   3.723
   19        1.314   2.410   0.000   3.723
   20        1.314   2.410   0.000   3.723
   21        1.314   2.410   0.000   3.723
   22        1.314   2.410   0.000   3.723
   23        1.314   2.410   0.000   3.723
   24        1.314   2.410   0.000   3.723
   25        1.314   2.410   0.000   3.724
   26        1.314   2.410   0.000   3.724
   27        1.314   2.410   0.000   3.724
   28        1.314   2.410   0.000   3.724
   29        1.314   2.410   0.000   3.724
   30        1.314   2.410   0.000   3.724
   31        1.314   2.410   0.000   3.724
   32        1.314   2.410   0.000   3.724
   33        0.260   6.202   8.916  15.378
   34        0.260   6.202   8.916  15.378
   35        0.260   6.202   8.916  15.378
   36        0.260   6.202   8.916  15.378
   37        0.260   6.202   8.916  15.378
   38        0.260   6.202   8.916  15.378
   39        0.260   6.202   8.916  15.378
   40        0.260   6.202   8.916  15.378
   41        0.260   6.202   8.916  15.378
   42        0.260   6.202   8.916  15.378
   43        0.260   6.202   8.916  15.378
   44        0.260   6.202   8.916  15.378
   45        0.260   6.202   8.916  15.378
   46        0.260   6.202   8.916  15.378
   47        0.260   6.202   8.916  15.378
   48        0.260   6.202   8.916  15.378
   49        0.350   6.350   5.820  12.521
   50        0.350   6.350   5.820  12.521
   51        0.350   6.350   5.820  12.521
   52        0.350   6.350   5.820  12.521
   53        0.350   6.350   5.820  12.521
   54        0.350   6.350   5.820  12.521
   55        0.350   6.350   5.820  12.521
   56        0.350   6.350   5.820  12.521
   57        0.350   6.350   5.820  12.521
   58        0.350   6.350   5.820  12.521
   59        0.350   6.350   5.820  12.521
   60        0.350   6.350   5.820  12.521
   61        0.350   6.350   5.820  12.521
   62        0.350   6.350   5.820  12.521
   63        0.350   6.350   5.820  12.521
   64        0.350   6.350   5.820  12.521
--------------------------------------------------
tot         51.788 277.962 235.785 565.535
 


 magnetization (x)
 
# of ion       s       p       d       tot
------------------------------------------
    1       -0.000  -0.009   0.000  -0.009
    2       -0.000  -0.009   0.000  -0.009
    3       -0.000  -0.009   0.000  -0.009
    4       -0.000  -0.009   0.000  -0.009
    5       -0.000  -0.009   0.000  -0.009
    6       -0.000  -0.009   0.000  -0.009
    7       -0.000  -0.009   0.000  -0.009
    8       -0.000  -0.009   0.000  -0.009
    9        0.000   0.009   0.000   0.009
   10        0.000   0.009   0.000   0.009
   11        0.000   0.009   0.000   0.009
   12        0.000   0.009   0.000   0.009
   13        0.000   0.009   0.000   0.009
   14        0.000   0.009   0.000   0.009
   15        0.000   0.009   0.000   0.009
   16        0.000   0.009   0.000   0.009
   17       -0.000  -0.009   0.000  -0.009
   18       -0.000  -0.009   0.000  -0.009
   19       -0.000  -0.009   0.000  -0.009
   20       -0.000  -0.009   0.000  -0.009
   21       -0.000  -0.009   0.000  -0.009
   22       -0.000  -0.009   0.000  -0.009
   23       -0.000  -0.009   0.000  -0.009
   24       -0.000  -0.009   0.000  -0.009
   25        0.000   0.009   0.000   0.009
   26        0.000   0.009   0.000   0.009
   27        0.000   0.009   0.000   0.009
   28        0.000   0.009   0.000   0.009
   29        0.000   0.009   0.000   0.009
   30        0.000   0.009   0.000   0.009
   31        0.000   0.009   0.000   0.009
   32        0.000   0.009   0.000   0.009
   33        0.000   0.000  -0.000   0.000
   34        0.000   0.000  -0.000   0.000
   35        0.000   0.000  -0.000   0.000
   36        0.000   0.000  -0.000   0.000
   37       -0.000  -0.000   0.000  -0.001
   38       -0.000  -0.000   0.000  -0.001
   39       -0.000  -0.000   0.000  -0.001
   40       -0.000  -0.000   0.000  -0.001
   41        0.000   0.000  -0.000   0.000
   42        0.000   0.000  -0.000   0.000
   43        0.000   0.000  -0.000   0.000
   44        0.000   0.000  -0.000   0.000
   45       -0.000  -0.000   0.000  -0.001
   46       -0.000  -0.000   0.000  -0.001
   47       -0.000  -0.000   0.000  -0.001
   48       -0.000  -0.000   0.000  -0.001
   49        0.020   0.054   3.671   3.744
   50        0.020   0.054   3.671   3.744
   51        0.020   0.054   3.671   3.744
   52        0.020   0.054   3.671   3.744
   53       -0.020  -0.054  -3.670  -3.744
   54       -0.020  -0.054  -3.670  -3.744
   55       -0.020  -0.054  -3.670  -3.744
   56       -0.020  -0.054  -3.670  -3.744
   57        0.020   0.054   3.671   3.744
   58        0.020   0.054   3.671   3.744
   59        0.020   0.054   3.671   3.744
   60        0.020   0.054   3.671   3.744
   61       -0.020  -0.054  -3.670  -3.744
   62       -0.020  -0.054  -3.670  -3.744
   63       -0.020  -0.054  -3.670  -3.744
   64       -0.020  -0.054  -3.670  -3.744
--------------------------------------------------
tot         -0.001   0.001  -0.001  -0.000
 
 BZINTS: Fermi energy:  4.942391;688.000000 electrons
         Band energy:***********;  BLOECHL correction:  0.000000

 total amount of memory used by VASP MPI-rank0   301249. kBytes
=======================================================================

   base      :      30000. kBytes
   nonl-proj :     175882. kBytes
   fftplans  :       4588. kBytes
   grid      :      69719. kBytes
   one-center:       1990. kBytes
   wavefun   :      19070. kBytes
 
  
  
 General timing and accounting informations for this job:
 ========================================================
  
                  Total CPU time used (sec):     1885.510
                            User time (sec):     1873.325
                          System time (sec):       12.184
                         Elapsed time (sec):     2141.925
  
                   Maximum memory used (kb):      656176.
                   Average memory used (kb):           0.
  
                          Minor page faults:       482716
                          Major page faults:         5576
                 Voluntary context switches:         8632
