 vasp.5.4.4.18Apr17-6-g9f103f2a35 (build Oct 30 2023 17:30:16) complex          
  
 executed on             LinuxIFC date 2024.06.27  06:45:12
 running on  256 total cores
 distrk:  each k-point on  256 cores,    1 groups
 distr:  one band on NCORES_PER_BAND=   1 cores,  256 groups


--------------------------------------------------------------------------------------------------------


 INCAR:
 POTCAR:    PAW_PBE S 06Sep2000                   
 POTCAR:     PAW_PBE Cu_pv 06Sep2000              
 POTCAR:     PAW_PBE Fe_pv 02Aug2007              

 ----------------------------------------------------------------------------- 
|                                                                             |
|           W    W    AA    RRRRR   N    N  II  N    N   GGGG   !!!           |
|           W    W   A  A   R    R  NN   N  II  NN   N  G    G  !!!           |
|           W    W  A    A  R    R  N N  N  II  N N  N  G       !!!           |
|           W WW W  AAAAAA  RRRRR   N  N N  II  N  N N  G  GGG   !            |
|           WW  WW  A    A  R   R   N   NN  II  N   NN  G    G                |
|           W    W  A    A  R    R  N    N  II  N    N   GGGG   !!!           |
|                                                                             |
|      For optimal performance we recommend to set                            |
|        NCORE= 4 - approx SQRT( number of cores)                             |
|      NCORE specifies how many cores store one orbital (NPAR=cpu/NCORE).     |
|      This setting can  greatly improve the performance of VASP for DFT.     |
|      The default,   NCORE=1            might be grossly inefficient         |
|      on modern multi-core architectures or massively parallel machines.     |
|      Do your own testing !!!!                                               |
|      Unfortunately you need to use the default for GW and RPA calculations. |
|      (for HF NCORE is supported but not extensively tested yet)             |
|                                                                             |
 ----------------------------------------------------------------------------- 

 POTCAR:    PAW_PBE S 06Sep2000                   
   SHA256 =  0fc7481fb0695f01bdc6462160264c5c84044ae9ec85a907d398b887a2bc3132 S/
   COPYR  = (c) Copyright 06Sep2000 Georg Kresse                                
   COPYR  = This file is part of the software VASP. Any use, copying, and all ot
   COPYR  = If you do not have a valid VASP license, you may not use, copy or di
   VRHFIN =S : s2p4                                                             
   LEXCH  = PE                                                                  
   EATOM  =   276.8230 eV,   20.3459 Ry                                         
                                                                                
   TITEL  = PAW_PBE S 06Sep2000                                                 
   LULTRA =        F    use ultrasoft PP ?                                      
   IUNSCR =        1    unscreen: 0-lin 1-nonlin 2-no                           
   RPACOR =    1.500    partial core radius                                     
   POMASS =   32.066; ZVAL   =    6.000    mass and valenz                      
   RCORE  =    1.900    outmost cutoff radius                                   
   RWIGS  =    2.200; RWIGS  =    1.164    wigner-seitz radius (au A)           
   ENMAX  =  258.689; ENMIN  =  194.016 eV                                      
   ICORE  =        2    local potential                                         
   LCOR   =        T    correct aug charges                                     
   LPAW   =        T    paw PP                                                  
   EAUG   =  335.092                                                            
   DEXC   =    0.000                                                            
   RMAX   =    1.942    core radius for proj-oper                               
   RAUG   =    1.300    factor for augmentation sphere                          
   RDEP   =    1.954    radius for radial grids                                 
   RDEPT  =    1.744    core radius for aug-charge                              
                                                                                
   Atomic configuration                                                         
    6 entries                                                                   
     n  l   j            E        occ.                                          
     1  0  0.50     -2405.8406   2.0000                                         
     2  0  0.50      -211.7007   2.0000                                         
     2  1  1.50      -156.4958   6.0000                                         
     3  0  0.50       -17.2562   2.0000                                         
     3  1  0.50        -7.0085   4.0000                                         
     3  2  1.50        -6.8029   0.0000                                         
   Description                                                                  
     l       E           TYP  RCUT    TYP  RCUT                                 
     0    -17.2561641     23  1.900                                             
     0    -15.8743224     23  1.900                                             
     1     -7.0085400     23  1.900                                             
     1     -2.7779785     23  1.900                                             
     2     -6.8029130     23  1.900                                             
  local pseudopotential read in
  partial core-charges read in
  partial kinetic energy density read in
  atomic valenz-charges read in
  non local Contribution for L=           0  read in
    real space projection operators read in
  non local Contribution for L=           0  read in
    real space projection operators read in
  non local Contribution for L=           1  read in
    real space projection operators read in
  non local Contribution for L=           1  read in
    real space projection operators read in
    PAW grid and wavefunctions read in
 
   number of l-projection  operators is LMAX  =           4
   number of lm-projection operators is LMMAX =           8
 
 POTCAR:     PAW_PBE Cu_pv 06Sep2000              
   SHA256 =  cb7b504e2ea725fe1f25c85a9ac77d4012ce94cd394135b722c4e25ec297f1cb Cu
   COPYR  = (c) Copyright 06Sep2000 Georg Kresse                                
   COPYR  = This file is part of the software VASP. Any use, copying, and all ot
   COPYR  = If you do not have a valid VASP license, you may not use, copy or di
   VRHFIN =Cu: d10 p1                                                           
   LEXCH  = PE                                                                  
   EATOM  =  4120.1201 eV,  302.8203 Ry                                         
                                                                                
   TITEL  = PAW_PBE Cu_pv 06Sep2000                                             
   LULTRA =        F    use ultrasoft PP ?                                      
   IUNSCR =        1    unscreen: 0-lin 1-nonlin 2-no                           
   RPACOR =    1.500    partial core radius                                     
   POMASS =   63.546; ZVAL   =   17.000    mass and valenz                      
   RCORE  =    2.000    outmost cutoff radius                                   
   RWIGS  =    2.000; RWIGS  =    1.058    wigner-seitz radius (au A)           
   ENMAX  =  368.648; ENMIN  =  276.486 eV                                      
   RCLOC  =    1.304    cutoff for local pot                                    
   LCOR   =        T    correct aug charges                                     
   LPAW   =        T    paw PP                                                  
   EAUG   =  758.233                                                            
   DEXC   =    0.000                                                            
   RMAX   =    2.046    core radius for proj-oper                               
   RAUG   =    1.300    factor for augmentation sphere                          
   RDEP   =    2.025    radius for radial grids                                 
   RDEPT  =    1.558    core radius for aug-charge                              
                                                                                
   Atomic configuration                                                         
    8 entries                                                                   
     n  l   j            E        occ.                                          
     1  0  0.50     -8850.2467   2.0000                                         
     2  0  0.50     -1062.3498   2.0000                                         
     2  1  1.50      -916.8226   6.0000                                         
     3  0  0.50      -114.6929   2.0000                                         
     3  1  1.50       -72.1325   6.0000                                         
     3  2  2.50        -5.0394  10.0000                                         
     4  0  0.50        -4.6097   1.0000                                         
     4  3  2.50        -1.3606   0.0000                                         
   Description                                                                  
     l       E           TYP  RCUT    TYP  RCUT                                 
     1    -72.1324777     23  1.700                                             
     1     -1.3605826     23  1.700                                             
     2     -5.0393776     23  2.000                                             
     2     -6.3999602     23  2.000                                             
     0     -4.6097062     23  1.800                                             
     0     14.1620818     23  1.800                                             
  local pseudopotential read in
  partial core-charges read in
  partial kinetic energy density read in
  atomic valenz-charges read in
  non local Contribution for L=           1  read in
    real space projection operators read in
  non local Contribution for L=           1  read in
    real space projection operators read in
  non local Contribution for L=           2  read in
    real space projection operators read in
  non local Contribution for L=           2  read in
    real space projection operators read in
  non local Contribution for L=           0  read in
    real space projection operators read in
  non local Contribution for L=           0  read in
    real space projection operators read in
    PAW grid and wavefunctions read in
 
   number of l-projection  operators is LMAX  =           6
   number of lm-projection operators is LMMAX =          18
 
 POTCAR:     PAW_PBE Fe_pv 02Aug2007              
   SHA256 =  5d22e414b1f82158bf2c7ecb8b97b28fd0923e48cadc1c3bf74d524558f5dd32 Fe
   COPYR  = (c) Copyright 02Aug2007 Georg Kresse                                
   COPYR  = This file is part of the software VASP. Any use, copying, and all ot
   COPYR  = If you do not have a valid VASP license, you may not use, copy or di
   VRHFIN =Fe:  3pd7s1                                                          
   LEXCH  = PE                                                                  
   EATOM  =  2457.4239 eV,  180.6156 Ry                                         
                                                                                
   TITEL  = PAW_PBE Fe_pv 02Aug2007                                             
   LULTRA =        F    use ultrasoft PP ?                                      
   IUNSCR =        1    unscreen: 0-lin 1-nonlin 2-no                           
   RPACOR =    1.750    partial core radius                                     
   POMASS =   55.847; ZVAL   =   14.000    mass and valenz                      
   RCORE  =    2.200    outmost cutoff radius                                   
   RWIGS  =    2.200; RWIGS  =    1.164    wigner-seitz radius (au A)           
   ENMAX  =  293.238; ENMIN  =  219.928 eV                                      
   ICORE  =        3    local potential                                         
   LCOR   =        T    correct aug charges                                     
   LPAW   =        T    paw PP                                                  
   EAUG   =  578.342                                                            
   DEXC   =    0.000                                                            
   RMAX   =    2.249    core radius for proj-oper                               
   RAUG   =    1.300    factor for augmentation sphere                          
   RDEP   =    2.296    radius for radial grids                                 
   RDEPT  =    1.766    core radius for aug-charge                              
                                                                                
   Atomic configuration                                                         
    8 entries                                                                   
     n  l   j            E        occ.                                          
     1  0  0.50     -6993.8440   2.0000                                         
     2  0  0.50      -814.6047   2.0000                                         
     2  1  1.50      -693.3689   6.0000                                         
     3  0  0.50       -89.4732   2.0000                                         
     3  1  1.50       -55.6373   6.0000                                         
     3  2  2.50        -3.8151   7.0000                                         
     4  0  0.50        -4.2551   1.0000                                         
     4  3  2.50        -1.3606   0.0000                                         
   Description                                                                  
     l       E           TYP  RCUT    TYP  RCUT                                 
     1    -55.6372668     23  2.000                                             
     1     -5.4423304     23  2.000                                             
     2     -3.8151096     23  2.200                                             
     2     -5.1756922     23  2.200                                             
     0     -4.2550951     23  2.200                                             
     0     27.2116520     23  2.200                                             
     3     -1.3605826     23  2.200                                             
  local pseudopotential read in
  partial core-charges read in
  partial kinetic energy density read in
  atomic valenz-charges read in
  non local Contribution for L=           1  read in
    real space projection operators read in
  non local Contribution for L=           1  read in
    real space projection operators read in
  non local Contribution for L=           2  read in
    real space projection operators read in
  non local Contribution for L=           2  read in
    real space projection operators read in
  non local Contribution for L=           0  read in
    real space projection operators read in
  non local Contribution for L=           0  read in
    real space projection operators read in
    PAW grid and wavefunctions read in
 
   number of l-projection  operators is LMAX  =           6
   number of lm-projection operators is LMMAX =          18
 

 ----------------------------------------------------------------------------- 
|                                                                             |
|  ADVICE TO THIS USER RUNNING 'VASP/VAMP'   (HEAR YOUR MASTER'S VOICE ...):  |
|                                                                             |
|      You have a (more or less) 'large supercell' and for larger cells       |
|      it might be more efficient to use real space projection opertators     |
|      So try LREAL= Auto  in the INCAR   file.                               |
|      Mind:          For very  accurate calculation you might also keep the  |
|      reciprocal projection scheme          (i.e. LREAL=.FALSE.)             |
|                                                                             |
 ----------------------------------------------------------------------------- 


 ----------------------------------------------------------------------------- 
|                                                                             |
|  ADVICE TO THIS USER RUNNING 'VASP/VAMP'   (HEAR YOUR MASTER'S VOICE ...):  |
|                                                                             |
|      You enforced a specific xc-type in the INCAR file,                     |
|      a different type was found on the POTCAR file                          |
|          I HOPE YOU KNOW, WHAT YOU ARE  DOING                               |
|                                                                             |
 ----------------------------------------------------------------------------- 

  PAW_PBE S 06Sep2000                   :
 energy of atom  1       EATOM= -276.8230
 kinetic energy error for atom=    0.0007 (will be added to EATOM!!)
   PAW_PBE Cu_pv 06Sep2000              :
 energy of atom  2       EATOM=-4120.1201
 kinetic energy error for atom=    0.0094 (will be added to EATOM!!)
   PAW_PBE Fe_pv 02Aug2007              :
 energy of atom  3       EATOM=-2457.4239
 kinetic energy error for atom=    0.0025 (will be added to EATOM!!)
 
 
 POSCAR: generated by phonopy                    
  positions in direct lattice
  velocities in cartesian coordinates
 exchange correlation table for  LEXCH =       14
   RHO(1)=    0.500       N(1)  =     2000
   RHO(2)=  100.500       N(2)  =     4000
 


--------------------------------------------------------------------------------------------------------


 ion  position               nearest neighbor table
   1  0.127  0.115  0.126-  41 2.25  61 2.25  37 2.29  49 2.31
   2  0.627  0.115  0.126-  42 2.25  62 2.25  38 2.29  50 2.31
   3  0.127  0.615  0.126-  43 2.25  63 2.25  39 2.29  51 2.31
   4  0.627  0.615  0.126-  44 2.25  64 2.25  40 2.29  52 2.31
   5  0.373  0.365  0.124-  39 2.25  52 2.25  41 2.29  62 2.31
   6  0.873  0.365  0.124-  40 2.25  51 2.25  42 2.29  61 2.31
   7  0.373  0.865  0.124-  37 2.25  50 2.25  43 2.29  64 2.31
   8  0.873  0.865  0.124-  38 2.25  49 2.25  44 2.29  63 2.31
   9  0.125  0.369  0.875-  51 2.27  55 2.27  45 2.28  41 2.28
  10  0.625  0.369  0.875-  52 2.27  56 2.27  46 2.28  42 2.28
  11  0.125  0.869  0.875-  49 2.27  53 2.27  47 2.28  43 2.28
  12  0.625  0.869  0.875-  50 2.27  54 2.27  48 2.28  44 2.28
  13  0.375  0.119  0.875-  41 2.26  46 2.26  50 2.30  53 2.30
  14  0.875  0.119  0.875-  45 2.26  42 2.26  49 2.30  54 2.30
  15  0.375  0.619  0.875-  43 2.26  48 2.26  52 2.30  55 2.30
  16  0.875  0.619  0.875-  47 2.26  44 2.26  51 2.30  56 2.30
  17  0.123  0.115  0.624-  45 2.25  57 2.25  33 2.29  53 2.31
  18  0.623  0.115  0.624-  46 2.25  58 2.25  34 2.29  54 2.31
  19  0.123  0.615  0.624-  47 2.25  59 2.25  35 2.29  55 2.31
  20  0.623  0.615  0.624-  48 2.25  60 2.25  36 2.29  56 2.31
  21  0.377  0.365  0.626-  36 2.25  55 2.25  46 2.29  57 2.31
  22  0.877  0.365  0.626-  35 2.25  56 2.25  45 2.29  58 2.31
  23  0.377  0.865  0.626-  34 2.25  53 2.25  48 2.29  59 2.31
  24  0.877  0.865  0.626-  33 2.25  54 2.25  47 2.29  60 2.31
  25  0.375  0.119  0.375-  57 2.27  62 2.27  34 2.28  37 2.28
  26  0.875  0.119  0.375-  58 2.27  61 2.27  33 2.28  38 2.28
  27  0.375  0.619  0.375-  59 2.27  64 2.27  36 2.28  39 2.28
  28  0.875  0.619  0.375-  60 2.27  63 2.27  35 2.28  40 2.28
  29  0.125  0.369  0.375-  35 2.26  39 2.26  57 2.30  61 2.30
  30  0.625  0.369  0.375-  36 2.26  40 2.26  58 2.30  62 2.30
  31  0.125  0.869  0.375-  33 2.26  37 2.26  59 2.30  63 2.30
  32  0.625  0.869  0.375-  34 2.26  38 2.26  60 2.30  64 2.30
  33  0.996  0.008  0.500-  24 2.25  31 2.26  26 2.28  17 2.29
  34  0.496  0.008  0.500-  23 2.25  32 2.26  25 2.28  18 2.29
  35  0.996  0.508  0.500-  22 2.25  29 2.26  28 2.28  19 2.29
  36  0.496  0.508  0.500-  21 2.25  30 2.26  27 2.28  20 2.29
  37  0.254  0.008  0.250-   7 2.25  31 2.26  25 2.28   1 2.29
  38  0.754  0.008  0.250-   8 2.25  32 2.26  26 2.28   2 2.29
  39  0.254  0.508  0.250-   5 2.25  29 2.26  27 2.28   3 2.29
  40  0.754  0.508  0.250-   6 2.25  30 2.26  28 2.28   4 2.29
  41  0.246  0.258  0.000-   1 2.25  13 2.26   9 2.28   5 2.29
  42  0.746  0.258  0.000-   2 2.25  14 2.26  10 2.28   6 2.29
  43  0.246  0.758  0.000-   3 2.25  15 2.26  11 2.28   7 2.29
  44  0.746  0.758  0.000-   4 2.25  16 2.26  12 2.28   8 2.29
  45  0.004  0.258  0.750-  17 2.25  14 2.26   9 2.28  22 2.29
  46  0.504  0.258  0.750-  18 2.25  13 2.26  10 2.28  21 2.29
  47  0.004  0.758  0.750-  19 2.25  16 2.26  11 2.28  24 2.29
  48  0.504  0.758  0.750-  20 2.25  15 2.26  12 2.28  23 2.29
  49  0.997  0.008  0.002-   8 2.25  11 2.27  14 2.30   1 2.31
  50  0.497  0.008  0.002-   7 2.25  12 2.27  13 2.30   2 2.31
  51  0.997  0.508  0.002-   6 2.25   9 2.27  16 2.30   3 2.31
  52  0.497  0.508  0.002-   5 2.25  10 2.27  15 2.30   4 2.31
  53  0.253  0.008  0.748-  23 2.25  11 2.27  13 2.30  17 2.31
  54  0.753  0.008  0.748-  24 2.25  12 2.27  14 2.30  18 2.31
  55  0.253  0.508  0.748-  21 2.25   9 2.27  15 2.30  19 2.31
  56  0.753  0.508  0.748-  22 2.25  10 2.27  16 2.30  20 2.31
  57  0.247  0.258  0.502-  17 2.25  25 2.27  29 2.30  21 2.31
  58  0.747  0.258  0.502-  18 2.25  26 2.27  30 2.30  22 2.31
  59  0.247  0.758  0.502-  19 2.25  27 2.27  31 2.30  23 2.31
  60  0.747  0.758  0.502-  20 2.25  28 2.27  32 2.30  24 2.31
  61  0.003  0.258  0.248-   1 2.25  26 2.27  29 2.30   6 2.31
  62  0.503  0.258  0.248-   2 2.25  25 2.27  30 2.30   5 2.31
  63  0.003  0.758  0.248-   3 2.25  28 2.27  31 2.30   8 2.31
  64  0.503  0.758  0.248-   4 2.25  27 2.27  32 2.30   7 2.31
 
  LATTYP: Found a simple monoclinic cell.
 ALAT       =    15.9129944974
 B/A-ratio  =     0.6624668984
 C/A-ratio  =     1.5554228891
 COS(beta)  =    -0.9615764287
  
  Lattice vectors:
  
 A1 = ( -12.1445458591,   0.0000000000, -10.2826747372)
 A2 = (   0.0000000000, -10.5418321087,   0.0000000000)
 A3 = (  13.7731615424,   0.0000000000,  20.5653494744)


Analysis of symmetry for initial positions (statically):
=====================================================================
 Subroutine PRICEL returns following result:
 
  LATTYP: Found a base centered monoclinic cell.
 ALAT       =    10.9043833779
 B/A-ratio  =     0.4833758931
 C/A-ratio  =     0.9547398702
 COS(beta)  =    -0.7916717499
  
  Lattice vectors:
  
 A1 = (  -1.8146747023,  -2.6354580272,   5.1413373686)
 A2 = (  -1.8146747023,   2.6354580272,   5.1413373686)
 A3 = (  -1.6286156833,   0.0000000000, -10.2826747372)
 
   8 primitive cells build up your supercell.
 

 Routine SETGRP: Setting up the symmetry group for a 
 simple monoclinic supercell.


 Subroutine GETGRP returns: Found  2 space group operations
 (whereof  1 operations were pure point group operations)
 out of a pool of  4 trial point group operations.


The static configuration has the point symmetry C_1 .
 The point group associated with its full space group is C_2 .


Analysis of symmetry for dynamics (positions and initial velocities):
=====================================================================
 Subroutine PRICEL returns following result:
 
  LATTYP: Found a base centered monoclinic cell.
 ALAT       =    10.9043833779
 B/A-ratio  =     0.4833758931
 C/A-ratio  =     0.9547398702
 COS(beta)  =    -0.7916717499
  
  Lattice vectors:
  
 A1 = (  -1.8146747023,  -2.6354580272,   5.1413373686)
 A2 = (  -1.8146747023,   2.6354580272,   5.1413373686)
 A3 = (  -1.6286156833,   0.0000000000, -10.2826747372)
 
   8 primitive cells build up your supercell.
 

 Routine SETGRP: Setting up the symmetry group for a 
 simple monoclinic supercell.


 Subroutine GETGRP returns: Found  2 space group operations
 (whereof  1 operations were pure point group operations)
 out of a pool of  4 trial point group operations.


The dynamic configuration has the point symmetry C_1 .
 The point group associated with its full space group is C_2 .


Analysis of structural, dynamic, and magnetic symmetry:
=====================================================================
 Subroutine PRICEL returns following result:
 
  LATTYP: Found a base centered monoclinic cell.
 ALAT       =    10.9043833779
 B/A-ratio  =     0.4833758931
 C/A-ratio  =     0.9547398702
 COS(beta)  =    -0.7916717499
  
  Lattice vectors:
  
 A1 = (  -1.8146747023,  -2.6354580272,   5.1413373686)
 A2 = (  -1.8146747023,   2.6354580272,   5.1413373686)
 A3 = (  -1.6286156833,   0.0000000000, -10.2826747372)
 
   8 primitive cells build up your supercell.
 

 Routine SETGRP: Setting up the symmetry group for a 
 simple monoclinic supercell.


 Subroutine GETGRP returns: Found  2 space group operations
 (whereof  1 operations were pure point group operations)
 out of a pool of  4 trial point group operations.


The magnetic configuration has the point symmetry C_1 .
 The point group associated with its full space group is C_2 .


 Subroutine INISYM returns: Found  2 space group operations
 (whereof  1 operations are pure point group operations),
 and found     8 'primitive' translations

 
 
 KPOINTS: Automatic mesh                          

Automatic generation of k-mesh.
Space group operators:
 irot       det(A)        alpha          n_x          n_y          n_z        tau_x        tau_y        tau_z
    1     1.000000     0.000000     1.000000     0.000000     0.000000     0.000000     0.000000     0.000000
    2     1.000000   180.000000     0.000000     1.000000     0.000000    -0.250000     0.000000    -0.250000
 
 Subroutine IBZKPT returns following result:
 ===========================================
 
 Found     30 irreducible k-points:
 
 Following reciprocal coordinates:
            Coordinates               Weight
  0.000000  0.000000  0.000000      1.000000
  0.250000  0.000000  0.000000      2.000000
  0.500000  0.000000  0.000000      1.000000
  0.000000  0.250000  0.000000      2.000000
  0.250000  0.250000  0.000000      4.000000
  0.500000  0.250000  0.000000      2.000000
  0.000000  0.500000  0.000000      1.000000
  0.250000  0.500000  0.000000      2.000000
  0.500000  0.500000  0.000000      1.000000
  0.000000  0.000000  0.250000      2.000000
  0.250000  0.000000  0.250000      2.000000
  0.500000  0.000000  0.250000      2.000000
 -0.250000  0.000000  0.250000      2.000000
  0.000000  0.250000  0.250000      4.000000
  0.250000  0.250000  0.250000      4.000000
  0.500000  0.250000  0.250000      4.000000
 -0.250000  0.250000  0.250000      4.000000
  0.000000  0.500000  0.250000      2.000000
  0.250000  0.500000  0.250000      2.000000
  0.500000  0.500000  0.250000      2.000000
 -0.250000  0.500000  0.250000      2.000000
  0.000000  0.000000  0.500000      1.000000
  0.250000  0.000000  0.500000      2.000000
  0.500000  0.000000  0.500000      1.000000
  0.000000  0.250000  0.500000      2.000000
  0.250000  0.250000  0.500000      4.000000
  0.500000  0.250000  0.500000      2.000000
  0.000000  0.500000  0.500000      1.000000
  0.250000  0.500000  0.500000      2.000000
  0.500000  0.500000  0.500000      1.000000
 
 Following cartesian coordinates:
            Coordinates               Weight
  0.000000  0.000000  0.000000      1.000000
  0.023773  0.000000 -0.003765      2.000000
  0.047547  0.000000 -0.007531      1.000000
  0.000000  0.023715  0.000000      2.000000
  0.023773  0.023715 -0.003765      4.000000
  0.047547  0.023715 -0.007531      2.000000
  0.000000  0.047430  0.000000      1.000000
  0.023773  0.047430 -0.003765      2.000000
  0.047547  0.047430 -0.007531      1.000000
  0.000000  0.000000  0.024313      2.000000
  0.023773  0.000000  0.020547      2.000000
  0.047547  0.000000  0.016782      2.000000
 -0.023773  0.000000  0.028078      2.000000
  0.000000  0.023715  0.024313      4.000000
  0.023773  0.023715  0.020547      4.000000
  0.047547  0.023715  0.016782      4.000000
 -0.023773  0.023715  0.028078      4.000000
  0.000000  0.047430  0.024313      2.000000
  0.023773  0.047430  0.020547      2.000000
  0.047547  0.047430  0.016782      2.000000
 -0.023773  0.047430  0.028078      2.000000
  0.000000  0.000000  0.048625      1.000000
  0.023773  0.000000  0.044860      2.000000
  0.047547  0.000000  0.041095      1.000000
  0.000000  0.023715  0.048625      2.000000
  0.023773  0.023715  0.044860      4.000000
  0.047547  0.023715  0.041095      2.000000
  0.000000  0.047430  0.048625      1.000000
  0.023773  0.047430  0.044860      2.000000
  0.047547  0.047430  0.041095      1.000000
 
 TETIRR: Found    192 inequivalent tetrahedra from      384
 
 Subroutine IBZKPT_HF returns following result:
 ==============================================
 
 Found     64 k-points in 1st BZ
 the following     64 k-points will be used (e.g. in the exchange kernel)
 Following reciprocal coordinates:   # in IRBZ
  0.000000  0.000000  0.000000    0.01562500   1 t-inv F
  0.250000  0.000000  0.000000    0.01562500   2 t-inv F
  0.500000  0.000000  0.000000    0.01562500   3 t-inv F
  0.000000  0.250000  0.000000    0.01562500   4 t-inv F
  0.250000  0.250000  0.000000    0.01562500   5 t-inv F
  0.500000  0.250000  0.000000    0.01562500   6 t-inv F
  0.000000  0.500000  0.000000    0.01562500   7 t-inv F
  0.250000  0.500000  0.000000    0.01562500   8 t-inv F
  0.500000  0.500000  0.000000    0.01562500   9 t-inv F
  0.000000  0.000000  0.250000    0.01562500  10 t-inv F
  0.250000  0.000000  0.250000    0.01562500  11 t-inv F
  0.500000  0.000000  0.250000    0.01562500  12 t-inv F
 -0.250000  0.000000  0.250000    0.01562500  13 t-inv F
  0.000000  0.250000  0.250000    0.01562500  14 t-inv F
  0.250000  0.250000  0.250000    0.01562500  15 t-inv F
  0.500000  0.250000  0.250000    0.01562500  16 t-inv F
 -0.250000  0.250000  0.250000    0.01562500  17 t-inv F
  0.000000  0.500000  0.250000    0.01562500  18 t-inv F
  0.250000  0.500000  0.250000    0.01562500  19 t-inv F
  0.500000  0.500000  0.250000    0.01562500  20 t-inv F
 -0.250000  0.500000  0.250000    0.01562500  21 t-inv F
  0.000000  0.000000  0.500000    0.01562500  22 t-inv F
  0.250000  0.000000  0.500000    0.01562500  23 t-inv F
  0.500000  0.000000  0.500000    0.01562500  24 t-inv F
  0.000000  0.250000  0.500000    0.01562500  25 t-inv F
  0.250000  0.250000  0.500000    0.01562500  26 t-inv F
  0.500000  0.250000  0.500000    0.01562500  27 t-inv F
  0.000000  0.500000  0.500000    0.01562500  28 t-inv F
  0.250000  0.500000  0.500000    0.01562500  29 t-inv F
  0.500000  0.500000  0.500000    0.01562500  30 t-inv F
 -0.250000  0.000000 -0.000000    0.01562500   2 t-inv F spinflp
 -0.250000  0.250000 -0.000000    0.01562500   5 t-inv F spinflp
 -0.250000  0.500000 -0.000000    0.01562500   8 t-inv F spinflp
  0.000000  0.000000 -0.250000    0.01562500  10 t-inv F spinflp
 -0.250000  0.000000 -0.250000    0.01562500  11 t-inv F spinflp
 -0.500000  0.000000 -0.250000    0.01562500  12 t-inv F spinflp
  0.250000  0.000000 -0.250000    0.01562500  13 t-inv F spinflp
  0.000000  0.250000 -0.250000    0.01562500  14 t-inv F spinflp
 -0.250000  0.250000 -0.250000    0.01562500  15 t-inv F spinflp
 -0.500000  0.250000 -0.250000    0.01562500  16 t-inv F spinflp
  0.250000  0.250000 -0.250000    0.01562500  17 t-inv F spinflp
  0.000000  0.500000 -0.250000    0.01562500  18 t-inv F spinflp
 -0.250000  0.500000 -0.250000    0.01562500  19 t-inv F spinflp
 -0.500000  0.500000 -0.250000    0.01562500  20 t-inv F spinflp
  0.250000  0.500000 -0.250000    0.01562500  21 t-inv F spinflp
 -0.250000  0.000000 -0.500000    0.01562500  23 t-inv F spinflp
 -0.250000  0.250000 -0.500000    0.01562500  26 t-inv F spinflp
 -0.250000  0.500000 -0.500000    0.01562500  29 t-inv F spinflp
  0.000000 -0.250000  0.000000    0.01562500   4 t-inv T
 -0.250000 -0.250000 -0.000000    0.01562500   5 t-inv T
  0.250000 -0.250000  0.000000    0.01562500   5 t-inv T spinflp
 -0.500000 -0.250000 -0.000000    0.01562500   6 t-inv T
  0.000000 -0.250000 -0.250000    0.01562500  14 t-inv T
  0.000000 -0.250000  0.250000    0.01562500  14 t-inv T spinflp
 -0.250000 -0.250000 -0.250000    0.01562500  15 t-inv T
  0.250000 -0.250000  0.250000    0.01562500  15 t-inv T spinflp
 -0.500000 -0.250000 -0.250000    0.01562500  16 t-inv T
  0.500000 -0.250000  0.250000    0.01562500  16 t-inv T spinflp
  0.250000 -0.250000 -0.250000    0.01562500  17 t-inv T
 -0.250000 -0.250000  0.250000    0.01562500  17 t-inv T spinflp
  0.000000 -0.250000 -0.500000    0.01562500  25 t-inv T
 -0.250000 -0.250000 -0.500000    0.01562500  26 t-inv T
  0.250000 -0.250000  0.500000    0.01562500  26 t-inv T spinflp
 -0.500000 -0.250000 -0.500000    0.01562500  27 t-inv T


--------------------------------------------------------------------------------------------------------




 Dimension of arrays:
   k-points           NKPTS =     30   k-points in BZ     NKDIM =     30   number of bands    NBANDS=    512
   number of dos      NEDOS =    301   number of ions     NIONS =     64
   non local maximal  LDIM  =      6   non local SUM 2l+1 LMDIM =     18
   total plane-waves  NPLWV = 829440
   max r-space proj   IRMAX =      1   max aug-charges    IRDMAX=  23121
   dimension x,y,z NGX =    96 NGY =   96 NGZ =   90
   dimension x,y,z NGXF=   192 NGYF=  192 NGZF=  180
   support grid    NGXF=   192 NGYF=  192 NGZF=  180
   ions per type =              32  16  16
   NGX,Y,Z   is equivalent  to a cutoff of  15.18, 15.14, 14.37 a.u.
   NGXF,Y,Z  is equivalent  to a cutoff of  30.35, 30.28, 28.74 a.u.

 SYSTEM =  CuFeS2                                  
 POSCAR =  generated by phonopy                    

 Startparameter for this run:
   NWRITE =      2    write-flag & timer
   PREC   = accura    normal or accurate (medium, high low for compatibility)
   ISTART =      1    job   : 0-new  1-cont  2-samecut
   ICHARG =      1    charge: 1-file 2-atom 10-const
   ISPIN  =      2    spin polarized calculation?
   LNONCOLLINEAR =      F non collinear calculations
   LSORBIT =      F    spin-orbit coupling
   INIWAV =      1    electr: 0-lowe 1-rand  2-diag
   LASPH  =      F    aspherical Exc in radial PAW
   METAGGA=      F    non-selfconsistent MetaGGA calc.

 Electronic Relaxation 1
   ENCUT  =  700.0 eV  51.45 Ry    7.17 a.u.  22.69 22.74 22.46*2*pi/ulx,y,z
   ENINI  =  700.0     initial cutoff
   ENAUG  =  758.2 eV  augmentation charge cutoff
   NELM   =    500;   NELMIN=  2; NELMDL=  0     # of ELM steps 
   EDIFF  = 0.1E-07   stopping-criterion for ELM
   LREAL  =      F    real-space projection
   NLSPLINE    = F    spline interpolate recip. space projectors
   LCOMPAT=      F    compatible to vasp.4.4
   GGA_COMPAT  = T    GGA compatible to vasp.4.4-vasp.4.6
   LMAXPAW     = -100 max onsite density
   LMAXMIX     =    4 max onsite mixed and CHGCAR
   VOSKOWN=      0    Vosko Wilk Nusair interpolation
   ROPT   =    0.00000   0.00000   0.00000
 Ionic relaxation
   EDIFFG = -.1E-04   stopping-criterion for IOM
   NSW    =      0    number of steps for IOM
   NBLOCK =      1;   KBLOCK =      1    inner block; outer block 
   IBRION =     -1    ionic relax: 0-MD 1-quasi-New 2-CG
   NFREE  =      0    steps in history (QN), initial steepest desc. (CG)
   ISIF   =      2    stress and relaxation
   IWAVPR =     10    prediction:  0-non 1-charg 2-wave 3-comb
   ISYM   =      2    0-nonsym 1-usesym 2-fastsym
   LCORR  =      T    Harris-Foulkes like correction to forces

   POTIM  = 0.5000    time-step for ionic-motion
   TEIN   =    0.0    initial temperature
   TEBEG  =    0.0;   TEEND  =   0.0 temperature during run
   SMASS  =  -3.00    Nose mass-parameter (am)
   estimated Nose-frequenzy (Omega)   =  0.10E-29 period in steps =****** mass=  -0.253E-26a.u.
   SCALEE = 1.0000    scale energy and forces
   NPACO  =    256;   APACO  = 16.0  distance and # of slots for P.C.
   PSTRESS=    0.0 pullay stress

  Mass of Ions in am
   POMASS =  32.07 63.55 55.85
  Ionic Valenz
   ZVAL   =   6.00 17.00 14.00
  Atomic Wigner-Seitz radii
   RWIGS  =  -1.00 -1.00 -1.00
  virtual crystal weights 
   VCA    =   1.00  1.00  1.00
   NELECT =     688.0000    total number of electrons
   NUPDOWN=      -1.0000    fix difference up-down

 DOS related values:
   EMIN   =  10.00;   EMAX   =-10.00  energy-range for DOS
   EFERMI =   0.00
   ISMEAR =    -5;   SIGMA  =   0.03  broadening in eV -4-tet -1-fermi 0-gaus

 Electronic relaxation 2 (details)
   IALGO  =     38    algorithm
   LDIAG  =      T    sub-space diagonalisation (order eigenvalues)
   LSUBROT=      F    optimize rotation matrix (better conditioning)
   TURBO    =      0    0=normal 1=particle mesh
   IRESTART =      0    0=no restart 2=restart with 2 vectors
   NREBOOT  =      0    no. of reboots
   NMIN     =      0    reboot dimension
   EREF     =   0.00    reference energy to select bands
   IMIX   =      4    mixing-type and parameters
     AMIX     =   0.40;   BMIX     =  1.00
     AMIX_MAG =   1.60;   BMIX_MAG =  1.00
     AMIN     =   0.10
     WC   =   100.;   INIMIX=   1;  MIXPRE=   1;  MAXMIX= -45

 Intra band minimization:
   WEIMIN = 0.0000     energy-eigenvalue tresh-hold
   EBREAK =  0.49E-11  absolut break condition
   DEPER  =   0.30     relativ break condition  

   TIME   =   0.40     timestep for ELM

  volume/ion in A,a.u.               =      17.81       120.20
  Fermi-wavevector in a.u.,A,eV,Ry     =   1.383506  2.614447 26.042756  1.914089
  Thomas-Fermi vector in A             =   2.508097
 
 Write flags
   LWAVE        =      T    write WAVECAR
   LDOWNSAMPLE  =      F    k-point downsampling of WAVECAR
   LCHARG       =      T    write CHGCAR
   LVTOT        =      F    write LOCPOT, total local potential
   LVHAR        =      F    write LOCPOT, Hartree potential only
   LELF         =      F    write electronic localiz. function (ELF)
   LORBIT       =     11    0 simple, 1 ext, 2 COOP (PROOUT), +10 PAW based schemes


 Dipole corrections
   LMONO  =      F    monopole corrections only (constant potential shift)
   LDIPOL =      F    correct potential (dipole corrections)
   IDIPOL =      0    1-x, 2-y, 3-z, 4-all directions 
   EPSILON=  1.0000000 bulk dielectric constant

 LDA+U is selected, type is set to LDAUTYPE =  2
   angular momentum for each species LDAUL =     2    2    2
   U (eV)           for each species LDAUU =   0.0  0.1  4.7
   J (eV)           for each species LDAUJ =   0.0  0.0  0.0
 Exchange correlation treatment:
   GGA     =    PS    GGA type
   LEXCH   =    14    internal setting for exchange type
   VOSKOWN=      0    Vosko Wilk Nusair interpolation
   LHFCALC =     F    Hartree Fock is set to
   LHFONE  =     F    Hartree Fock one center treatment
   AEXX    =    0.0000 exact exchange contribution

 Linear response parameters
   LEPSILON=     T    determine dielectric tensor
   LRPA    =     F    only Hartree local field effects (RPA)
   LNABLA  =     F    use nabla operator in PAW spheres
   LVEL    =     F    velocity operator in full k-point grid
   LINTERFAST=   F  fast interpolation
   KINTER  =     0    interpolate to denser k-point grid
   CSHIFT  =0.1000    complex shift for real part using Kramers Kronig
   OMEGAMAX=  -1.0    maximum frequency
   DEG_THRESHOLD= 0.2000000E-02 threshold for treating states as degnerate
   RTIME   =   -0.100 relaxation time in fs
  (WPLASMAI=    0.000 imaginary part of plasma frequency in eV, 0.658/RTIME)
   DFIELD  = 0.0000000 0.0000000 0.0000000 field for delta impulse in time
 
 Orbital magnetization related:
   ORBITALMAG=     F  switch on orbital magnetization
   LCHIMAG   =     F  perturbation theory with respect to B field
   DQ        =  0.001000  dq finite difference perturbation B field
   LLRAUG    =     F  two centre corrections for induced B field

 PEAD related settings:
   LPEAD      =     T    switch on PEAD
   IPEAD      =     4    finite difference order for dpsi/dk
   LCALCPOL   =     T    calculate macroscopic polarization
   LCALCEPS   =     F    calculate dielectric tensor
   EFIELD_PEAD=    0.0000    0.0000    0.0000
   SKIP_EDOTP =     F
   LRPA       =     F
   SKIP_SCF   =     F


--------------------------------------------------------------------------------------------------------


 Static calculation
 charge density and potential will be updated during run
 spin polarized calculation
 Variant of blocked Davidson
 Davidson routine will perform the subspace rotation
 perform sub-space diagonalisation
    after iterative eigenvector-optimisation
 modified Broyden-mixing scheme, WC =      100.0
 initial mixing is a Kerker type mixing with AMIX =  0.4000 and BMIX =      1.0000
 Hartree-type preconditioning will be used
 using additional bands          168
 reciprocal scheme for non local part
 use partial core corrections
 calculate Harris-corrections to forces 
   (improved forces if not selfconsistent)
 use gradient corrections 
 use of overlap-Matrix (Vanderbilt PP)
 Fermi weights with tetrahedron method with Bloechl corrections


--------------------------------------------------------------------------------------------------------


  energy-cutoff  :      700.00
  volume of cell :     1139.91
      direct lattice vectors                 reciprocal lattice vectors
    10.515930176  0.000000000  0.000000000     0.095093823  0.000000000 -0.015061382
     0.000000000 10.541832109  0.000000000     0.000000000  0.094860171  0.000000000
     1.628615683  0.000000000 10.282674737     0.000000000  0.000000000  0.097250961

  length of vectors
    10.515930176 10.541832109 10.410849571     0.096279179  0.094860171  0.097250961


 
 old parameters found on file WAVECAR:
  energy-cutoff  :      700.00
  volume of cell :     1139.82
      direct lattice vectors                 reciprocal lattice vectors
    10.515930176  0.000000000  0.000000000     0.095093823  0.000000000 -0.015061382
     0.000000000 10.540985853  0.000000000     0.000000000  0.094867787  0.000000000
     1.628615683  0.000000000 10.282674737     0.000000000  0.000000000  0.097250961

  length of vectors

 
 k-points in units of 2pi/SCALE and weight: Automatic mesh                          
   0.00000000  0.00000000  0.00000000       0.016
   0.02377346  0.00000000 -0.00376535       0.031
   0.04754691  0.00000000 -0.00753069       0.016
   0.00000000  0.02371504  0.00000000       0.031
   0.02377346  0.02371504 -0.00376535       0.062
   0.04754691  0.02371504 -0.00753069       0.031
   0.00000000  0.04743009  0.00000000       0.016
   0.02377346  0.04743009 -0.00376535       0.031
   0.04754691  0.04743009 -0.00753069       0.016
   0.00000000  0.00000000  0.02431274       0.031
   0.02377346  0.00000000  0.02054739       0.031
   0.04754691  0.00000000  0.01678205       0.031
  -0.02377346  0.00000000  0.02807809       0.031
   0.00000000  0.02371504  0.02431274       0.062
   0.02377346  0.02371504  0.02054739       0.062
   0.04754691  0.02371504  0.01678205       0.062
  -0.02377346  0.02371504  0.02807809       0.062
   0.00000000  0.04743009  0.02431274       0.031
   0.02377346  0.04743009  0.02054739       0.031
   0.04754691  0.04743009  0.01678205       0.031
  -0.02377346  0.04743009  0.02807809       0.031
   0.00000000  0.00000000  0.04862548       0.016
   0.02377346  0.00000000  0.04486014       0.031
   0.04754691  0.00000000  0.04109479       0.016
   0.00000000  0.02371504  0.04862548       0.031
   0.02377346  0.02371504  0.04486014       0.062
   0.04754691  0.02371504  0.04109479       0.031
   0.00000000  0.04743009  0.04862548       0.016
   0.02377346  0.04743009  0.04486014       0.031
   0.04754691  0.04743009  0.04109479       0.016
 
 k-points in reciprocal lattice and weights: Automatic mesh                          
   0.00000000  0.00000000  0.00000000       0.016
   0.25000000  0.00000000  0.00000000       0.031
   0.50000000  0.00000000  0.00000000       0.016
   0.00000000  0.25000000  0.00000000       0.031
   0.25000000  0.25000000  0.00000000       0.062
   0.50000000  0.25000000  0.00000000       0.031
   0.00000000  0.50000000  0.00000000       0.016
   0.25000000  0.50000000  0.00000000       0.031
   0.50000000  0.50000000  0.00000000       0.016
   0.00000000  0.00000000  0.25000000       0.031
   0.25000000  0.00000000  0.25000000       0.031
   0.50000000  0.00000000  0.25000000       0.031
  -0.25000000  0.00000000  0.25000000       0.031
   0.00000000  0.25000000  0.25000000       0.062
   0.25000000  0.25000000  0.25000000       0.062
   0.50000000  0.25000000  0.25000000       0.062
  -0.25000000  0.25000000  0.25000000       0.062
   0.00000000  0.50000000  0.25000000       0.031
   0.25000000  0.50000000  0.25000000       0.031
   0.50000000  0.50000000  0.25000000       0.031
  -0.25000000  0.50000000  0.25000000       0.031
   0.00000000  0.00000000  0.50000000       0.016
   0.25000000  0.00000000  0.50000000       0.031
   0.50000000  0.00000000  0.50000000       0.016
   0.00000000  0.25000000  0.50000000       0.031
   0.25000000  0.25000000  0.50000000       0.062
   0.50000000  0.25000000  0.50000000       0.031
   0.00000000  0.50000000  0.50000000       0.016
   0.25000000  0.50000000  0.50000000       0.031
   0.50000000  0.50000000  0.50000000       0.016
 
 position of ions in fractional coordinates (direct lattice) 
   0.12678639  0.11467765  0.12647404
   0.62678637  0.11467765  0.12647404
   0.12678639  0.61467765  0.12647404
   0.62678637  0.61467765  0.12647404
   0.37321363  0.36467765  0.12352596
   0.87321363  0.36467765  0.12352596
   0.37321363  0.86467765  0.12352596
   0.87321363  0.86467765  0.12352596
   0.12500000  0.36867938  0.87500000
   0.62500000  0.36867938  0.87500000
   0.12500000  0.86867938  0.87500000
   0.62500000  0.86867938  0.87500000
   0.37500000  0.11943496  0.87500000
   0.87500000  0.11943496  0.87500000
   0.37500000  0.61943494  0.87500000
   0.87500000  0.61943494  0.87500000
   0.12321362  0.11467765  0.62352596
   0.62321363  0.11467765  0.62352596
   0.12321362  0.61467765  0.62352596
   0.62321363  0.61467765  0.62352596
   0.37678637  0.36467765  0.62647404
   0.87678637  0.36467765  0.62647404
   0.37678637  0.86467765  0.62647404
   0.87678637  0.86467765  0.62647404
   0.37500000  0.11867937  0.37500000
   0.87500000  0.11867937  0.37500000
   0.37500000  0.61867938  0.37500000
   0.87500000  0.61867938  0.37500000
   0.12500000  0.36943494  0.37500000
   0.62500000  0.36943494  0.37500000
   0.12500000  0.86943494  0.37500000
   0.62500000  0.86943494  0.37500000
   0.99578463  0.00816938  0.50003707
   0.49578463  0.00816938  0.50003707
   0.99578463  0.50816938  0.50003707
   0.49578463  0.50816938  0.50003707
   0.25421537  0.00816938  0.24996293
   0.75421537  0.00816938  0.24996293
   0.25421537  0.50816938  0.24996293
   0.75421537  0.50816938  0.24996293
   0.24578463  0.25816938  0.00003707
   0.74578463  0.25816938  0.00003707
   0.24578463  0.75816938  0.00003707
   0.74578463  0.75816938  0.00003707
   0.00421537  0.25816938  0.74996293
   0.50421537  0.25816938  0.74996293
   0.00421537  0.75816938  0.74996293
   0.50421537  0.75816938  0.74996293
   0.99736738  0.00809581  0.00175891
   0.49736738  0.00809581  0.00175891
   0.99736738  0.50809581  0.00175891
   0.49736738  0.50809581  0.00175891
   0.25263262  0.00809581  0.74824109
   0.75263262  0.00809581  0.74824109
   0.25263262  0.50809581  0.74824109
   0.75263262  0.50809581  0.74824109
   0.24736738  0.25809581  0.50175891
   0.74736738  0.25809581  0.50175891
   0.24736738  0.75809581  0.50175891
   0.74736738  0.75809581  0.50175891
   0.00263262  0.25809581  0.24824109
   0.50263262  0.25809581  0.24824109
   0.00263262  0.75809581  0.24824109
   0.50263262  0.75809581  0.24824109
 
 position of ions in cartesian coordinates  (Angst):
   1.53925440  1.20891257  1.30049144
   6.79721933  1.20891257  1.30049144
   1.53925440  6.47982862  1.30049144
   6.79721933  6.47982862  1.30049144
   4.12586477  3.84437060  1.27017724
   9.38382985  3.84437060  1.27017724
   4.12586477  9.11528665  1.27017724
   9.38382985  9.11528665  1.27017724
   2.73952999  3.88655612  8.99734040
   7.99749508  3.88655612  8.99734040
   2.73952999  9.15747218  8.99734040
   7.99749508  9.15747218  8.99734040
   5.36851254  1.25906325  8.99734040
  10.62647763  1.25906325  8.99734040
   5.36851254  6.52997914  8.99734040
  10.62647763  6.52997914  8.99734040
   2.31118998  1.20891257  6.41151461
   7.56915515  1.20891257  6.41151461
   2.31118998  6.47982862  6.41151461
   7.56915515  6.47982862  6.41151461
   4.98254463  3.84437060  6.44182881
  10.24050972  3.84437060  6.44182881
   4.98254463  9.11528665  6.44182881
  10.24050972  9.11528665  6.44182881
   4.55420470  1.25109801  3.85600303
   9.81216979  1.25109801  3.85600303
   4.55420470  6.52201415  3.85600303
   9.81216979  6.52201415  3.85600303
   1.92522215  3.89452112  3.85600303
   7.18318724  3.89452112  3.85600303
   1.92522215  9.16543717  3.85600303
   7.18318724  9.16543717  3.85600303
  11.28596986  0.08612022  5.14171854
   6.02800477  0.08612022  5.14171854
  11.28596986  5.35703627  5.14171854
   6.02800477  5.35703627  5.14171854
   3.08040463  0.08612022  2.57028751
   8.33836971  0.08612022  2.57028751
   3.08040463  5.35703627  2.57028751
   8.33836971  5.35703627  2.57028751
   2.58471438  2.72157824  0.00038117
   7.84267947  2.72157824  0.00038117
   2.58471438  7.99249430  0.00038117
   7.84267947  7.99249430  0.00038117
   1.26572992  2.72157824  7.71162488
   6.52369501  2.72157824  7.71162488
   1.26572992  7.99249430  7.71162488
   6.52369501  7.99249430  7.71162488
  10.49111026  0.08534465  0.01808626
   5.23314517  0.08534465  0.01808626
  10.49111026  5.35626071  0.01808626
   5.23314517  5.35626071  0.01808626
   3.87526423  0.08534465  7.69391980
   9.13322931  0.08534465  7.69391980
   3.87526423  5.35626071  7.69391980
   9.13322931  5.35626071  7.69391980
   3.41847047  2.72080268  5.15942362
   8.67643555  2.72080268  5.15942362
   3.41847047  7.99171873  5.15942362
   8.67643555  7.99171873  5.15942362
   0.43197384  2.72080268  2.55258243
   5.68993893  2.72080268  2.55258243
   0.43197384  7.99171873  2.55258243
   5.68993893  7.99171873  2.55258243
 


--------------------------------------------------------------------------------------------------------


 k-point  1 :   0.0000 0.0000 0.0000  plane waves:   47927
 k-point  2 :   0.2500 0.0000 0.0000  plane waves:   47933
 k-point  3 :   0.5000 0.0000 0.0000  plane waves:   47982
 k-point  4 :   0.0000 0.2500 0.0000  plane waves:   47965
 k-point  5 :   0.2500 0.2500 0.0000  plane waves:   47949
 k-point  6 :   0.5000 0.2500 0.0000  plane waves:   47914
 k-point  7 :   0.0000 0.5000 0.0000  plane waves:   48018
 k-point  8 :   0.2500 0.5000 0.0000  plane waves:   47964
 k-point  9 :   0.5000 0.5000 0.0000  plane waves:   47916
 k-point 10 :   0.0000 0.0000 0.2500  plane waves:   47952
 k-point 11 :   0.2500 0.0000 0.2500  plane waves:   47944
 k-point 12 :   0.5000 0.0000 0.2500  plane waves:   47949
 k-point 13 :  -0.2500 0.0000 0.2500  plane waves:   47955
 k-point 14 :   0.0000 0.2500 0.2500  plane waves:   47946
 k-point 15 :   0.2500 0.2500 0.2500  plane waves:   47931
 k-point 16 :   0.5000 0.2500 0.2500  plane waves:   47917
 k-point 17 :  -0.2500 0.2500 0.2500  plane waves:   47914
 k-point 18 :   0.0000 0.5000 0.2500  plane waves:   47964
 k-point 19 :   0.2500 0.5000 0.2500  plane waves:   47946
 k-point 20 :   0.5000 0.5000 0.2500  plane waves:   47940
 k-point 21 :  -0.2500 0.5000 0.2500  plane waves:   47944
 k-point 22 :   0.0000 0.0000 0.5000  plane waves:   47934
 k-point 23 :   0.2500 0.0000 0.5000  plane waves:   47968
 k-point 24 :   0.5000 0.0000 0.5000  plane waves:   47938
 k-point 25 :   0.0000 0.2500 0.5000  plane waves:   47908
 k-point 26 :   0.2500 0.2500 0.5000  plane waves:   47927
 k-point 27 :   0.5000 0.2500 0.5000  plane waves:   47930
 k-point 28 :   0.0000 0.5000 0.5000  plane waves:   47916
 k-point 29 :   0.2500 0.5000 0.5000  plane waves:   47876
 k-point 30 :   0.5000 0.5000 0.5000  plane waves:   47896

 maximum and minimum number of plane-waves per node :     48018    47876

 maximum number of plane-waves:     48018
 maximum index in each direction: 
   IXMAX=   22   IYMAX=   22   IZMAX=   22
   IXMIN=  -23   IYMIN=  -23   IZMIN=  -22


 serial   3D FFT for wavefunctions
 parallel 3D FFT for charge:
    minimum data exchange during FFTs selected (reduces bandwidth)


 total amount of memory used by VASP MPI-rank0   873689. kBytes
=======================================================================

   base      :      30000. kBytes
   nonl-proj :     673021. kBytes
   fftplans  :       4588. kBytes
   grid      :      69719. kBytes
   one-center:       1990. kBytes
   wavefun   :      94371. kBytes
 
     INWAV:  cpu time   58.4800: real time   58.8368
 Broyden mixing: mesh for mixing (old mesh)
   NGX = 45   NGY = 45   NGZ = 45
  (NGX  =192   NGY  =192   NGZ  =180)
  gives a total of  91125 points

 initial charge density was supplied:
 number of electron     687.9999938 magnetization       0.0000000
 keeping initial charge density in first step


--------------------------------------------------------------------------------------------------------


 Maximum index for augmentation-charges          891 (set IRDMAX)


--------------------------------------------------------------------------------------------------------


 First call to EWALD:  gamma=   0.170
 Maximum number of real-space cells 3x 3x 3
 Maximum number of reciprocal cells 3x 3x 3

    FEWALD:  cpu time    0.0025: real time    0.0025


--------------------------------------- Iteration      1(   1)  ---------------------------------------


    POTLOK:  cpu time    0.3291: real time    0.3684
    SETDIJ:  cpu time    0.0151: real time    0.0152
     EDDAV:  cpu time  431.3747: real time  436.2709
 BZINTS: Fermi energy:  5.260629;688.000000 electrons
         Band energy:***********;  BLOECHL correction:  0.000000
       DOS:  cpu time    0.0492: real time    0.0503
    CHARGE:  cpu time    3.9789: real time    4.0735
    MIXING:  cpu time    0.0053: real time    0.0054
    --------------------------------------------
      LOOP:  cpu time  435.7525: real time  440.7838

 eigenvalue-minimisations  : 70656
 total energy-change (2. order) :-0.3254585E+03  (-0.4051762E-04)
 number of electron     687.9999938 magnetization       0.0000000
 augmentation part      282.2862395 magnetization       0.0000000

 Broyden mixing:
  rms(total) = 0.11607E-02    rms(broyden)= 0.11607E-02
  rms(prec ) = 0.14292E-02
  weight for this iteration     100.00

 Free energy of the ion-electron system (eV)
  ---------------------------------------------------
  alpha Z        PSCENC =      2378.39370286
  Ewald energy   TEWEN  =    -62757.04357317
  -Hartree energ DENC   =    -42777.66777776
  -exchange      EXHF   =         0.00000000
  -V(xc)+E(xc)   XCENC  =      3286.44079963
  PAW double counting   =    112052.43697741  -115742.34391887
  entropy T*S    EENTRO =         0.00000000
  eigenvalues    EBANDS =    -10785.73982839
  atomic energy  EATOM  =    114020.06510763
  Solvation  Ediel_sol  =         0.00000000
  ---------------------------------------------------
  free energy    TOTEN  =      -325.45851066 eV

  energy without entropy =     -325.45851066  energy(sigma->0) =     -325.45851066


--------------------------------------------------------------------------------------------------------




--------------------------------------- Iteration      1(   2)  ---------------------------------------


    POTLOK:  cpu time    0.1222: real time    0.1408
    SETDIJ:  cpu time    0.0138: real time    0.0139
     EDDAV:  cpu time  356.8576: real time  359.6813
 BZINTS: Fermi energy:  5.096266;688.000000 electrons
         Band energy:***********;  BLOECHL correction:  0.000000
       DOS:  cpu time    0.0403: real time    0.0404
    CHARGE:  cpu time    3.9748: real time    4.0012
    MIXING:  cpu time    0.0033: real time    0.2114
    --------------------------------------------
      LOOP:  cpu time  361.0117: real time  364.0890

 eigenvalue-minimisations  : 66048
 total energy-change (2. order) : 0.3852416E-05  (-0.4437932E-06)
 number of electron     687.9999938 magnetization       0.0000000
 augmentation part      282.2863775 magnetization       0.0000000

 Broyden mixing:
  rms(total) = 0.68061E-03    rms(broyden)= 0.68060E-03
  rms(prec ) = 0.82209E-03
  weight for this iteration     100.00

 eigenvalues of (default mixing * dielectric matrix)
  average eigenvalue GAMMA=   1.2033
  1.2033

 Free energy of the ion-electron system (eV)
  ---------------------------------------------------
  alpha Z        PSCENC =      2378.39370286
  Ewald energy   TEWEN  =    -62757.04357317
  -Hartree energ DENC   =    -42777.67613875
  -exchange      EXHF   =         0.00000000
  -V(xc)+E(xc)   XCENC  =      3286.44128451
  PAW double counting   =    112052.41497533  -115742.32122415
  entropy T*S    EENTRO =         0.00000000
  eigenvalues    EBANDS =    -10785.73264108
  atomic energy  EATOM  =    114020.06510763
  Solvation  Ediel_sol  =         0.00000000
  ---------------------------------------------------
  free energy    TOTEN  =      -325.45850681 eV

  energy without entropy =     -325.45850681  energy(sigma->0) =     -325.45850681


--------------------------------------------------------------------------------------------------------




--------------------------------------- Iteration      1(   3)  ---------------------------------------


    POTLOK:  cpu time    0.1218: real time    0.1226
    SETDIJ:  cpu time    0.0128: real time    0.0128
     EDDAV:  cpu time  925.7712: real time  931.9416
 BZINTS: Fermi energy:  5.100934;688.000000 electrons
         Band energy:***********;  BLOECHL correction:  0.000000
       DOS:  cpu time    0.0403: real time    0.0404
    CHARGE:  cpu time    3.9739: real time    4.0007
    MIXING:  cpu time    0.0019: real time    0.0364
    --------------------------------------------
      LOOP:  cpu time  929.9218: real time  936.1545

 eigenvalue-minimisations  :115712
 total energy-change (2. order) : 0.1288296E-05  (-0.6085526E-06)
 number of electron     687.9999938 magnetization       0.0000000
 augmentation part      282.2861354 magnetization       0.0000000

 Broyden mixing:
  rms(total) = 0.79932E-03    rms(broyden)= 0.79931E-03
  rms(prec ) = 0.92691E-03
  weight for this iteration     100.00

 eigenvalues of (default mixing * dielectric matrix)
  average eigenvalue GAMMA=   1.0469
  1.7258  0.3680

 Free energy of the ion-electron system (eV)
  ---------------------------------------------------
  alpha Z        PSCENC =      2378.39370286
  Ewald energy   TEWEN  =    -62757.04357317
  -Hartree energ DENC   =    -42777.66880840
  -exchange      EXHF   =         0.00000000
  -V(xc)+E(xc)   XCENC  =      3286.44021525
  PAW double counting   =    112052.37895229  -115742.28612921
  entropy T*S    EENTRO =         0.00000000
  eigenvalues    EBANDS =    -10785.73797278
  atomic energy  EATOM  =    114020.06510763
  Solvation  Ediel_sol  =         0.00000000
  ---------------------------------------------------
  free energy    TOTEN  =      -325.45850552 eV

  energy without entropy =     -325.45850552  energy(sigma->0) =     -325.45850552


--------------------------------------------------------------------------------------------------------




--------------------------------------- Iteration      1(   4)  ---------------------------------------


    POTLOK:  cpu time    0.1207: real time    0.1233
    SETDIJ:  cpu time    0.0126: real time    0.0127
     EDDAV:  cpu time  388.9953: real time  392.0215
 BZINTS: Fermi energy:  5.222389;688.000000 electrons
         Band energy:***********;  BLOECHL correction:  0.000000
       DOS:  cpu time    0.0480: real time    0.0482
    CHARGE:  cpu time    3.9638: real time    3.9937
    MIXING:  cpu time    0.0020: real time    0.0793
    --------------------------------------------
      LOOP:  cpu time  393.1424: real time  396.2787

 eigenvalue-minimisations  : 69376
 total energy-change (2. order) : 0.1551962E-06  (-0.3311347E-06)
 number of electron     687.9999938 magnetization       0.0000000
 augmentation part      282.2861955 magnetization       0.0000000

 Broyden mixing:
  rms(total) = 0.20106E-03    rms(broyden)= 0.20104E-03
  rms(prec ) = 0.21978E-03
  weight for this iteration     100.00

 eigenvalues of (default mixing * dielectric matrix)
  average eigenvalue GAMMA=   0.9936
  1.9346  0.7042  0.3419

 Free energy of the ion-electron system (eV)
  ---------------------------------------------------
  alpha Z        PSCENC =      2378.39370286
  Ewald energy   TEWEN  =    -62757.04357317
  -Hartree energ DENC   =    -42777.68471143
  -exchange      EXHF   =         0.00000000
  -V(xc)+E(xc)   XCENC  =      3286.44135170
  PAW double counting   =    112052.38948176  -115742.29626157
  entropy T*S    EENTRO =         0.00000000
  eigenvalues    EBANDS =    -10785.72360315
  atomic energy  EATOM  =    114020.06510763
  Solvation  Ediel_sol  =         0.00000000
  ---------------------------------------------------
  free energy    TOTEN  =      -325.45850537 eV

  energy without entropy =     -325.45850537  energy(sigma->0) =     -325.45850537


--------------------------------------------------------------------------------------------------------




--------------------------------------- Iteration      1(   5)  ---------------------------------------


    POTLOK:  cpu time    0.1220: real time    0.1228
    SETDIJ:  cpu time    0.0125: real time    0.0125
     EDDAV:  cpu time  677.6779: real time  682.3535
 BZINTS: Fermi energy:  5.202344;688.000000 electrons
         Band energy:***********;  BLOECHL correction:  0.000000
       DOS:  cpu time    0.0481: real time    0.0483
    CHARGE:  cpu time    4.0064: real time    4.0336
    MIXING:  cpu time    0.0014: real time    0.0014
    --------------------------------------------
      LOOP:  cpu time  681.8683: real time  686.5722

 eigenvalue-minimisations  : 92160
 total energy-change (2. order) :-0.2823072E-08  (-0.2170340E-07)
 number of electron     687.9999938 magnetization      -0.0000000
 augmentation part      282.2862894 magnetization      -0.0000000

 Broyden mixing:
  rms(total) = 0.98774E-04    rms(broyden)= 0.98773E-04
  rms(prec ) = 0.10506E-03
  weight for this iteration     100.00

 eigenvalues of (default mixing * dielectric matrix)
  average eigenvalue GAMMA=   1.0458
  1.8027  1.3299  0.3451  0.7055

 Free energy of the ion-electron system (eV)
  ---------------------------------------------------
  alpha Z        PSCENC =      2378.39370286
  Ewald energy   TEWEN  =    -62757.04357317
  -Hartree energ DENC   =    -42777.67641234
  -exchange      EXHF   =         0.00000000
  -V(xc)+E(xc)   XCENC  =      3286.44114081
  PAW double counting   =    112052.38105587  -115742.28671699
  entropy T*S    EENTRO =         0.00000000
  eigenvalues    EBANDS =    -10785.73281004
  atomic energy  EATOM  =    114020.06510763
  Solvation  Ediel_sol  =         0.00000000
  ---------------------------------------------------
  free energy    TOTEN  =      -325.45850537 eV

  energy without entropy =     -325.45850537  energy(sigma->0) =     -325.45850537


--------------------------------------------------------------------------------------------------------




--------------------------------------- Iteration      1(   6)  ---------------------------------------


    POTLOK:  cpu time    0.1233: real time    0.1273
    SETDIJ:  cpu time    0.0128: real time    0.0129
     EDDAV:  cpu time  398.2593: real time  401.3129
 BZINTS: Fermi energy:  5.199211;688.000000 electrons
         Band energy:***********;  BLOECHL correction:  0.000000
       DOS:  cpu time    0.0481: real time    0.0483
    --------------------------------------------
      LOOP:  cpu time  398.4435: real time  401.5014

 eigenvalue-minimisations  : 69376
 total energy-change (2. order) : 0.8731149E-10  (-0.2678092E-08)
 number of electron     687.9999938 magnetization      -0.0000000
 augmentation part      282.2862894 magnetization      -0.0000000

 Free energy of the ion-electron system (eV)
  ---------------------------------------------------
  alpha Z        PSCENC =      2378.39370286
  Ewald energy   TEWEN  =    -62757.04357317
  -Hartree energ DENC   =    -42777.67623046
  -exchange      EXHF   =         0.00000000
  -V(xc)+E(xc)   XCENC  =      3286.44110282
  PAW double counting   =    112052.37873732  -115742.28483288
  entropy T*S    EENTRO =         0.00000000
  eigenvalues    EBANDS =    -10785.73251950
  atomic energy  EATOM  =    114020.06510763
  Solvation  Ediel_sol  =         0.00000000
  ---------------------------------------------------
  free energy    TOTEN  =      -325.45850537 eV

  energy without entropy =     -325.45850537  energy(sigma->0) =     -325.45850537


--------------------------------------------------------------------------------------------------------




 average (electrostatic) potential at core
  the test charge radii are     0.9698  0.8297  0.9500
  (the norm of the test charge is              1.0000)
       1 -86.5216       2 -86.5216       3 -86.5216       4 -86.5216       5 -86.5216
       6 -86.5216       7 -86.5216       8 -86.5216       9 -86.6061      10 -86.6061
      11 -86.6060      12 -86.6060      13 -86.4064      14 -86.4064      15 -86.4064
      16 -86.4064      17 -86.5216      18 -86.5216      19 -86.5216      20 -86.5216
      21 -86.5216      22 -86.5216      23 -86.5216      24 -86.5216      25 -86.6060
      26 -86.6060      27 -86.6060      28 -86.6060      29 -86.4064      30 -86.4064
      31 -86.4064      32 -86.4064      33 -80.5988      34 -80.5988      35 -80.5988
      36 -80.5988      37 -80.5988      38 -80.5988      39 -80.5988      40 -80.5988
      41 -80.5988      42 -80.5988      43 -80.5988      44 -80.5988      45 -80.5988
      46 -80.5988      47 -80.5988      48 -80.5988      49 -80.0533      50 -80.0533
      51 -80.0533      52 -80.0533      53 -80.0533      54 -80.0533      55 -80.0533
      56 -80.0533      57 -80.0533      58 -80.0533      59 -80.0533      60 -80.0533
      61 -80.0533      62 -80.0533      63 -80.0533      64 -80.0533
 
 
 
 E-fermi :   5.1992     XC(G=0): -10.5313     alpha+bet :-10.6459


 spin component 1

 k-point     1 :       0.0000    0.0000    0.0000
  band No.  band energies     occupation 
      1     -64.2011      1.00000
      2     -64.2011      1.00000
      3     -64.2011      1.00000
      4     -64.2011      1.00000
      5     -64.2011      1.00000
      6     -64.2011      1.00000
      7     -64.2011      1.00000
      8     -64.2011      1.00000
      9     -64.1986      1.00000
     10     -64.1986      1.00000
     11     -64.1986      1.00000
     12     -64.1986      1.00000
     13     -64.1986      1.00000
     14     -64.1986      1.00000
     15     -64.1986      1.00000
     16     -64.1986      1.00000
     17     -64.1847      1.00000
     18     -64.1847      1.00000
     19     -64.1847      1.00000
     20     -64.1847      1.00000
     21     -64.1847      1.00000
     22     -64.1847      1.00000
     23     -64.1847      1.00000
     24     -64.1847      1.00000
     25     -64.1676      1.00000
     26     -64.1676      1.00000
     27     -64.1676      1.00000
     28     -64.1676      1.00000
     29     -64.1676      1.00000
     30     -64.1676      1.00000
     31     -64.1676      1.00000
     32     -64.1676      1.00000
     33     -64.1557      1.00000
     34     -64.1557      1.00000
     35     -64.1557      1.00000
     36     -64.1557      1.00000
     37     -64.1557      1.00000
     38     -64.1557      1.00000
     39     -64.1557      1.00000
     40     -64.1557      1.00000
     41     -64.1474      1.00000
     42     -64.1474      1.00000
     43     -64.1474      1.00000
     44     -64.1474      1.00000
     45     -64.1474      1.00000
     46     -64.1474      1.00000
     47     -64.1474      1.00000
     48     -64.1473      1.00000
     49     -51.8142      1.00000
     50     -51.8142      1.00000
     51     -51.8142      1.00000
     52     -51.8142      1.00000
     53     -51.8142      1.00000
     54     -51.8142      1.00000
     55     -51.8142      1.00000
     56     -51.8142      1.00000
     57     -51.6165      1.00000
     58     -51.6165      1.00000
     59     -51.6165      1.00000
     60     -51.6165      1.00000
     61     -51.6165      1.00000
     62     -51.6165      1.00000
     63     -51.6165      1.00000
     64     -51.6165      1.00000
     65     -51.6005      1.00000
     66     -51.6005      1.00000
     67     -51.6005      1.00000
     68     -51.6005      1.00000
     69     -51.6005      1.00000
     70     -51.6005      1.00000
     71     -51.6005      1.00000
     72     -51.6005      1.00000
     73     -47.6030      1.00000
     74     -47.6030      1.00000
     75     -47.6030      1.00000
     76     -47.6030      1.00000
     77     -47.6030      1.00000
     78     -47.6030      1.00000
     79     -47.6030      1.00000
     80     -47.6030      1.00000
     81     -47.5480      1.00000
     82     -47.5480      1.00000
     83     -47.5480      1.00000
     84     -47.5480      1.00000
     85     -47.5480      1.00000
     86     -47.5480      1.00000
     87     -47.5480      1.00000
     88     -47.5480      1.00000
     89     -47.5372      1.00000
     90     -47.5372      1.00000
     91     -47.5372      1.00000
     92     -47.5372      1.00000
     93     -47.5372      1.00000
     94     -47.5372      1.00000
     95     -47.5372      1.00000
     96     -47.5372      1.00000
     97      -9.0438      1.00000
     98      -8.4416      1.00000
     99      -8.4416      1.00000
    100      -8.3922      1.00000
    101      -8.3922      1.00000
    102      -8.3899      1.00000
    103      -8.3643      1.00000
    104      -8.1799      1.00000
    105      -8.1799      1.00000
    106      -8.1632      1.00000
    107      -8.1561      1.00000
    108      -8.0463      1.00000
    109      -8.0272      1.00000
    110      -8.0272      1.00000
    111      -8.0236      1.00000
    112      -8.0015      1.00000
    113      -7.9948      1.00000
    114      -7.9948      1.00000
    115      -7.9879      1.00000
    116      -7.8286      1.00000
    117      -7.8286      1.00000
    118      -7.7751      1.00000
    119      -7.7735      1.00000
    120      -7.7096      1.00000
    121      -7.6822      1.00000
    122      -7.6535      1.00000
    123      -7.6188      1.00000
    124      -7.6188      1.00000
    125      -7.5722      1.00000
    126      -7.5520      1.00000
    127      -7.5520      1.00000
    128      -7.5086      1.00000
    129      -1.9437      1.00000
    130      -1.9437      1.00000
    131      -1.8998      1.00000
    132      -1.8844      1.00000
    133      -1.8844      1.00000
    134      -1.8687      1.00000
    135      -1.8445      1.00000
    136      -1.8407      1.00000
    137      -1.8401      1.00000
    138      -1.7775      1.00000
    139      -1.7775      1.00000
    140      -1.7726      1.00000
    141      -1.7726      1.00000
    142      -1.7295      1.00000
    143      -1.7250      1.00000
    144      -1.7209      1.00000
    145      -1.7148      1.00000
    146      -1.7034      1.00000
    147      -1.6889      1.00000
    148      -1.6889      1.00000
    149      -1.6830      1.00000
    150      -1.6830      1.00000
    151      -1.6822      1.00000
    152      -1.6611      1.00000
    153      -1.6429      1.00000
    154      -1.6372      1.00000
    155      -1.6167      1.00000
    156      -1.6167      1.00000
    157      -1.5967      1.00000
    158      -1.5967      1.00000
    159      -1.5815      1.00000
    160      -1.5727      1.00000
    161      -1.5651      1.00000
    162      -1.5364      1.00000
    163      -1.5364      1.00000
    164      -1.5015      1.00000
    165      -1.5015      1.00000
    166      -1.4880      1.00000
    167      -1.4761      1.00000
    168      -1.4742      1.00000
    169      -1.0101      1.00000
    170      -0.9861      1.00000
    171      -0.6682      1.00000
    172      -0.6564      1.00000
    173      -0.6290      1.00000
    174      -0.3570      1.00000
    175      -0.1827      1.00000
    176      -0.1827      1.00000
    177      -0.1334      1.00000
    178      -0.1334      1.00000
    179      -0.1090      1.00000
    180      -0.0746      1.00000
    181      -0.0062      1.00000
    182       0.0108      1.00000
    183       0.0108      1.00000
    184       0.0431      1.00000
    185       0.0431      1.00000
    186       0.1574      1.00000
    187       0.1574      1.00000
    188       0.1718      1.00000
    189       0.1766      1.00000
    190       0.1995      1.00000
    191       0.2375      1.00000
    192       0.2375      1.00000
    193       0.2904      1.00000
    194       0.4103      1.00000
    195       0.4103      1.00000
    196       0.4122      1.00000
    197       0.4122      1.00000
    198       0.4410      1.00000
    199       0.4704      1.00000
    200       0.7734      1.00000
    201       0.8310      1.00000
    202       0.8717      1.00000
    203       0.8717      1.00000
    204       0.8766      1.00000
    205       0.8782      1.00000
    206       0.9013      1.00000
    207       0.9013      1.00000
    208       0.9713      1.00000
    209       0.9713      1.00000
    210       1.0095      1.00000
    211       1.0095      1.00000
    212       1.0990      1.00000
    213       1.0990      1.00000
    214       1.1531      1.00000
    215       1.1776      1.00000
    216       1.1776      1.00000
    217       1.2152      1.00000
    218       1.2181      1.00000
    219       1.2517      1.00000
    220       1.3000      1.00000
    221       1.3074      1.00000
    222       1.3074      1.00000
    223       1.3253      1.00000
    224       1.3348      1.00000
    225       1.3510      1.00000
    226       1.3715      1.00000
    227       1.3715      1.00000
    228       1.3736      1.00000
    229       1.4146      1.00000
    230       1.4238      1.00000
    231       1.4247      1.00000
    232       1.4424      1.00000
    233       1.4456      1.00000
    234       1.4456      1.00000
    235       1.4496      1.00000
    236       1.4496      1.00000
    237       1.4573      1.00000
    238       1.6581      1.00000
    239       1.6655      1.00000
    240       1.6966      1.00000
    241       1.7635      1.00000
    242       1.8678      1.00000
    243       1.8863      1.00000
    244       1.8863      1.00000
    245       1.9314      1.00000
    246       1.9314      1.00000
    247       1.9769      1.00000
    248       1.9829      1.00000
    249       1.9993      1.00000
    250       1.9993      1.00000
    251       2.0135      1.00000
    252       2.0212      1.00000
    253       2.0212      1.00000
    254       2.1013      1.00000
    255       2.2006      1.00000
    256       2.2543      1.00000
    257       2.2627      1.00000
    258       2.3375      1.00000
    259       2.3375      1.00000
    260       2.3531      1.00000
    261       2.3935      1.00000
    262       2.4382      1.00000
    263       2.4382      1.00000
    264       2.5854      1.00000
    265       2.7559      1.00000
    266       2.8378      1.00000
    267       2.8453      1.00000
    268       2.8453      1.00000
    269       2.8678      1.00000
    270       2.8678      1.00000
    271       2.8768      1.00000
    272       2.8806      1.00000
    273       2.8864      1.00000
    274       2.8864      1.00000
    275       2.9088      1.00000
    276       2.9162      1.00000
    277       2.9167      1.00000
    278       2.9244      1.00000
    279       2.9244      1.00000
    280       2.9844      1.00000
    281       3.0047      1.00000
    282       3.0047      1.00000
    283       3.0778      1.00000
    284       3.0851      1.00000
    285       3.0851      1.00000
    286       3.0906      1.00000
    287       3.1305      1.00000
    288       3.1849      1.00000
    289       3.1876      1.00000
    290       3.2074      1.00000
    291       3.2882      1.00000
    292       3.2882      1.00000
    293       3.3104      1.00000
    294       3.3119      1.00000
    295       3.3119      1.00000
    296       3.3922      1.00000
    297       3.4135      1.00000
    298       3.4358      1.00000
    299       3.4501      1.00000
    300       3.4501      1.00000
    301       3.5299      1.00000
    302       3.5299      1.00000
    303       3.5455      1.00000
    304       3.5455      1.00000
    305       3.5607      1.00000
    306       3.5658      1.00000
    307       3.5786      1.00000
    308       3.6155      1.00000
    309       3.6262      1.00000
    310       3.6262      1.00000
    311       3.7774      1.00000
    312       3.8191      1.00000
    313       3.8191      1.00000
    314       3.8280      1.00000
    315       3.8439      1.00000
    316       3.8981      1.00000
    317       3.8981      1.00000
    318       4.0189      1.00000
    319       4.0927      1.00000
    320       4.0927      1.00000
    321       4.1219      1.00000
    322       4.1219      1.00000
    323       4.1406      1.00000
    324       4.1421      1.00000
    325       4.1607      1.00000
    326       4.2275      1.00000
    327       4.2275      1.00000
    328       4.2449      1.00000
    329       4.2559      1.00000
    330       4.2559      1.00000
    331       4.2927      1.00000
    332       4.3280      1.00000
    333       4.3623      1.00000
    334       4.3931      1.00000
    335       4.4330      1.00000
    336       4.4957      1.00000
    337       4.6512      1.00000
    338       4.6803      1.00000
    339       4.8059      1.00000
    340       4.8059      1.00000
    341       4.9103      1.00000
    342       4.9103      1.00000
    343       5.0326      1.00000
    344       5.0454      1.00000
    345       5.8198      0.00000
    346       5.8320      0.00000
    347       5.8320      0.00000
    348       5.8431      0.00000
    349       5.8431      0.00000
    350       5.8481      0.00000
    351       5.8493      0.00000
    352       5.9204      0.00000
    353       6.0223      0.00000
    354       6.0326      0.00000
    355       6.0326      0.00000
    356       6.0435      0.00000
    357       6.1496      0.00000
    358       6.1496      0.00000
    359       6.2083      0.00000
    360       6.2083      0.00000
    361       6.2529      0.00000
    362       6.3084      0.00000
    363       6.3104      0.00000
    364       6.3114      0.00000
    365       6.3114      0.00000
    366       6.3501      0.00000
    367       6.3610      0.00000
    368       6.3610      0.00000
    369       6.4041      0.00000
    370       6.4218      0.00000
    371       6.4373      0.00000
    372       6.4373      0.00000
    373       6.4584      0.00000
    374       6.4595      0.00000
    375       6.5410      0.00000
    376       6.5778      0.00000
    377       6.5997      0.00000
    378       6.6006      0.00000
    379       6.6006      0.00000
    380       6.6078      0.00000
    381       6.6097      0.00000
    382       6.6097      0.00000
    383       6.7606      0.00000
    384       6.8172      0.00000
[...]
 simple monoclinic supercell.


 Subroutine GETGRP returns: Found  2 space group operations
 (whereof  1 operations were pure point group operations)
 out of a pool of  4 trial point group operations.


The static configuration has the point symmetry C_1 .
 The point group associated with its full space group is C_2 .


Analysis of symmetry for dynamics (positions and initial velocities):
=====================================================================
 Subroutine PRICEL returns following result:
 
  LATTYP: Found a base centered monoclinic cell.
 ALAT       =    10.9043833779
 B/A-ratio  =     0.4833758931
 C/A-ratio  =     0.9547398702
 COS(beta)  =    -0.7916717499
  
  Lattice vectors:
  
 A1 = (  -1.8146747023,  -2.6354580272,   5.1413373686)
 A2 = (  -1.8146747023,   2.6354580272,   5.1413373686)
 A3 = (  -1.6286156833,   0.0000000000, -10.2826747372)
 
   8 primitive cells build up your supercell.
 

 Routine SETGRP: Setting up the symmetry group for a 
 simple monoclinic supercell.


 Subroutine GETGRP returns: Found  2 space group operations
 (whereof  1 operations were pure point group operations)
 out of a pool of  4 trial point group operations.


The dynamic configuration has the point symmetry C_1 .
 The point group associated with its full space group is C_2 .


Analysis of structural, dynamic, and magnetic symmetry:
=====================================================================
 Subroutine PRICEL returns following result:
 
  LATTYP: Found a base centered monoclinic cell.
 ALAT       =    10.9043833779
 B/A-ratio  =     0.4833758931
 C/A-ratio  =     0.9547398702
 COS(beta)  =    -0.7916717499
  
  Lattice vectors:
  
 A1 = (  -1.8146747023,  -2.6354580272,   5.1413373686)
 A2 = (  -1.8146747023,   2.6354580272,   5.1413373686)
 A3 = (  -1.6286156833,   0.0000000000, -10.2826747372)
 
   8 primitive cells build up your supercell.
 

 Routine SETGRP: Setting up the symmetry group for a 
 simple monoclinic supercell.


 Subroutine GETGRP returns: Found  2 space group operations
 (whereof  1 operations were pure point group operations)
 out of a pool of  4 trial point group operations.


The magnetic configuration has the point symmetry C_1 .
 The point group associated with its full space group is C_2 .


 Subroutine INISYM returns: Found  2 space group operations
 (whereof  1 operations are pure point group operations),
 and found     8 'primitive' translations



--------------------------------------------------------------------------------------------------------




 MACROSCOPIC STATIC DIELECTRIC TENSOR (including local field effects in DFT)
 ------------------------------------------------------
      447130.289248     0.000000 82709.763287
           0.000000150390.061900     0.000000
       82710.226775     0.000000517195.771242
 ------------------------------------------------------


 PIEZOELECTRIC TENSOR (including local field effects)  for field in x, y, z        (e  Angst)
          XX          YY          ZZ          XY          YZ          ZX
  --------------------------------------------------------------------------------
  x     2.33518    23.15523   -24.27878     0.62760    32.37284   -13.41501
  y   -26.51827   -51.39053   -22.57724     0.00000     0.00000   -71.51776
  z   -99.88766   -45.37441   -64.82131   -40.41385   -54.98291    17.20932

 PIEZOELECTRIC TENSOR (including local field effects)  for field in x, y, z        (C/m^2)
          XX          YY          ZZ          XY          YZ          ZX
  --------------------------------------------------------------------------------
  x     0.00000     0.00000     0.00000     0.00882     0.45501     0.00000
  y    -0.37272    -0.72231    -0.31733     0.00000     0.00000    -1.00520
  z     0.00000     0.00000     0.00000    -0.56803    -0.77280     0.00000
 
 BORN EFFECTIVE CHARGES (including local field effects) (in e, cummulative output)
 ---------------------------------------------------------------------------------
 ion    1
    1    -2.76584    -1.00080     0.52270
    2    -0.41244    -2.98759    -0.28066
    3    -5.27770    -2.83612    -2.20265
 ion    2
    1    -2.76584    -1.00080     0.52270
    2    -0.41244    -2.98759    -0.28066
    3    -5.27770    -2.83612    -2.20265
 ion    3
    1    -2.76584    -1.00080     0.52270
    2    -0.41244    -2.98759    -0.28066
    3    -5.27770    -2.83612    -2.20265
 ion    4
    1    -2.76584    -1.00080     0.52270
    2    -0.41244    -2.98759    -0.28066
    3    -5.27770    -2.83612    -2.20265
 ion    5
    1    -1.62825    -2.11679     2.62476
    2     0.41244    -2.98759     0.28066
    3    -3.97159    -0.69166    -1.70398
 ion    6
    1    -1.62825    -2.11679     2.62476
    2     0.41244    -2.98759     0.28066
    3    -3.97159    -0.69166    -1.70398
 ion    7
    1    -1.62825    -2.11679     2.62476
    2     0.41244    -2.98759     0.28066
    3    -3.97159    -0.69166    -1.70398
 ion    8
    1    -1.62825    -2.11679     2.62476
    2     0.41244    -2.98759     0.28066
    3    -3.97159    -0.69166    -1.70398
 ion    9
    1     2.08299     0.30936     0.55475
    2     0.00000    -0.97558    -0.00000
    3    -0.98993     0.84608    -0.25389
 ion   10
    1     2.08299     0.30936     0.55475
    2     0.00000    -0.97558    -0.00000
    3    -0.98993     0.84608    -0.25389
 ion   11
    1     2.08299     0.30936     0.55475
    2     0.00000    -0.97558    -0.00000
    3    -0.98993     0.84608    -0.25389
 ion   12
    1     2.08299     0.30936     0.55475
    2     0.00000    -0.97558    -0.00000
    3    -0.98993     0.84608    -0.25389
 ion   13
    1     3.39752    -2.05782    -1.97809
    2     0.00000    -1.02731    -0.00000
    3    -4.38473    -2.49571    -2.57250
 ion   14
    1     3.39752    -2.05782    -1.97809
    2     0.00000    -1.02731    -0.00000
    3    -4.38473    -2.49571    -2.57250
 ion   15
    1     3.39752    -2.05782    -1.97809
    2     0.00000    -1.02731    -0.00000
    3    -4.38473    -2.49571    -2.57250
 ion   16
    1     3.39752    -2.05782    -1.97809
    2     0.00000    -1.02731    -0.00000
    3    -4.38473    -2.49571    -2.57250
 ion   17
    1    -1.62825    -2.11679     2.62476
    2     0.41244    -2.98759     0.28066
    3    -3.97159    -0.69166    -1.70398
 ion   18
    1    -1.62825    -2.11679     2.62476
    2     0.41244    -2.98759     0.28066
    3    -3.97159    -0.69166    -1.70398
 ion   19
    1    -1.62825    -2.11679     2.62476
    2     0.41244    -2.98759     0.28066
    3    -3.97159    -0.69166    -1.70398
 ion   20
    1    -1.62825    -2.11679     2.62476
    2     0.41244    -2.98759     0.28066
    3    -3.97159    -0.69166    -1.70398
 ion   21
    1    -2.76584    -1.00080     0.52270
    2    -0.41244    -2.98759    -0.28066
    3    -5.27770    -2.83612    -2.20265
 ion   22
    1    -2.76584    -1.00080     0.52270
    2    -0.41244    -2.98759    -0.28066
    3    -5.27770    -2.83612    -2.20265
 ion   23
    1    -2.76584    -1.00080     0.52270
    2    -0.41244    -2.98759    -0.28066
    3    -5.27770    -2.83612    -2.20265
 ion   24
    1    -2.76584    -1.00080     0.52270
    2    -0.41244    -2.98759    -0.28066
    3    -5.27770    -2.83612    -2.20265
 ion   25
    1     2.08299     0.30936     0.55475
    2     0.00000    -0.97558    -0.00000
    3    -0.98993     0.84608    -0.25389
 ion   26
    1     2.08299     0.30936     0.55475
    2     0.00000    -0.97558    -0.00000
    3    -0.98993     0.84608    -0.25389
 ion   27
    1     2.08299     0.30936     0.55475
    2     0.00000    -0.97558    -0.00000
    3    -0.98993     0.84608    -0.25389
 ion   28
    1     2.08299     0.30936     0.55475
    2     0.00000    -0.97558    -0.00000
    3    -0.98993     0.84608    -0.25389
 ion   29
    1     3.39752    -2.05782    -1.97809
    2     0.00000    -1.02731    -0.00000
    3    -4.38473    -2.49571    -2.57250
 ion   30
    1     3.39752    -2.05782    -1.97809
    2     0.00000    -1.02731    -0.00000
    3    -4.38473    -2.49571    -2.57250
 ion   31
    1     3.39752    -2.05782    -1.97809
    2     0.00000    -1.02731    -0.00000
    3    -4.38473    -2.49571    -2.57250
 ion   32
    1     3.39752    -2.05782    -1.97809
    2     0.00000    -1.02731    -0.00000
    3    -4.38473    -2.49571    -2.57250
 ion   33
    1     0.68584     6.13974    -3.08478
    2    -0.32972     2.12014    -0.01595
    3     3.54930     0.37542     4.71326
 ion   34
    1     0.68584     6.13974    -3.08478
    2    -0.32972     2.12014    -0.01595
    3     3.54930     0.37542     4.71326
 ion   35
    1     0.68584     6.13974    -3.08478
    2    -0.32972     2.12014    -0.01595
    3     3.54930     0.37542     4.71326
 ion   36
    1     0.68584     6.13974    -3.08478
    2    -0.32972     2.12014    -0.01595
    3     3.54930     0.37542     4.71326
 ion   37
    1     2.98873    -0.98894     0.55974
    2     0.32972     2.12014     0.01595
    3     3.39337    -2.56667     3.71583
 ion   38
    1     2.98873    -0.98894     0.55974
    2     0.32972     2.12014     0.01595
    3     3.39337    -2.56667     3.71583
 ion   39
    1     2.98873    -0.98894     0.55974
    2     0.32972     2.12014     0.01595
    3     3.39337    -2.56667     3.71583
 ion   40
    1     2.98873    -0.98894     0.55974
    2     0.32972     2.12014     0.01595
    3     3.39337    -2.56667     3.71583
 ion   41
    1     0.68584     6.13974    -3.08478
    2    -0.32972     2.12014    -0.01595
    3     3.54930     0.37542     4.71326
 ion   42
    1     0.68584     6.13974    -3.08478
    2    -0.32972     2.12014    -0.01595
    3     3.54930     0.37542     4.71326
 ion   43
    1     0.68584     6.13974    -3.08478
    2    -0.32972     2.12014    -0.01595
    3     3.54930     0.37542     4.71326
 ion   44
    1     0.68584     6.13974    -3.08478
    2    -0.32972     2.12014    -0.01595
    3     3.54930     0.37542     4.71326
 ion   45
    1     2.98873    -0.98894     0.55974
    2     0.32972     2.12014     0.01595
    3     3.39337    -2.56667     3.71583
 ion   46
    1     2.98873    -0.98894     0.55974
    2     0.32972     2.12014     0.01595
    3     3.39337    -2.56667     3.71583
 ion   47
    1     2.98873    -0.98894     0.55974
    2     0.32972     2.12014     0.01595
    3     3.39337    -2.56667     3.71583
 ion   48
    1     2.98873    -0.98894     0.55974
    2     0.32972     2.12014     0.01595
    3     3.39337    -2.56667     3.71583
 ion   49
    1    -0.90992    -1.59112     0.75217
    2     0.60856     1.86889    -0.74804
    3     2.46114     5.78666     0.62496
 ion   50
    1    -0.90992    -1.59112     0.75217
    2     0.60856     1.86889    -0.74804
    3     2.46114     5.78666     0.62496
 ion   51
    1    -0.90992    -1.59112     0.75217
    2     0.60856     1.86889    -0.74804
    3     2.46114     5.78666     0.62496
 ion   52
    1    -0.90992    -1.59112     0.75217
    2     0.60856     1.86889    -0.74804
    3     2.46114     5.78666     0.62496
 ion   53
    1    -3.85108     1.30638     0.04876
    2    -0.60856     1.86889     0.74804
    3     5.22014     1.58199    -2.32104
 ion   54
    1    -3.85108     1.30638     0.04876
    2    -0.60856     1.86889     0.74804
    3     5.22014     1.58199    -2.32104
 ion   55
    1    -3.85108     1.30638     0.04876
    2    -0.60856     1.86889     0.74804
    3     5.22014     1.58199    -2.32104
 ion   56
    1    -3.85108     1.30638     0.04876
    2    -0.60856     1.86889     0.74804
    3     5.22014     1.58199    -2.32104
 ion   57
    1    -0.90992    -1.59112     0.75217
    2     0.60856     1.86889    -0.74804
    3     2.46114     5.78666     0.62496
 ion   58
    1    -0.90992    -1.59112     0.75217
    2     0.60856     1.86889    -0.74804
    3     2.46114     5.78666     0.62496
 ion   59
    1    -0.90992    -1.59112     0.75217
    2     0.60856     1.86889    -0.74804
    3     2.46114     5.78666     0.62496
 ion   60
    1    -0.90992    -1.59112     0.75217
    2     0.60856     1.86889    -0.74804
    3     2.46114     5.78666     0.62496
 ion   61
    1    -3.85108     1.30638     0.04876
    2    -0.60856     1.86889     0.74804
    3     5.22014     1.58199    -2.32104
 ion   62
    1    -3.85108     1.30638     0.04876
    2    -0.60856     1.86889     0.74804
    3     5.22014     1.58199    -2.32104
 ion   63
    1    -3.85108     1.30638     0.04876
    2    -0.60856     1.86889     0.74804
    3     5.22014     1.58199    -2.32104
 ion   64
    1    -3.85108     1.30638     0.04876
    2    -0.60856     1.86889     0.74804
    3     5.22014     1.58199    -2.32104


--------------------------------------------------------------------------------------------------------


 writing wavefunctions
     LOOP+:  cpu time61009.4846: real time62340.3691
    4ORBIT:  cpu time    0.0001: real time    0.0008
 


 total charge     
 
# of ion       s       p       d       tot
------------------------------------------
    1        1.317   2.401   0.000   3.718
    2        1.317   2.401   0.000   3.718
    3        1.317   2.401   0.000   3.718
    4        1.317   2.401   0.000   3.718
    5        1.317   2.401   0.000   3.718
    6        1.317   2.401   0.000   3.718
    7        1.317   2.401   0.000   3.718
    8        1.317   2.401   0.000   3.718
    9        1.319   2.393   0.000   3.712
   10        1.319   2.393   0.000   3.712
   11        1.319   2.393   0.000   3.712
   12        1.319   2.393   0.000   3.712
   13        1.313   2.409   0.000   3.722
   14        1.313   2.409   0.000   3.722
   15        1.313   2.409   0.000   3.722
   16        1.313   2.409   0.000   3.722
   17        1.317   2.401   0.000   3.718
   18        1.317   2.401   0.000   3.718
   19        1.317   2.401   0.000   3.718
   20        1.317   2.401   0.000   3.718
   21        1.317   2.401   0.000   3.718
   22        1.317   2.401   0.000   3.718
   23        1.317   2.401   0.000   3.718
   24        1.317   2.401   0.000   3.718
   25        1.319   2.393   0.000   3.712
   26        1.319   2.393   0.000   3.712
   27        1.319   2.393   0.000   3.712
   28        1.319   2.393   0.000   3.712
   29        1.313   2.409   0.000   3.722
   30        1.313   2.409   0.000   3.722
   31        1.313   2.409   0.000   3.722
   32        1.313   2.409   0.000   3.722
   33        0.256   6.198   8.918  15.373
   34        0.256   6.198   8.918  15.373
   35        0.256   6.198   8.918  15.373
   36        0.256   6.198   8.918  15.373
   37        0.256   6.198   8.917  15.372
   38        0.256   6.198   8.917  15.372
   39        0.256   6.198   8.917  15.372
   40        0.256   6.198   8.917  15.372
   41        0.256   6.198   8.918  15.373
   42        0.256   6.198   8.918  15.373
   43        0.256   6.198   8.918  15.373
   44        0.256   6.198   8.918  15.373
   45        0.256   6.198   8.917  15.372
   46        0.256   6.198   8.917  15.372
   47        0.256   6.198   8.917  15.372
   48        0.256   6.198   8.917  15.372
   49        0.344   6.343   5.829  12.516
   50        0.344   6.343   5.829  12.516
   51        0.344   6.343   5.829  12.516
   52        0.344   6.343   5.829  12.516
   53        0.344   6.343   5.828  12.516
   54        0.344   6.343   5.828  12.516
   55        0.344   6.343   5.828  12.516
   56        0.344   6.343   5.828  12.516
   57        0.344   6.343   5.829  12.516
   58        0.344   6.343   5.829  12.516
   59        0.344   6.343   5.829  12.516
   60        0.344   6.343   5.829  12.516
   61        0.344   6.343   5.828  12.516
   62        0.344   6.343   5.828  12.516
   63        0.344   6.343   5.828  12.516
   64        0.344   6.343   5.828  12.516
--------------------------------------------------
tot         51.740 277.494 235.939 565.173
 


 magnetization (x)
 
# of ion       s       p       d       tot
------------------------------------------
    1       -0.000  -0.040   0.000  -0.040
    2       -0.000  -0.040   0.000  -0.040
    3       -0.000  -0.040   0.000  -0.040
    4       -0.000  -0.040   0.000  -0.040
    5        0.000   0.039   0.000   0.040
    6        0.000   0.039   0.000   0.040
    7        0.000   0.039   0.000   0.040
    8        0.000   0.039   0.000   0.040
    9       -0.000   0.000   0.000   0.000
   10       -0.000   0.000   0.000   0.000
   11       -0.000   0.000   0.000   0.000
   12       -0.000   0.000   0.000   0.000
   13       -0.000   0.000   0.000   0.000
   14       -0.000   0.000   0.000   0.000
   15       -0.000   0.000   0.000   0.000
   16       -0.000   0.000   0.000   0.000
   17        0.000   0.039   0.000   0.040
   18        0.000   0.039   0.000   0.040
   19        0.000   0.039   0.000   0.040
   20        0.000   0.039   0.000   0.040
   21       -0.000  -0.040   0.000  -0.040
   22       -0.000  -0.040   0.000  -0.040
   23       -0.000  -0.040   0.000  -0.040
   24       -0.000  -0.040   0.000  -0.040
   25       -0.000   0.000   0.000   0.000
   26       -0.000   0.000   0.000   0.000
   27       -0.000   0.000   0.000   0.000
   28       -0.000   0.000   0.000   0.000
   29       -0.000   0.000   0.000   0.000
   30       -0.000   0.000   0.000   0.000
   31       -0.000   0.000   0.000   0.000
   32       -0.000   0.000   0.000   0.000
   33        0.000   0.001  -0.008  -0.006
   34        0.000   0.001  -0.008  -0.006
   35        0.000   0.001  -0.008  -0.006
   36        0.000   0.001  -0.008  -0.006
   37       -0.001  -0.001   0.008   0.006
   38       -0.001  -0.001   0.008   0.006
   39       -0.001  -0.001   0.008   0.006
   40       -0.001  -0.001   0.008   0.006
   41        0.000   0.001  -0.008  -0.006
   42        0.000   0.001  -0.008  -0.006
   43        0.000   0.001  -0.008  -0.006
   44        0.000   0.001  -0.008  -0.006
   45       -0.001  -0.001   0.008   0.006
   46       -0.001  -0.001   0.008   0.006
   47       -0.001  -0.001   0.008   0.006
   48       -0.001  -0.001   0.008   0.006
   49        0.021   0.054   3.657   3.731
   50        0.021   0.054   3.657   3.731
   51        0.021   0.054   3.657   3.731
   52        0.021   0.054   3.657   3.731
   53       -0.021  -0.054  -3.657  -3.732
   54       -0.021  -0.054  -3.657  -3.732
   55       -0.021  -0.054  -3.657  -3.732
   56       -0.021  -0.054  -3.657  -3.732
   57        0.021   0.054   3.657   3.731
   58        0.021   0.054   3.657   3.731
   59        0.021   0.054   3.657   3.731
   60        0.021   0.054   3.657   3.731
   61       -0.021  -0.054  -3.657  -3.732
   62       -0.021  -0.054  -3.657  -3.732
   63       -0.021  -0.054  -3.657  -3.732
   64       -0.021  -0.054  -3.657  -3.732
--------------------------------------------------
tot         -0.001   0.003  -0.001   0.001
 
 BZINTS: Fermi energy:  5.197236;688.000000 electrons
         Band energy:***********;  BLOECHL correction:  0.000000

 total amount of memory used by VASP MPI-rank0   873689. kBytes
=======================================================================

   base      :      30000. kBytes
   nonl-proj :     673021. kBytes
   fftplans  :       4588. kBytes
   grid      :      69719. kBytes
   one-center:       1990. kBytes
   wavefun   :      94371. kBytes
 
  
  
 General timing and accounting informations for this job:
 ========================================================
  
                  Total CPU time used (sec):    61157.801
                            User time (sec):    60967.708
                          System time (sec):      190.094
                         Elapsed time (sec):    62491.926
  
                   Maximum memory used (kb):     1937848.
                   Average memory used (kb):           0.
  
                          Minor page faults:     48362371
                          Major page faults:        31766
                 Voluntary context switches:        40686
