 vasp.5.4.4.18Apr17-6-g9f103f2a35 (build Oct 30 2023 17:30:16) complex          
  
 executed on             LinuxIFC date 2024.06.30  05:35:49
 running on  256 total cores
 distrk:  each k-point on  256 cores,    1 groups
 distr:  one band on NCORES_PER_BAND=   1 cores,  256 groups


--------------------------------------------------------------------------------------------------------


 INCAR:
 POTCAR:    PAW_PBE S 06Sep2000                   
 POTCAR:     PAW_PBE Cu_pv 06Sep2000              
 POTCAR:     PAW_PBE Fe_pv 02Aug2007              

 ----------------------------------------------------------------------------- 
|                                                                             |
|           W    W    AA    RRRRR   N    N  II  N    N   GGGG   !!!           |
|           W    W   A  A   R    R  NN   N  II  NN   N  G    G  !!!           |
|           W    W  A    A  R    R  N N  N  II  N N  N  G       !!!           |
|           W WW W  AAAAAA  RRRRR   N  N N  II  N  N N  G  GGG   !            |
|           WW  WW  A    A  R   R   N   NN  II  N   NN  G    G                |
|           W    W  A    A  R    R  N    N  II  N    N   GGGG   !!!           |
|                                                                             |
|      For optimal performance we recommend to set                            |
|        NCORE= 4 - approx SQRT( number of cores)                             |
|      NCORE specifies how many cores store one orbital (NPAR=cpu/NCORE).     |
|      This setting can  greatly improve the performance of VASP for DFT.     |
|      The default,   NCORE=1            might be grossly inefficient         |
|      on modern multi-core architectures or massively parallel machines.     |
|      Do your own testing !!!!                                               |
|      Unfortunately you need to use the default for GW and RPA calculations. |
|      (for HF NCORE is supported but not extensively tested yet)             |
|                                                                             |
 ----------------------------------------------------------------------------- 

 POTCAR:    PAW_PBE S 06Sep2000                   
   SHA256 =  0fc7481fb0695f01bdc6462160264c5c84044ae9ec85a907d398b887a2bc3132 S/
   COPYR  = (c) Copyright 06Sep2000 Georg Kresse                                
   COPYR  = This file is part of the software VASP. Any use, copying, and all ot
   COPYR  = If you do not have a valid VASP license, you may not use, copy or di
   VRHFIN =S : s2p4                                                             
   LEXCH  = PE                                                                  
   EATOM  =   276.8230 eV,   20.3459 Ry                                         
                                                                                
   TITEL  = PAW_PBE S 06Sep2000                                                 
   LULTRA =        F    use ultrasoft PP ?                                      
   IUNSCR =        1    unscreen: 0-lin 1-nonlin 2-no                           
   RPACOR =    1.500    partial core radius                                     
   POMASS =   32.066; ZVAL   =    6.000    mass and valenz                      
   RCORE  =    1.900    outmost cutoff radius                                   
   RWIGS  =    2.200; RWIGS  =    1.164    wigner-seitz radius (au A)           
   ENMAX  =  258.689; ENMIN  =  194.016 eV                                      
   ICORE  =        2    local potential                                         
   LCOR   =        T    correct aug charges                                     
   LPAW   =        T    paw PP                                                  
   EAUG   =  335.092                                                            
   DEXC   =    0.000                                                            
   RMAX   =    1.942    core radius for proj-oper                               
   RAUG   =    1.300    factor for augmentation sphere                          
   RDEP   =    1.954    radius for radial grids                                 
   RDEPT  =    1.744    core radius for aug-charge                              
                                                                                
   Atomic configuration                                                         
    6 entries                                                                   
     n  l   j            E        occ.                                          
     1  0  0.50     -2405.8406   2.0000                                         
     2  0  0.50      -211.7007   2.0000                                         
     2  1  1.50      -156.4958   6.0000                                         
     3  0  0.50       -17.2562   2.0000                                         
     3  1  0.50        -7.0085   4.0000                                         
     3  2  1.50        -6.8029   0.0000                                         
   Description                                                                  
     l       E           TYP  RCUT    TYP  RCUT                                 
     0    -17.2561641     23  1.900                                             
     0    -15.8743224     23  1.900                                             
     1     -7.0085400     23  1.900                                             
     1     -2.7779785     23  1.900                                             
     2     -6.8029130     23  1.900                                             
  local pseudopotential read in
  partial core-charges read in
  partial kinetic energy density read in
  atomic valenz-charges read in
  non local Contribution for L=           0  read in
    real space projection operators read in
  non local Contribution for L=           0  read in
    real space projection operators read in
  non local Contribution for L=           1  read in
    real space projection operators read in
  non local Contribution for L=           1  read in
    real space projection operators read in
    PAW grid and wavefunctions read in
 
   number of l-projection  operators is LMAX  =           4
   number of lm-projection operators is LMMAX =           8
 
 POTCAR:     PAW_PBE Cu_pv 06Sep2000              
   SHA256 =  cb7b504e2ea725fe1f25c85a9ac77d4012ce94cd394135b722c4e25ec297f1cb Cu
   COPYR  = (c) Copyright 06Sep2000 Georg Kresse                                
   COPYR  = This file is part of the software VASP. Any use, copying, and all ot
   COPYR  = If you do not have a valid VASP license, you may not use, copy or di
   VRHFIN =Cu: d10 p1                                                           
   LEXCH  = PE                                                                  
   EATOM  =  4120.1201 eV,  302.8203 Ry                                         
                                                                                
   TITEL  = PAW_PBE Cu_pv 06Sep2000                                             
   LULTRA =        F    use ultrasoft PP ?                                      
   IUNSCR =        1    unscreen: 0-lin 1-nonlin 2-no                           
   RPACOR =    1.500    partial core radius                                     
   POMASS =   63.546; ZVAL   =   17.000    mass and valenz                      
   RCORE  =    2.000    outmost cutoff radius                                   
   RWIGS  =    2.000; RWIGS  =    1.058    wigner-seitz radius (au A)           
   ENMAX  =  368.648; ENMIN  =  276.486 eV                                      
   RCLOC  =    1.304    cutoff for local pot                                    
   LCOR   =        T    correct aug charges                                     
   LPAW   =        T    paw PP                                                  
   EAUG   =  758.233                                                            
   DEXC   =    0.000                                                            
   RMAX   =    2.046    core radius for proj-oper                               
   RAUG   =    1.300    factor for augmentation sphere                          
   RDEP   =    2.025    radius for radial grids                                 
   RDEPT  =    1.558    core radius for aug-charge                              
                                                                                
   Atomic configuration                                                         
    8 entries                                                                   
     n  l   j            E        occ.                                          
     1  0  0.50     -8850.2467   2.0000                                         
     2  0  0.50     -1062.3498   2.0000                                         
     2  1  1.50      -916.8226   6.0000                                         
     3  0  0.50      -114.6929   2.0000                                         
     3  1  1.50       -72.1325   6.0000                                         
     3  2  2.50        -5.0394  10.0000                                         
     4  0  0.50        -4.6097   1.0000                                         
     4  3  2.50        -1.3606   0.0000                                         
   Description                                                                  
     l       E           TYP  RCUT    TYP  RCUT                                 
     1    -72.1324777     23  1.700                                             
     1     -1.3605826     23  1.700                                             
     2     -5.0393776     23  2.000                                             
     2     -6.3999602     23  2.000                                             
     0     -4.6097062     23  1.800                                             
     0     14.1620818     23  1.800                                             
  local pseudopotential read in
  partial core-charges read in
  partial kinetic energy density read in
  atomic valenz-charges read in
  non local Contribution for L=           1  read in
    real space projection operators read in
  non local Contribution for L=           1  read in
    real space projection operators read in
  non local Contribution for L=           2  read in
    real space projection operators read in
  non local Contribution for L=           2  read in
    real space projection operators read in
  non local Contribution for L=           0  read in
    real space projection operators read in
  non local Contribution for L=           0  read in
    real space projection operators read in
    PAW grid and wavefunctions read in
 
   number of l-projection  operators is LMAX  =           6
   number of lm-projection operators is LMMAX =          18
 
 POTCAR:     PAW_PBE Fe_pv 02Aug2007              
   SHA256 =  5d22e414b1f82158bf2c7ecb8b97b28fd0923e48cadc1c3bf74d524558f5dd32 Fe
   COPYR  = (c) Copyright 02Aug2007 Georg Kresse                                
   COPYR  = This file is part of the software VASP. Any use, copying, and all ot
   COPYR  = If you do not have a valid VASP license, you may not use, copy or di
   VRHFIN =Fe:  3pd7s1                                                          
   LEXCH  = PE                                                                  
   EATOM  =  2457.4239 eV,  180.6156 Ry                                         
                                                                                
   TITEL  = PAW_PBE Fe_pv 02Aug2007                                             
   LULTRA =        F    use ultrasoft PP ?                                      
   IUNSCR =        1    unscreen: 0-lin 1-nonlin 2-no                           
   RPACOR =    1.750    partial core radius                                     
   POMASS =   55.847; ZVAL   =   14.000    mass and valenz                      
   RCORE  =    2.200    outmost cutoff radius                                   
   RWIGS  =    2.200; RWIGS  =    1.164    wigner-seitz radius (au A)           
   ENMAX  =  293.238; ENMIN  =  219.928 eV                                      
   ICORE  =        3    local potential                                         
   LCOR   =        T    correct aug charges                                     
   LPAW   =        T    paw PP                                                  
   EAUG   =  578.342                                                            
   DEXC   =    0.000                                                            
   RMAX   =    2.249    core radius for proj-oper                               
   RAUG   =    1.300    factor for augmentation sphere                          
   RDEP   =    2.296    radius for radial grids                                 
   RDEPT  =    1.766    core radius for aug-charge                              
                                                                                
   Atomic configuration                                                         
    8 entries                                                                   
     n  l   j            E        occ.                                          
     1  0  0.50     -6993.8440   2.0000                                         
     2  0  0.50      -814.6047   2.0000                                         
     2  1  1.50      -693.3689   6.0000                                         
     3  0  0.50       -89.4732   2.0000                                         
     3  1  1.50       -55.6373   6.0000                                         
     3  2  2.50        -3.8151   7.0000                                         
     4  0  0.50        -4.2551   1.0000                                         
     4  3  2.50        -1.3606   0.0000                                         
   Description                                                                  
     l       E           TYP  RCUT    TYP  RCUT                                 
     1    -55.6372668     23  2.000                                             
     1     -5.4423304     23  2.000                                             
     2     -3.8151096     23  2.200                                             
     2     -5.1756922     23  2.200                                             
     0     -4.2550951     23  2.200                                             
     0     27.2116520     23  2.200                                             
     3     -1.3605826     23  2.200                                             
  local pseudopotential read in
  partial core-charges read in
  partial kinetic energy density read in
  atomic valenz-charges read in
  non local Contribution for L=           1  read in
    real space projection operators read in
  non local Contribution for L=           1  read in
    real space projection operators read in
  non local Contribution for L=           2  read in
    real space projection operators read in
  non local Contribution for L=           2  read in
    real space projection operators read in
  non local Contribution for L=           0  read in
    real space projection operators read in
  non local Contribution for L=           0  read in
    real space projection operators read in
    PAW grid and wavefunctions read in
 
   number of l-projection  operators is LMAX  =           6
   number of lm-projection operators is LMMAX =          18
 

 ----------------------------------------------------------------------------- 
|                                                                             |
|  ADVICE TO THIS USER RUNNING 'VASP/VAMP'   (HEAR YOUR MASTER'S VOICE ...):  |
|                                                                             |
|      You have a (more or less) 'large supercell' and for larger cells       |
|      it might be more efficient to use real space projection opertators     |
|      So try LREAL= Auto  in the INCAR   file.                               |
|      Mind:          For very  accurate calculation you might also keep the  |
|      reciprocal projection scheme          (i.e. LREAL=.FALSE.)             |
|                                                                             |
 ----------------------------------------------------------------------------- 


 ----------------------------------------------------------------------------- 
|                                                                             |
|  ADVICE TO THIS USER RUNNING 'VASP/VAMP'   (HEAR YOUR MASTER'S VOICE ...):  |
|                                                                             |
|      You enforced a specific xc-type in the INCAR file,                     |
|      a different type was found on the POTCAR file                          |
|          I HOPE YOU KNOW, WHAT YOU ARE  DOING                               |
|                                                                             |
 ----------------------------------------------------------------------------- 

  PAW_PBE S 06Sep2000                   :
 energy of atom  1       EATOM= -276.8230
 kinetic energy error for atom=    0.0007 (will be added to EATOM!!)
   PAW_PBE Cu_pv 06Sep2000              :
 energy of atom  2       EATOM=-4120.1201
 kinetic energy error for atom=    0.0094 (will be added to EATOM!!)
   PAW_PBE Fe_pv 02Aug2007              :
 energy of atom  3       EATOM=-2457.4239
 kinetic energy error for atom=    0.0025 (will be added to EATOM!!)
 
 
 POSCAR: Fe16 Cu16 S32                           
  positions in direct lattice
  No initial velocities read in
 exchange correlation table for  LEXCH =       14
   RHO(1)=    0.500       N(1)  =     2000
   RHO(2)=  100.500       N(2)  =     4000
 


--------------------------------------------------------------------------------------------------------


 ion  position               nearest neighbor table
   1  0.127  0.113  0.127-  41 2.25  61 2.25  37 2.30  49 2.32
   2  0.627  0.113  0.127-  42 2.25  62 2.25  38 2.30  50 2.32
   3  0.127  0.613  0.127-  43 2.25  63 2.25  39 2.30  51 2.32
   4  0.627  0.613  0.127-  44 2.25  64 2.25  40 2.30  52 2.32
   5  0.373  0.363  0.123-  39 2.25  52 2.25  41 2.30  62 2.32
   6  0.873  0.363  0.123-  40 2.25  51 2.25  42 2.30  61 2.32
   7  0.373  0.863  0.123-  37 2.25  50 2.25  43 2.30  64 2.32
   8  0.873  0.863  0.123-  38 2.25  49 2.25  44 2.30  63 2.32
   9  0.125  0.368  0.875-  51 2.27  55 2.27  41 2.28  45 2.28
  10  0.625  0.368  0.875-  52 2.27  56 2.27  42 2.28  46 2.28
  11  0.125  0.868  0.875-  49 2.27  53 2.27  43 2.28  47 2.28
  12  0.625  0.868  0.875-  50 2.27  54 2.27  44 2.28  48 2.28
  13  0.375  0.119  0.875-  41 2.27  46 2.27  50 2.31  53 2.31
  14  0.875  0.119  0.875-  42 2.27  45 2.27  49 2.31  54 2.31
  15  0.375  0.619  0.875-  43 2.27  48 2.27  52 2.31  55 2.31
  16  0.875  0.619  0.875-  44 2.27  47 2.27  51 2.31  56 2.31
  17  0.123  0.113  0.623-  45 2.25  57 2.25  33 2.30  53 2.32
  18  0.623  0.113  0.623-  46 2.25  58 2.25  34 2.30  54 2.32
  19  0.123  0.613  0.623-  47 2.25  59 2.25  35 2.30  55 2.32
  20  0.623  0.613  0.623-  48 2.25  60 2.25  36 2.30  56 2.32
  21  0.377  0.363  0.627-  36 2.25  55 2.25  46 2.30  57 2.32
  22  0.877  0.363  0.627-  35 2.25  56 2.25  45 2.30  58 2.32
  23  0.377  0.863  0.627-  34 2.25  53 2.25  48 2.30  59 2.32
  24  0.877  0.863  0.627-  33 2.25  54 2.25  47 2.30  60 2.32
  25  0.375  0.118  0.375-  57 2.27  62 2.27  34 2.28  37 2.28
  26  0.875  0.118  0.375-  58 2.27  61 2.27  33 2.28  38 2.28
  27  0.375  0.618  0.375-  59 2.27  64 2.27  36 2.28  39 2.28
  28  0.875  0.618  0.375-  60 2.27  63 2.27  35 2.28  40 2.28
  29  0.125  0.369  0.375-  35 2.27  39 2.27  57 2.31  61 2.31
  30  0.625  0.369  0.375-  36 2.27  40 2.27  58 2.31  62 2.31
  31  0.125  0.869  0.375-  33 2.27  37 2.27  59 2.31  63 2.31
  32  0.625  0.869  0.375-  34 2.27  38 2.27  60 2.31  64 2.31
  33  0.995  0.009  0.500-  24 2.25  31 2.27  26 2.28  17 2.30
  34  0.495  0.009  0.500-  23 2.25  32 2.27  25 2.28  18 2.30
  35  0.995  0.509  0.500-  22 2.25  29 2.27  28 2.28  19 2.30
  36  0.495  0.509  0.500-  21 2.25  30 2.27  27 2.28  20 2.30
  37  0.255  0.009  0.250-   7 2.25  31 2.27  25 2.28   1 2.30
  38  0.755  0.009  0.250-   8 2.25  32 2.27  26 2.28   2 2.30
  39  0.255  0.509  0.250-   5 2.25  29 2.27  27 2.28   3 2.30
  40  0.755  0.509  0.250-   6 2.25  30 2.27  28 2.28   4 2.30
  41  0.245  0.259  0.000-   1 2.25  13 2.27   9 2.28   5 2.30
  42  0.745  0.259  0.000-   2 2.25  14 2.27  10 2.28   6 2.30
  43  0.245  0.759  0.000-   3 2.25  15 2.27  11 2.28   7 2.30
  44  0.745  0.759  0.000-   4 2.25  16 2.27  12 2.28   8 2.30
  45  0.005  0.259  0.750-  17 2.25  14 2.27   9 2.28  22 2.30
  46  0.505  0.259  0.750-  18 2.25  13 2.27  10 2.28  21 2.30
  47  0.005  0.759  0.750-  19 2.25  16 2.27  11 2.28  24 2.30
  48  0.505  0.759  0.750-  20 2.25  15 2.27  12 2.28  23 2.30
  49  0.997  0.009  0.002-   8 2.25  11 2.27  14 2.31   1 2.32
  50  0.497  0.009  0.002-   7 2.25  12 2.27  13 2.31   2 2.32
  51  0.997  0.509  0.002-   6 2.25   9 2.27  16 2.31   3 2.32
  52  0.497  0.509  0.002-   5 2.25  10 2.27  15 2.31   4 2.32
  53  0.253  0.009  0.748-  23 2.25  11 2.27  13 2.31  17 2.32
  54  0.753  0.009  0.748-  24 2.25  12 2.27  14 2.31  18 2.32
  55  0.253  0.509  0.748-  21 2.25   9 2.27  15 2.31  19 2.32
  56  0.753  0.509  0.748-  22 2.25  10 2.27  16 2.31  20 2.32
  57  0.247  0.259  0.502-  17 2.25  25 2.27  29 2.31  21 2.32
  58  0.747  0.259  0.502-  18 2.25  26 2.27  30 2.31  22 2.32
  59  0.247  0.759  0.502-  19 2.25  27 2.27  31 2.31  23 2.32
  60  0.747  0.759  0.502-  20 2.25  28 2.27  32 2.31  24 2.32
  61  0.003  0.259  0.248-   1 2.25  26 2.27  29 2.31   6 2.32
  62  0.503  0.259  0.248-   2 2.25  25 2.27  30 2.31   5 2.32
  63  0.003  0.759  0.248-   3 2.25  28 2.27  31 2.31   8 2.32
  64  0.503  0.759  0.248-   4 2.25  27 2.27  32 2.31   7 2.32
 
  LATTYP: Found a simple monoclinic cell.
 ALAT       =    16.0309933678
 B/A-ratio  =     0.6580249744
 C/A-ratio  =     1.5534446255
 COS(beta)  =    -0.9628419552
  
  Lattice vectors:
  
 A1 = ( -11.3832850000,   0.0000000000, -11.2877620000)
 A2 = (   0.0000000000, -10.5487940000,   0.0000000000)
 A3 = (  12.2906510000,   0.0000000000,  21.6590000000)


Analysis of symmetry for initial positions (statically):
=====================================================================
 Subroutine PRICEL returns following result:
 
  LATTYP: Found a base centered monoclinic cell.
 ALAT       =    10.8176306666
 B/A-ratio  =     0.4875741429
 C/A-ratio  =     0.9623969228
 COS(beta)  =    -0.7891852984
  
  Lattice vectors:
  
 A1 = (  -2.1652967500,  -2.6371985000,   4.9564880000)
 A2 = (  -2.1652967500,   2.6371985000,   4.9564880000)
 A3 = (  -0.9073660000,   0.0000000000, -10.3712380000)
 
   8 primitive cells build up your supercell.
 

 Routine SETGRP: Setting up the symmetry group for a 
 simple monoclinic supercell.


 Subroutine GETGRP returns: Found  2 space group operations
 (whereof  1 operations were pure point group operations)
 out of a pool of  4 trial point group operations.


The static configuration has the point symmetry C_1 .
 The point group associated with its full space group is C_2 .


Analysis of symmetry for dynamics (positions and initial velocities):
=====================================================================
 Subroutine PRICEL returns following result:
 
  LATTYP: Found a base centered monoclinic cell.
 ALAT       =    10.8176306666
 B/A-ratio  =     0.4875741429
 C/A-ratio  =     0.9623969228
 COS(beta)  =    -0.7891852984
  
  Lattice vectors:
  
 A1 = (  -2.1652967500,  -2.6371985000,   4.9564880000)
 A2 = (  -2.1652967500,   2.6371985000,   4.9564880000)
 A3 = (  -0.9073660000,   0.0000000000, -10.3712380000)
 
   8 primitive cells build up your supercell.
 

 Routine SETGRP: Setting up the symmetry group for a 
 simple monoclinic supercell.


 Subroutine GETGRP returns: Found  2 space group operations
 (whereof  1 operations were pure point group operations)
 out of a pool of  4 trial point group operations.


The dynamic configuration has the point symmetry C_1 .
 The point group associated with its full space group is C_2 .


Analysis of structural, dynamic, and magnetic symmetry:
=====================================================================
 Subroutine PRICEL returns following result:
 
  LATTYP: Found a base centered monoclinic cell.
 ALAT       =    10.8176306666
 B/A-ratio  =     0.4875741429
 C/A-ratio  =     0.9623969228
 COS(beta)  =    -0.7891852984
  
  Lattice vectors:
  
 A1 = (  -2.1652967500,  -2.6371985000,   4.9564880000)
 A2 = (  -2.1652967500,   2.6371985000,   4.9564880000)
 A3 = (  -0.9073660000,   0.0000000000, -10.3712380000)
 
   8 primitive cells build up your supercell.
 

 Routine SETGRP: Setting up the symmetry group for a 
 simple monoclinic supercell.


 Subroutine GETGRP returns: Found  2 space group operations
 (whereof  1 operations were pure point group operations)
 out of a pool of  4 trial point group operations.


The magnetic configuration has the point symmetry C_1 .
 The point group associated with its full space group is C_2 .


 Subroutine INISYM returns: Found  2 space group operations
 (whereof  1 operations are pure point group operations),
 and found     8 'primitive' translations

 
 
 KPOINTS: Automatic mesh                          

Automatic generation of k-mesh.
Space group operators:
 irot       det(A)        alpha          n_x          n_y          n_z        tau_x        tau_y        tau_z
    1     1.000000     0.000001     1.000000     0.000000     0.000000     0.000000     0.000000     0.000000
    2     1.000000   180.000000     0.000000     1.000000     0.000000    -0.250000    -0.000000    -0.250000
 
 Subroutine IBZKPT returns following result:
 ===========================================
 
 Found      8 irreducible k-points:
 
 Following reciprocal coordinates:
            Coordinates               Weight
  0.000000  0.000000  0.000000      1.000000
  0.500000  0.000000 -0.000000      1.000000
  0.000000  0.500000  0.000000      1.000000
  0.500000  0.500000 -0.000000      1.000000
  0.000000  0.000000  0.500000      1.000000
  0.500000  0.000000  0.500000      1.000000
  0.000000  0.500000  0.500000      1.000000
  0.500000  0.500000  0.500000      1.000000
 
 Following cartesian coordinates:
            Coordinates               Weight
  0.000000  0.000000  0.000000      1.000000
  0.048097  0.000000 -0.004208      1.000000
  0.000000  0.047399  0.000000      1.000000
  0.048097  0.047399 -0.004208      1.000000
 -0.004250  0.000000  0.048582      1.000000
  0.043846  0.000000  0.044374      1.000000
 -0.004250  0.047399  0.048582      1.000000
  0.043846  0.047399  0.044374      1.000000
 
 TETIRR: Found     24 inequivalent tetrahedra from       48
 
 Subroutine IBZKPT_HF returns following result:
 ==============================================
 
 Found      8 k-points in 1st BZ
 the following      8 k-points will be used (e.g. in the exchange kernel)
 Following reciprocal coordinates:   # in IRBZ
  0.000000  0.000000  0.000000    0.12500000   1 t-inv F
  0.500000  0.000000 -0.000000    0.12500000   2 t-inv F
  0.000000  0.500000  0.000000    0.12500000   3 t-inv F
  0.500000  0.500000 -0.000000    0.12500000   4 t-inv F
  0.000000  0.000000  0.500000    0.12500000   5 t-inv F
  0.500000  0.000000  0.500000    0.12500000   6 t-inv F
  0.000000  0.500000  0.500000    0.12500000   7 t-inv F
  0.500000  0.500000  0.500000    0.12500000   8 t-inv F


--------------------------------------------------------------------------------------------------------




 Dimension of arrays:
   k-points           NKPTS =      8   k-points in BZ     NKDIM =      8   number of bands    NBANDS=    512
   number of dos      NEDOS =    301   number of ions     NIONS =     64
   non local maximal  LDIM  =      6   non local SUM 2l+1 LMDIM =     18
   total plane-waves  NPLWV = 829440
   max r-space proj   IRMAX =      1   max aug-charges    IRDMAX=  23173
   dimension x,y,z NGX =    96 NGY =   96 NGZ =   90
   dimension x,y,z NGXF=   192 NGYF=  192 NGZF=  180
   support grid    NGXF=   192 NGYF=  192 NGZF=  180
   ions per type =              32  16  16
   NGX,Y,Z   is equivalent  to a cutoff of  15.18, 15.13, 14.37 a.u.
   NGXF,Y,Z  is equivalent  to a cutoff of  30.35, 30.26, 28.74 a.u.

 SYSTEM =  CuFeS2                                  
 POSCAR =  Fe16 Cu16 S32                           

 Startparameter for this run:
   NWRITE =      2    write-flag & timer
   PREC   = accura    normal or accurate (medium, high low for compatibility)
   ISTART =      0    job   : 0-new  1-cont  2-samecut
   ICHARG =      1    charge: 1-file 2-atom 10-const
   ISPIN  =      2    spin polarized calculation?
   LNONCOLLINEAR =      F non collinear calculations
   LSORBIT =      F    spin-orbit coupling
   INIWAV =      1    electr: 0-lowe 1-rand  2-diag
   LASPH  =      F    aspherical Exc in radial PAW
   METAGGA=      F    non-selfconsistent MetaGGA calc.

 Electronic Relaxation 1
   ENCUT  =  700.0 eV  51.45 Ry    7.17 a.u.  22.69 22.76 22.46*2*pi/ulx,y,z
   ENINI  =  700.0     initial cutoff
   ENAUG  =  758.2 eV  augmentation charge cutoff
   NELM   =    500;   NELMIN=  2; NELMDL=  0     # of ELM steps 
   EDIFF  = 0.1E-07   stopping-criterion for ELM
   LREAL  =      F    real-space projection
   NLSPLINE    = F    spline interpolate recip. space projectors
   LCOMPAT=      F    compatible to vasp.4.4
   GGA_COMPAT  = T    GGA compatible to vasp.4.4-vasp.4.6
   LMAXPAW     = -100 max onsite density
   LMAXMIX     =    4 max onsite mixed and CHGCAR
   VOSKOWN=      0    Vosko Wilk Nusair interpolation
   ROPT   =    0.00000   0.00000   0.00000
 Ionic relaxation
   EDIFFG = -.1E-04   stopping-criterion for IOM
   NSW    =      0    number of steps for IOM
   NBLOCK =      1;   KBLOCK =      1    inner block; outer block 
   IBRION =     -1    ionic relax: 0-MD 1-quasi-New 2-CG
   NFREE  =      0    steps in history (QN), initial steepest desc. (CG)
   ISIF   =      2    stress and relaxation
   IWAVPR =     10    prediction:  0-non 1-charg 2-wave 3-comb
   ISYM   =      2    0-nonsym 1-usesym 2-fastsym
   LCORR  =      T    Harris-Foulkes like correction to forces

   POTIM  = 0.5000    time-step for ionic-motion
   TEIN   =    0.0    initial temperature
   TEBEG  =    0.0;   TEEND  =   0.0 temperature during run
   SMASS  =  -3.00    Nose mass-parameter (am)
   estimated Nose-frequenzy (Omega)   =  0.10E-29 period in steps =****** mass=  -0.253E-26a.u.
   SCALEE = 1.0000    scale energy and forces
   NPACO  =    256;   APACO  = 16.0  distance and # of slots for P.C.
   PSTRESS=    0.0 pullay stress

  Mass of Ions in am
   POMASS =  32.07 63.55 55.85
  Ionic Valenz
   ZVAL   =   6.00 17.00 14.00
  Atomic Wigner-Seitz radii
   RWIGS  =  -1.00 -1.00 -1.00
  virtual crystal weights 
   VCA    =   1.00  1.00  1.00
   NELECT =     688.0000    total number of electrons
   NUPDOWN=      -1.0000    fix difference up-down

 DOS related values:
   EMIN   =  10.00;   EMAX   =-10.00  energy-range for DOS
   EFERMI =   0.00
   ISMEAR =    -5;   SIGMA  =   0.03  broadening in eV -4-tet -1-fermi 0-gaus

 Electronic relaxation 2 (details)
   IALGO  =     38    algorithm
   LDIAG  =      T    sub-space diagonalisation (order eigenvalues)
   LSUBROT=      F    optimize rotation matrix (better conditioning)
   TURBO    =      0    0=normal 1=particle mesh
   IRESTART =      0    0=no restart 2=restart with 2 vectors
   NREBOOT  =      0    no. of reboots
   NMIN     =      0    reboot dimension
   EREF     =   0.00    reference energy to select bands
   IMIX   =      4    mixing-type and parameters
     AMIX     =   0.40;   BMIX     =  1.00
     AMIX_MAG =   1.60;   BMIX_MAG =  1.00
     AMIN     =   0.10
     WC   =   100.;   INIMIX=   1;  MIXPRE=   1;  MAXMIX= -45

 Intra band minimization:
   WEIMIN = 0.0000     energy-eigenvalue tresh-hold
   EBREAK =  0.49E-11  absolut break condition
   DEPER  =   0.30     relativ break condition  

   TIME   =   0.40     timestep for ELM

  volume/ion in A,a.u.               =      17.77       119.92
  Fermi-wavevector in a.u.,A,eV,Ry     =   1.384548  2.616417 26.082017  1.916974
  Thomas-Fermi vector in A             =   2.509042
 
 Write flags
   LWAVE        =      T    write WAVECAR
   LDOWNSAMPLE  =      F    k-point downsampling of WAVECAR
   LCHARG       =      T    write CHGCAR
   LVTOT        =      F    write LOCPOT, total local potential
   LVHAR        =      F    write LOCPOT, Hartree potential only
   LELF         =      F    write electronic localiz. function (ELF)
   LORBIT       =     11    0 simple, 1 ext, 2 COOP (PROOUT), +10 PAW based schemes


 Dipole corrections
   LMONO  =      F    monopole corrections only (constant potential shift)
   LDIPOL =      F    correct potential (dipole corrections)
   IDIPOL =      0    1-x, 2-y, 3-z, 4-all directions 
   EPSILON=  1.0000000 bulk dielectric constant

 LDA+U is selected, type is set to LDAUTYPE =  2
   angular momentum for each species LDAUL =     2    2    2
   U (eV)           for each species LDAUU =   0.0  0.1  4.7
   J (eV)           for each species LDAUJ =   0.0  0.0  0.0
 Exchange correlation treatment:
   GGA     =    PS    GGA type
   LEXCH   =    14    internal setting for exchange type
   VOSKOWN=      0    Vosko Wilk Nusair interpolation
   LHFCALC =     F    Hartree Fock is set to
   LHFONE  =     F    Hartree Fock one center treatment
   AEXX    =    0.0000 exact exchange contribution

 Linear response parameters
   LEPSILON=     F    determine dielectric tensor
   LRPA    =     F    only Hartree local field effects (RPA)
   LNABLA  =     F    use nabla operator in PAW spheres
   LVEL    =     F    velocity operator in full k-point grid
   LINTERFAST=   F  fast interpolation
   KINTER  =     0    interpolate to denser k-point grid
   CSHIFT  =0.1000    complex shift for real part using Kramers Kronig
   OMEGAMAX=  -1.0    maximum frequency
   DEG_THRESHOLD= 0.2000000E-02 threshold for treating states as degnerate
   RTIME   =   -0.100 relaxation time in fs
  (WPLASMAI=    0.000 imaginary part of plasma frequency in eV, 0.658/RTIME)
   DFIELD  = 0.0000000 0.0000000 0.0000000 field for delta impulse in time
 
 Orbital magnetization related:
   ORBITALMAG=     F  switch on orbital magnetization
   LCHIMAG   =     F  perturbation theory with respect to B field
   DQ        =  0.001000  dq finite difference perturbation B field
   LLRAUG    =     F  two centre corrections for induced B field

 PEAD related settings:
   LPEAD      =     T    switch on PEAD
   IPEAD      =     4    finite difference order for dpsi/dk
   LCALCPOL   =     T    calculate macroscopic polarization
   LCALCEPS   =     F    calculate dielectric tensor
   EFIELD_PEAD=    0.0000    0.0000    0.0000
   SKIP_EDOTP =     F
   LRPA       =     F
   SKIP_SCF   =     F


--------------------------------------------------------------------------------------------------------


 Static calculation
 charge density and potential will be updated during run
 spin polarized calculation
 Variant of blocked Davidson
 Davidson routine will perform the subspace rotation
 perform sub-space diagonalisation
    after iterative eigenvector-optimisation
 modified Broyden-mixing scheme, WC =      100.0
 initial mixing is a Kerker type mixing with AMIX =  0.4000 and BMIX =      1.0000
 Hartree-type preconditioning will be used
 using additional bands          168
 reciprocal scheme for non local part
 use partial core corrections
 calculate Harris-corrections to forces 
   (improved forces if not selfconsistent)
 use gradient corrections 
 use of overlap-Matrix (Vanderbilt PP)
 Fermi weights with tetrahedron method with Bloechl corrections


--------------------------------------------------------------------------------------------------------


  energy-cutoff  :      700.00
  volume of cell :     1137.34
      direct lattice vectors                 reciprocal lattice vectors
    10.475919000  0.000000000  0.916524000     0.096193308  0.000000000 -0.008415826
     0.000000000 10.548794000  0.000000000     0.000000000  0.094797566  0.000000000
     0.907366000  0.000000000 10.371238000    -0.008500767  0.000000000  0.097164225

  length of vectors
    10.515935295 10.548794000 10.410854466     0.096560751  0.094797566  0.097535377


 
 k-points in units of 2pi/SCALE and weight: Automatic mesh                          
   0.00000000  0.00000000  0.00000000       0.125
   0.04809665  0.00000000 -0.00420791       0.125
   0.00000000  0.04739878  0.00000000       0.125
   0.04809665  0.04739878 -0.00420791       0.125
  -0.00425038  0.00000000  0.04858211       0.125
   0.04384627  0.00000000  0.04437420       0.125
  -0.00425038  0.04739878  0.04858211       0.125
   0.04384627  0.04739878  0.04437420       0.125
 
 k-points in reciprocal lattice and weights: Automatic mesh                          
   0.00000000  0.00000000  0.00000000       0.125
   0.50000000  0.00000000 -0.00000000       0.125
   0.00000000  0.50000000  0.00000000       0.125
   0.50000000  0.50000000 -0.00000000       0.125
   0.00000000  0.00000000  0.50000000       0.125
   0.50000000  0.00000000  0.50000000       0.125
   0.00000000  0.50000000  0.50000000       0.125
   0.50000000  0.50000000  0.50000000       0.125
 
 position of ions in fractional coordinates (direct lattice) 
   0.12693600  0.11347700  0.12663000
   0.62693600  0.11347700  0.12663000
   0.12693600  0.61347700  0.12663000
   0.62693600  0.61347700  0.12663000
   0.37306400  0.36347700  0.12337000
   0.87306400  0.36347700  0.12337000
   0.37306400  0.86347700  0.12337000
   0.87306400  0.86347700  0.12337000
   0.12500000  0.36834900  0.87500000
   0.62500000  0.36834900  0.87500000
   0.12500000  0.86834900  0.87500000
   0.62500000  0.86834900  0.87500000
   0.37500000  0.11880200  0.87500000
   0.87500000  0.11880200  0.87500000
   0.37500000  0.61880200  0.87500000
   0.87500000  0.61880200  0.87500000
   0.12306400  0.11347700  0.62337000
   0.62306400  0.11347700  0.62337000
   0.12306400  0.61347700  0.62337000
   0.62306400  0.61347700  0.62337000
   0.37693600  0.36347700  0.62663000
   0.87693600  0.36347700  0.62663000
   0.37693600  0.86347700  0.62663000
   0.87693600  0.86347700  0.62663000
   0.37500000  0.11834900  0.37500000
   0.87500000  0.11834900  0.37500000
   0.37500000  0.61834900  0.37500000
   0.87500000  0.61834900  0.37500000
   0.12500000  0.36880200  0.37500000
   0.62500000  0.36880200  0.37500000
   0.12500000  0.86880200  0.37500000
   0.62500000  0.86880200  0.37500000
   0.99510600  0.00896200  0.50010900
   0.49510600  0.00896200  0.50010900
   0.99510600  0.50896200  0.50010900
   0.49510600  0.50896200  0.50010900
   0.25489400  0.00896200  0.24989100
   0.75489400  0.00896200  0.24989100
   0.25489400  0.50896200  0.24989100
   0.75489400  0.50896200  0.24989100
   0.24510600  0.25896200  0.00010900
   0.74510600  0.25896200  0.00010900
   0.24510600  0.75896200  0.00010900
   0.74510600  0.75896200  0.00010900
   0.00489400  0.25896200  0.74989100
   0.50489400  0.25896200  0.74989100
   0.00489400  0.75896200  0.74989100
   0.50489400  0.75896200  0.74989100
   0.99686600  0.00898500  0.00222500
   0.49686600  0.00898500  0.00222500
   0.99686600  0.50898500  0.00222500
   0.49686600  0.50898500  0.00222500
   0.25313400  0.00898500  0.74777500
   0.75313400  0.00898500  0.74777500
   0.25313400  0.50898500  0.74777500
   0.75313400  0.50898500  0.74777500
   0.24686600  0.25898500  0.50222500
   0.74686600  0.25898500  0.50222500
   0.24686600  0.75898500  0.50222500
   0.74686600  0.75898500  0.50222500
   0.00313400  0.25898500  0.24777500
   0.50313400  0.25898500  0.24777500
   0.00313400  0.75898500  0.24777500
   0.50313400  0.75898500  0.24777500
 
 position of ions in cartesian coordinates  (Angst):
   1.44467101  1.19704550  1.42964976
   6.68263051  1.19704550  1.88791176
   1.44467101  6.47144250  1.42964976
   6.68263051  6.47144250  1.88791176
   4.02012999  3.83424400  1.62142174
   9.25808949  3.83424400  2.07968374
   4.02012999  9.10864100  1.62142174
   9.25808949  9.10864100  2.07968374
   2.10343512  3.88563772  9.18939875
   7.34139462  3.88563772  9.64766075
   2.10343512  9.16003472  9.18939875
   7.34139462  9.16003472  9.64766075
   4.72241488  1.25321782  9.41852975
   9.96037437  1.25321782  9.87679175
   4.72241488  6.52761482  9.41852975
   9.96037437  6.52761482  9.87679175
   1.85483324  1.19704550  6.57790974
   7.09279274  1.19704550  7.03617174
   1.85483324  6.47144250  6.57790974
   7.09279274  6.47144250  7.03617174
   4.51733376  3.83424400  6.84439976
   9.75529326  3.83424400  7.30266176
   4.51733376  9.10864100  6.84439976
   9.75529326  9.10864100  7.30266176
   4.26873188  1.24843922  4.23291075
   9.50669137  1.24843922  4.69117275
   4.26873188  6.52283622  4.23291075
   9.50669137  6.52283622  4.69117275
   1.64975213  3.89041632  4.00377975
   6.88771162  3.89041632  4.46204175
   1.64975213  9.16481332  4.00377975
   6.88771162  9.16481332  4.46204175
  10.87843176  0.09453829  6.09878800
   5.64047226  0.09453829  5.64052600
  10.87843176  5.36893529  6.09878800
   5.64047226  5.36893529  5.64052600
   2.89699149  0.09453829  2.82529550
   8.13495099  0.09453829  3.28355750
   2.89699149  5.36893529  2.82529550
   8.13495099  5.36893529  3.28355750
   2.56780951  2.73173679  0.22577600
   7.80576901  2.73173679  0.68403800
   2.56780951  8.00613379  0.22577600
   7.80576901  8.00613379  0.68403800
   0.73169474  2.73173679  7.78178350
   5.96965424  2.73173679  8.24004550
   0.73169474  8.00613379  7.78178350
   5.96965424  8.00613379  8.24004550
  10.44510636  0.09478091  0.93672762
   5.20714686  0.09478091  0.47846562
  10.44510636  5.36917791  0.93672762
   5.20714686  5.36917791  0.47846562
   3.33031689  0.09478091  7.98735588
   8.56827639  0.09478091  8.44561788
   3.33031689  5.36917791  7.98735588
   8.56827639  5.36917791  8.44561788
   3.04185011  2.73197941  5.43495362
   8.27980961  2.73197941  5.89321562
   3.04185011  8.00637641  5.43495362
   8.27980961  8.00637641  5.89321562
   0.25765414  2.73197941  2.57260588
   5.49561364  2.73197941  3.03086788
   0.25765414  8.00637641  2.57260588
   5.49561364  8.00637641  3.03086788
 


--------------------------------------------------------------------------------------------------------


 k-point  1 :   0.0000 0.0000 0.0000  plane waves:   47819
 k-point  2 :   0.5000 0.0000-0.0000  plane waves:   47872
 k-point  3 :   0.0000 0.5000 0.0000  plane waves:   47882
 k-point  4 :   0.5000 0.5000-0.0000  plane waves:   47852
 k-point  5 :   0.0000 0.0000 0.5000  plane waves:   47824
 k-point  6 :   0.5000 0.0000 0.5000  plane waves:   47836
 k-point  7 :   0.0000 0.5000 0.5000  plane waves:   47828
 k-point  8 :   0.5000 0.5000 0.5000  plane waves:   47760

 maximum and minimum number of plane-waves per node :     47882    47760

 maximum number of plane-waves:     47882
 maximum index in each direction: 
   IXMAX=   22   IYMAX=   22   IZMAX=   22
   IXMIN=  -23   IYMIN=  -23   IZMIN=  -22


 serial   3D FFT for wavefunctions
 parallel 3D FFT for charge:
    minimum data exchange during FFTs selected (reduces bandwidth)


 total amount of memory used by VASP MPI-rank0   347075. kBytes
=======================================================================

   base      :      30000. kBytes
   nonl-proj :     215613. kBytes
   fftplans  :       4588. kBytes
   grid      :      69719. kBytes
   one-center:       1990. kBytes
   wavefun   :      25165. kBytes
 
     INWAV:  cpu time    0.0001: real time    0.0002
 Broyden mixing: mesh for mixing (old mesh)
   NGX = 45   NGY = 45   NGZ = 45
  (NGX  =192   NGY  =192   NGZ  =180)
  gives a total of  91125 points

 initial charge density was supplied:
 number of electron     688.0000140 magnetization      -0.0000000
 keeping initial charge density in first step


--------------------------------------------------------------------------------------------------------


 Maximum index for augmentation-charges          888 (set IRDMAX)


--------------------------------------------------------------------------------------------------------


 First call to EWALD:  gamma=   0.170
 Maximum number of real-space cells 3x 3x 3
 Maximum number of reciprocal cells 3x 3x 3

    FEWALD:  cpu time    0.0026: real time    0.0026


--------------------------------------- Iteration      1(   1)  ---------------------------------------


    POTLOK:  cpu time    0.3563: real time    0.4003
    SETDIJ:  cpu time    0.0151: real time    0.0152
     EDDAV:  cpu time   84.3117: real time   85.3526
 BZINTS: Fermi energy: 15.149964;688.000000 electrons
         Band energy:***********;  BLOECHL correction: -0.012713
       DOS:  cpu time    0.0407: real time    0.0408
    --------------------------------------------
      LOOP:  cpu time   84.7238: real time   85.8091

 eigenvalue-minimisations  : 16384
 total energy-change (2. order) : 0.6052410E+04  (-0.5150231E+05)
 number of electron     688.0000140 magnetization      -0.0000000
 augmentation part      688.0000140 magnetization      -0.0000000

 Free energy of the ion-electron system (eV)
  ---------------------------------------------------
  alpha Z        PSCENC =      2383.77402658
  Ewald energy   TEWEN  =    -62821.39865055
  -Hartree energ DENC   =    -42740.30463368
  -exchange      EXHF   =         0.00000000
  -V(xc)+E(xc)   XCENC  =      3286.44659541
  PAW double counting   =    112006.03736751  -115694.97744343
  entropy T*S    EENTRO =         0.00000000
  eigenvalues    EBANDS =     -4387.23286207
  atomic energy  EATOM  =    114020.06510763
  Solvation  Ediel_sol  =         0.00000000
  ---------------------------------------------------
  free energy    TOTEN  =      6052.40950742 eV

  energy without entropy =     6052.40950742  energy(sigma->0) =     6052.40950742


--------------------------------------------------------------------------------------------------------




--------------------------------------- Iteration      1(   2)  ---------------------------------------


     EDDAV:  cpu time   98.1551: real time   98.8914
 BZINTS: Fermi energy:  5.755558;688.000000 electrons
         Band energy:***********;  BLOECHL correction:  0.000000
       DOS:  cpu time    0.0103: real time    0.0103
    --------------------------------------------
      LOOP:  cpu time   98.1654: real time   98.9017

 eigenvalue-minimisations  : 17920
 total energy-change (2. order) :-0.6126721E+04  (-0.6015987E+04)
 number of electron     688.0000140 magnetization      -0.0000000
 augmentation part      688.0000140 magnetization      -0.0000000

 Free energy of the ion-electron system (eV)
  ---------------------------------------------------
  alpha Z        PSCENC =      2383.77402658
  Ewald energy   TEWEN  =    -62821.39865055
  -Hartree energ DENC   =    -42740.30463368
  -exchange      EXHF   =         0.00000000
  -V(xc)+E(xc)   XCENC  =      3286.44659541
  PAW double counting   =    112006.03736751  -115694.97744343
  entropy T*S    EENTRO =         0.00000000
  eigenvalues    EBANDS =    -10513.95426149
  atomic energy  EATOM  =    114020.06510763
  Solvation  Ediel_sol  =         0.00000000
  ---------------------------------------------------
  free energy    TOTEN  =       -74.31189201 eV

  energy without entropy =      -74.31189201  energy(sigma->0) =      -74.31189201


--------------------------------------------------------------------------------------------------------




--------------------------------------- Iteration      1(   3)  ---------------------------------------


     EDDAV:  cpu time  154.5230: real time  155.5827
 BZINTS: Fermi energy:  5.221955;688.000000 electrons
         Band energy:***********;  BLOECHL correction:  0.000000
       DOS:  cpu time    0.0067: real time    0.0068
    --------------------------------------------
      LOOP:  cpu time  154.5298: real time  155.5894

 eigenvalue-minimisations  : 22528
 total energy-change (2. order) :-0.2469605E+03  (-0.2460452E+03)
 number of electron     688.0000140 magnetization      -0.0000000
 augmentation part      688.0000140 magnetization      -0.0000000

 Free energy of the ion-electron system (eV)
  ---------------------------------------------------
  alpha Z        PSCENC =      2383.77402658
  Ewald energy   TEWEN  =    -62821.39865055
  -Hartree energ DENC   =    -42740.30463368
  -exchange      EXHF   =         0.00000000
  -V(xc)+E(xc)   XCENC  =      3286.44659541
  PAW double counting   =    112006.03736751  -115694.97744343
  entropy T*S    EENTRO =         0.00000000
  eigenvalues    EBANDS =    -10760.91476070
  atomic energy  EATOM  =    114020.06510763
  Solvation  Ediel_sol  =         0.00000000
  ---------------------------------------------------
  free energy    TOTEN  =      -321.27239122 eV

  energy without entropy =     -321.27239122  energy(sigma->0) =     -321.27239122


--------------------------------------------------------------------------------------------------------




--------------------------------------- Iteration      1(   4)  ---------------------------------------


     EDDAV:  cpu time  120.8099: real time  121.6757
 BZINTS: Fermi energy:  5.196232;688.000000 electrons
         Band energy:***********;  BLOECHL correction:  0.000000
       DOS:  cpu time    0.0068: real time    0.0068
    --------------------------------------------
      LOOP:  cpu time  120.8167: real time  121.6825

 eigenvalue-minimisations  : 19456
 total energy-change (2. order) :-0.3408445E+01  (-0.3408251E+01)
 number of electron     688.0000140 magnetization      -0.0000000
 augmentation part      688.0000140 magnetization      -0.0000000

 Free energy of the ion-electron system (eV)
  ---------------------------------------------------
  alpha Z        PSCENC =      2383.77402658
  Ewald energy   TEWEN  =    -62821.39865055
  -Hartree energ DENC   =    -42740.30463368
  -exchange      EXHF   =         0.00000000
  -V(xc)+E(xc)   XCENC  =      3286.44659541
  PAW double counting   =    112006.03736751  -115694.97744343
  entropy T*S    EENTRO =         0.00000000
  eigenvalues    EBANDS =    -10764.32320592
  atomic energy  EATOM  =    114020.06510763
  Solvation  Ediel_sol  =         0.00000000
  ---------------------------------------------------
  free energy    TOTEN  =      -324.68083644 eV

  energy without entropy =     -324.68083644  energy(sigma->0) =     -324.68083644


--------------------------------------------------------------------------------------------------------




--------------------------------------- Iteration      1(   5)  ---------------------------------------


     EDDAV:  cpu time  151.0168: real time  152.0560
 BZINTS: Fermi energy:  5.152783;688.000000 electrons
         Band energy:***********;  BLOECHL correction:  0.000000
       DOS:  cpu time    0.0068: real time    0.0068
    CHARGE:  cpu time    1.6062: real time    1.6163
    MIXING:  cpu time    0.0027: real time    0.0028
    --------------------------------------------
      LOOP:  cpu time  152.6325: real time  153.6818

 eigenvalue-minimisations  : 21760
 total energy-change (2. order) :-0.1007898E+00  (-0.1007892E+00)
 number of electron     688.0000140 magnetization      -0.0000000
 augmentation part      282.3112356 magnetization      -0.0000000

 Broyden mixing:
  rms(total) = 0.27634E+00    rms(broyden)= 0.27633E+00
  rms(prec ) = 0.27698E+00
  weight for this iteration     100.00

 Free energy of the ion-electron system (eV)
  ---------------------------------------------------
  alpha Z        PSCENC =      2383.77402658
  Ewald energy   TEWEN  =    -62821.39865055
  -Hartree energ DENC   =    -42740.30463368
  -exchange      EXHF   =         0.00000000
  -V(xc)+E(xc)   XCENC  =      3286.44659541
  PAW double counting   =    112006.03736751  -115694.97744343
  entropy T*S    EENTRO =         0.00000000
  eigenvalues    EBANDS =    -10764.42399568
  atomic energy  EATOM  =    114020.06510763
  Solvation  Ediel_sol  =         0.00000000
  ---------------------------------------------------
  free energy    TOTEN  =      -324.78162619 eV

  energy without entropy =     -324.78162619  energy(sigma->0) =     -324.78162619


--------------------------------------------------------------------------------------------------------




--------------------------------------- Iteration      1(   6)  ---------------------------------------


    POTLOK:  cpu time    0.1664: real time    0.1682
    SETDIJ:  cpu time    0.0153: real time    0.0154
     EDDAV:  cpu time  152.2407: real time  153.2834
 BZINTS: Fermi energy:  5.148090;688.000000 electrons
         Band energy:***********;  BLOECHL correction:  0.000000
       DOS:  cpu time    0.0069: real time    0.0069
    CHARGE:  cpu time    1.4112: real time    1.4202
    MIXING:  cpu time    0.0030: real time    0.0753
    --------------------------------------------
      LOOP:  cpu time  153.8435: real time  154.9694

 eigenvalue-minimisations  : 22016
 total energy-change (2. order) :-0.2898462E-01  (-0.9996640E-02)
 number of electron     688.0000140 magnetization      -0.0000000
 augmentation part      282.2937384 magnetization      -0.0000000

 Broyden mixing:
  rms(total) = 0.16184E+00    rms(broyden)= 0.16184E+00
  rms(prec ) = 0.16206E+00
  weight for this iteration     100.00

 eigenvalues of (default mixing * dielectric matrix)
  average eigenvalue GAMMA=   0.7267
  0.7267

 Free energy of the ion-electron system (eV)
  ---------------------------------------------------
  alpha Z        PSCENC =      2383.77402658
  Ewald energy   TEWEN  =    -62821.39865055
  -Hartree energ DENC   =    -42740.67574048
  -exchange      EXHF   =         0.00000000
  -V(xc)+E(xc)   XCENC  =      3286.47667669
  PAW double counting   =    112025.80823385  -115714.90929085
  entropy T*S    EENTRO =         0.00000000
  eigenvalues    EBANDS =    -10763.95097368
  atomic energy  EATOM  =    114020.06510763
  Solvation  Ediel_sol  =         0.00000000
  ---------------------------------------------------
  free energy    TOTEN  =      -324.81061081 eV

  energy without entropy =     -324.81061081  energy(sigma->0) =     -324.81061081


--------------------------------------------------------------------------------------------------------




--------------------------------------- Iteration      1(   7)  ---------------------------------------


    POTLOK:  cpu time    0.1654: real time    0.1665
    SETDIJ:  cpu time    0.0134: real time    0.0135
     EDDAV:  cpu time  155.1921: real time  156.2542
 BZINTS: Fermi energy:  5.144820;688.000000 electrons
         Band energy:***********;  BLOECHL correction:  0.000000
       DOS:  cpu time    0.0069: real time    0.0069
    CHARGE:  cpu time    1.4092: real time    1.4180
    MIXING:  cpu time    0.0017: real time    0.0169
    --------------------------------------------
      LOOP:  cpu time  156.7886: real time  157.8760

 eigenvalue-minimisations  : 22272
 total energy-change (2. order) :-0.8840447E-02  (-0.1546866E-02)
 number of electron     688.0000140 magnetization       0.0000000
 augmentation part      282.3087140 magnetization       0.0000000

 Broyden mixing:
  rms(total) = 0.10080E+00    rms(broyden)= 0.10080E+00
  rms(prec ) = 0.10136E+00
  weight for this iteration     100.00

 eigenvalues of (default mixing * dielectric matrix)
  average eigenvalue GAMMA=   1.4278
  2.2446  0.6111

 Free energy of the ion-electron system (eV)
  ---------------------------------------------------
  alpha Z        PSCENC =      2383.77402658
  Ewald energy   TEWEN  =    -62821.39865055
  -Hartree energ DENC   =    -42739.32179490
  -exchange      EXHF   =         0.00000000
  -V(xc)+E(xc)   XCENC  =      3286.41366019
  PAW double counting   =    112016.40509347  -115705.34883030
  entropy T*S    EENTRO =         0.00000000
  eigenvalues    EBANDS =    -10765.40806339
  atomic energy  EATOM  =    114020.06510763
  Solvation  Ediel_sol  =         0.00000000
  ---------------------------------------------------
  free energy    TOTEN  =      -324.81945126 eV

  energy without entropy =     -324.81945126  energy(sigma->0) =     -324.81945126


--------------------------------------------------------------------------------------------------------




--------------------------------------- Iteration      1(   8)  ---------------------------------------


    POTLOK:  cpu time    0.1546: real time    0.1555
    SETDIJ:  cpu time    0.0132: real time    0.0133
     EDDAV:  cpu time  147.9989: real time  149.0197
 BZINTS: Fermi energy:  5.147513;688.000000 electrons
         Band energy:***********;  BLOECHL correction:  0.000000
       DOS:  cpu time    0.0068: real time    0.0068
    CHARGE:  cpu time    1.4078: real time    1.4167
    MIXING:  cpu time    0.0014: real time    0.0014
    --------------------------------------------
      LOOP:  cpu time  149.5826: real time  150.6133

 eigenvalue-minimisations  : 21760
 total energy-change (2. order) :-0.8997713E-02  (-0.3580518E-02)
 number of electron     688.0000140 magnetization       0.0000000
 augmentation part      282.3031962 magnetization       0.0000000

 Broyden mixing:
  rms(total) = 0.44938E-01    rms(broyden)= 0.44935E-01
  rms(prec ) = 0.51952E-01
  weight for this iteration     100.00

 eigenvalues of (default mixing * dielectric matrix)
  average eigenvalue GAMMA=   1.1325
  2.3700  0.6149  0.4126

 Free energy of the ion-electron system (eV)
  ---------------------------------------------------
  alpha Z        PSCENC =      2383.77402658
  Ewald energy   TEWEN  =    -62821.39865055
  -Hartree energ DENC   =    -42741.28164770
  -exchange      EXHF   =         0.00000000
  -V(xc)+E(xc)   XCENC  =      3286.50277486
  PAW double counting   =    112008.18115780  -115697.21427331
  entropy T*S    EENTRO =         0.00000000
  eigenvalues    EBANDS =    -10763.45694429
  atomic energy  EATOM  =    114020.06510763
  Solvation  Ediel_sol  =         0.00000000
  ---------------------------------------------------
  free energy    TOTEN  =      -324.82844897 eV

  energy without entropy =     -324.82844897  energy(sigma->0) =     -324.82844897


--------------------------------------------------------------------------------------------------------




--------------------------------------- Iteration      1(   9)  ---------------------------------------


    POTLOK:  cpu time    0.1516: real time    0.1545
    SETDIJ:  cpu time    0.0133: real time    0.0134
     EDDAV:  cpu time  144.8807: real time  145.8825
 BZINTS: Fermi energy:  5.144970;688.000000 electrons
         Band energy:***********;  BLOECHL correction:  0.000000
       DOS:  cpu time    0.0068: real time    0.0068
    CHARGE:  cpu time    1.4080: real time    1.4176
    MIXING:  cpu time    0.0014: real time    0.0014
    --------------------------------------------
      LOOP:  cpu time  146.4619: real time  147.4762

 eigenvalue-minimisations  : 21248
 total energy-change (2. order) :-0.1481239E-03  (-0.1094754E-02)
 number of electron     688.0000140 magnetization       0.0000000
 augmentation part      282.3016626 magnetization       0.0000000

 Broyden mixing:
  rms(total) = 0.18676E-01    rms(broyden)= 0.18674E-01
  rms(prec ) = 0.20220E-01
  weight for this iteration     100.00

 eigenvalues of (default mixing * dielectric matrix)
  average eigenvalue GAMMA=   1.0988
  2.4331  1.0274  0.6075  0.3271

 Free energy of the ion-electron system (eV)
  ---------------------------------------------------
  alpha Z        PSCENC =      2383.77402658
  Ewald energy   TEWEN  =    -62821.39865055
  -Hartree energ DENC   =    -42740.08708788
  -exchange      EXHF   =         0.00000000
  -V(xc)+E(xc)   XCENC  =      3286.42902794
  PAW double counting   =    112005.61877992  -115694.60309608
  entropy T*S    EENTRO =         0.00000000
  eigenvalues    EBANDS =    -10764.62670466
  atomic energy  EATOM  =    114020.06510763
  Solvation  Ediel_sol  =         0.00000000
  ---------------------------------------------------
  free energy    TOTEN  =      -324.82859710 eV

  energy without entropy =     -324.82859710  energy(sigma->0) =     -324.82859710


--------------------------------------------------------------------------------------------------------




--------------------------------------- Iteration      1(  10)  ---------------------------------------


    POTLOK:  cpu time    0.1552: real time    0.1562
    SETDIJ:  cpu time    0.0132: real time    0.0132
     EDDAV:  cpu time  133.8660: real time  134.8042
 BZINTS: Fermi energy:  5.145372;688.000000 electrons
         Band energy:***********;  BLOECHL correction:  0.000000
       DOS:  cpu time    0.0068: real time    0.0068
    CHARGE:  cpu time    1.4054: real time    1.4140
    MIXING:  cpu time    0.0019: real time    0.0231
    --------------------------------------------
      LOOP:  cpu time  135.4485: real time  136.4175

 eigenvalue-minimisations  : 20224
 total energy-change (2. order) :-0.1093515E-02  (-0.2715303E-03)
 number of electron     688.0000140 magnetization       0.0000000
 augmentation part      282.3024153 magnetization       0.0000000

 Broyden mixing:
  rms(total) = 0.12042E-01    rms(broyden)= 0.12041E-01
  rms(prec ) = 0.12834E-01
  weight for this iteration     100.00

 eigenvalues of (default mixing * dielectric matrix)
  average eigenvalue GAMMA=   1.1471
  2.4041  1.7592  0.6174  0.6174  0.3375

 Free energy of the ion-electron system (eV)
  ---------------------------------------------------
  alpha Z        PSCENC =      2383.77402658
  Ewald energy   TEWEN  =    -62821.39865055
  -Hartree energ DENC   =    -42740.25511227
  -exchange      EXHF   =         0.00000000
  -V(xc)+E(xc)   XCENC  =      3286.44208470
  PAW double counting   =    112005.00294093  -115693.94188184
  entropy T*S    EENTRO =         0.00000000
  eigenvalues    EBANDS =    -10764.51820579
  atomic energy  EATOM  =    114020.06510763
  Solvation  Ediel_sol  =         0.00000000
  ---------------------------------------------------
  free energy    TOTEN  =      -324.82969061 eV

  energy without entropy =     -324.82969061  energy(sigma->0) =     -324.82969061


--------------------------------------------------------------------------------------------------------




--------------------------------------- Iteration      1(  11)  ---------------------------------------


    POTLOK:  cpu time    0.1530: real time    0.1539
    SETDIJ:  cpu time    0.0133: real time    0.0133
     EDDAV:  cpu time  152.3284: real time  153.3669
 BZINTS: Fermi energy:  5.145721;688.000000 electrons
         Band energy:***********;  BLOECHL correction:  0.000000
       DOS:  cpu time    0.0067: real time    0.0068
    CHARGE:  cpu time    1.4077: real time    1.4162
    MIXING:  cpu time    0.0015: real time    0.0015
    --------------------------------------------
      LOOP:  cpu time  153.9106: real time  154.9587

 eigenvalue-minimisations  : 21760
 total energy-change (2. order) :-0.8955870E-03  (-0.2768092E-03)
 number of electron     688.0000140 magnetization       0.0000000
 augmentation part      282.3030988 magnetization       0.0000000

 Broyden mixing:
  rms(total) = 0.80508E-02    rms(broyden)= 0.80490E-02
  rms(prec ) = 0.88212E-02
  weight for this iteration     100.00

 eigenvalues of (default mixing * dielectric matrix)
  average eigenvalue GAMMA=   1.4214
  3.6203  2.5369  0.8124  0.3445  0.6166  0.5981

 Free energy of the ion-electron system (eV)
  ---------------------------------------------------
  alpha Z        PSCENC =      2383.77402658
  Ewald energy   TEWEN  =    -62821.39865055
  -Hartree energ DENC   =    -42740.42670954
  -exchange      EXHF   =         0.00000000
  -V(xc)+E(xc)   XCENC  =      3286.45076459
  PAW double counting   =    112005.30642605  -115694.24387369
  entropy T*S    EENTRO =         0.00000000
  eigenvalues    EBANDS =    -10764.35767727
  atomic energy  EATOM  =    114020.06510763
  Solvation  Ediel_sol  =         0.00000000
  ---------------------------------------------------
  free energy    TOTEN  =      -324.83058620 eV

  energy without entropy =     -324.83058620  energy(sigma->0) =     -324.83058620


--------------------------------------------------------------------------------------------------------




--------------------------------------- Iteration      1(  12)  ---------------------------------------


    POTLOK:  cpu time    0.1528: real time    0.1538
    SETDIJ:  cpu time    0.0134: real time    0.0134
     EDDAV:  cpu time  133.9968: real time  134.9360
 BZINTS: Fermi energy:  5.145618;688.000000 electrons
         Band energy:***********;  BLOECHL correction:  0.000000
       DOS:  cpu time    0.0068: real time    0.0069
    CHARGE:  cpu time    1.5826: real time    1.5915
    MIXING:  cpu time    0.0018: real time    0.0018
    --------------------------------------------
      LOOP:  cpu time  135.7542: real time  136.7034

 eigenvalue-minimisations  : 20480
 total energy-change (2. order) :-0.5282674E-03  (-0.4575672E-03)
 number of electron     688.0000140 magnetization      -0.0000000
 augmentation part      282.3022890 magnetization      -0.0000000

 Broyden mixing:
  rms(total) = 0.24461E-02    rms(broyden)= 0.24372E-02
  rms(prec ) = 0.25431E-02
  weight for this iteration     100.00

 eigenvalues of (default mixing * dielectric matrix)
  average eigenvalue GAMMA=   1.5018
  4.6201  2.5270  1.0330  0.3455  0.7330  0.6269  0.6269

 Free energy of the ion-electron system (eV)
  ---------------------------------------------------
  alpha Z        PSCENC =      2383.77402658
  Ewald energy   TEWEN  =    -62821.39865055
  -Hartree energ DENC   =    -42740.41861543
  -exchange      EXHF   =         0.00000000
  -V(xc)+E(xc)   XCENC  =      3286.44577524
  PAW double counting   =    112005.41459820  -115694.33117973
  entropy T*S    EENTRO =         0.00000000
  eigenvalues    EBANDS =    -10764.38217640
  atomic energy  EATOM  =    114020.06510763
  Solvation  Ediel_sol  =         0.00000000
  ---------------------------------------------------
  free energy    TOTEN  =      -324.83111446 eV

  energy without entropy =     -324.83111446  energy(sigma->0) =     -324.83111446


--------------------------------------------------------------------------------------------------------




--------------------------------------- Iteration      1(  13)  ---------------------------------------


    POTLOK:  cpu time    0.1626: real time    0.1670
    SETDIJ:  cpu time    0.0153: real time    0.0153
     EDDAV:  cpu time  170.2431: real time  171.3994
 BZINTS: Fermi energy:  5.145633;688.000000 electrons
         Band energy:***********;  BLOECHL correction:  0.000000
       DOS:  cpu time    0.0068: real time    0.0068
    CHARGE:  cpu time    1.4094: real time    1.4178
    MIXING:  cpu time    0.0021: real time    0.0021
    --------------------------------------------
      LOOP:  cpu time  171.8393: real time  173.0084

 eigenvalue-minimisations  : 24064
 total energy-change (2. order) :-0.4986271E-04  (-0.3662681E-04)
 number of electron     688.0000140 magnetization       0.0000000
 augmentation part      282.3029917 magnetization       0.0000000

 Broyden mixing:
  rms(total) = 0.14587E-02    rms(broyden)= 0.14564E-02
  rms(prec ) = 0.15188E-02
  weight for this iteration     100.00

 eigenvalues of (default mixing * dielectric matrix)
  average eigenvalue GAMMA=   1.4541
  4.7421  2.5288  1.2043  0.3456  0.7747  0.7747  0.5977  0.6645

 Free energy of the ion-electron system (eV)
  ---------------------------------------------------
  alpha Z        PSCENC =      2383.77402658
  Ewald energy   TEWEN  =    -62821.39865055
  -Hartree energ DENC   =    -42740.39902208
  -exchange      EXHF   =         0.00000000
  -V(xc)+E(xc)   XCENC  =      3286.44606749
  PAW double counting   =    112004.84833491  -115693.75708931
  entropy T*S    EENTRO =         0.00000000
  eigenvalues    EBANDS =    -10764.40993900
  atomic energy  EATOM  =    114020.06510763
  Solvation  Ediel_sol  =         0.00000000
  ---------------------------------------------------
  free energy    TOTEN  =      -324.83116433 eV

  energy without entropy =     -324.83116433  energy(sigma->0) =     -324.83116433


--------------------------------------------------------------------------------------------------------




--------------------------------------- Iteration      1(  14)  ---------------------------------------


    POTLOK:  cpu time    0.1522: real time    0.1534
    SETDIJ:  cpu time    0.0135: real time    0.0135
     EDDAV:  cpu time  150.1140: real time  151.1442
 BZINTS: Fermi energy:  5.145645;688.000000 electrons
         Band energy:***********;  BLOECHL correction:  0.000000
       DOS:  cpu time    0.0068: real time    0.0068
    CHARGE:  cpu time    1.4059: real time    1.4144
    MIXING:  cpu time    0.0020: real time    0.0020
    --------------------------------------------
      LOOP:  cpu time  151.6943: real time  152.7344

 eigenvalue-minimisations  : 21504
 total energy-change (2. order) :-0.9652867E-05  (-0.3449163E-05)
 number of electron     688.0000140 magnetization       0.0000000
 augmentation part      282.3022438 magnetization       0.0000000

 Broyden mixing:
  rms(total) = 0.98005E-03    rms(broyden)= 0.97967E-03
  rms(prec ) = 0.10245E-02
  weight for this iteration     100.00

 eigenvalues of (default mixing * dielectric matrix)
  average eigenvalue GAMMA=   1.5290
  4.9799  2.5613  2.3257  0.9533  0.3456  0.6824  0.6824  0.6374  0.5927

 Free energy of the ion-electron system (eV)
  ---------------------------------------------------
  alpha Z        PSCENC =      2383.77402658
  Ewald energy   TEWEN  =    -62821.39865055
  -Hartree energ DENC   =    -42740.43783395
  -exchange      EXHF   =         0.00000000
  -V(xc)+E(xc)   XCENC  =      3286.44690472
  PAW double counting   =    112004.69164025  -115693.61174006
  entropy T*S    EENTRO =         0.00000000
  eigenvalues    EBANDS =    -10764.36062861
  atomic energy  EATOM  =    114020.06510763
  Solvation  Ediel_sol  =         0.00000000
  ---------------------------------------------------
  free energy    TOTEN  =      -324.83117398 eV

  energy without entropy =     -324.83117398  energy(sigma->0) =     -324.83117398


--------------------------------------------------------------------------------------------------------




--------------------------------------- Iteration      1(  15)  ---------------------------------------


    POTLOK:  cpu time    0.1533: real time    0.1542
    SETDIJ:  cpu time    0.0133: real time    0.0133
     EDDAV:  cpu time  144.5279: real time  145.5269
 BZINTS: Fermi energy:  5.145620;688.000000 electrons
         Band energy:***********;  BLOECHL correction:  0.000000
       DOS:  cpu time    0.0068: real time    0.0068
    CHARGE:  cpu time    1.4064: real time    1.4145
    MIXING:  cpu time    0.0018: real time    0.0018
    --------------------------------------------
      LOOP:  cpu time  146.1095: real time  147.1176

 eigenvalue-minimisations  : 21248
 total energy-change (2. order) :-0.5893729E-05  (-0.3633801E-05)
 number of electron     688.0000140 magnetization       0.0000000
 augmentation part      282.3026968 magnetization       0.0000000

 Broyden mixing:
  rms(total) = 0.54920E-03    rms(broyden)= 0.54889E-03
  rms(prec ) = 0.60142E-03
  weight for this iteration     100.00

 eigenvalues of (default mixing * dielectric matrix)
  average eigenvalue GAMMA=   1.5467
  5.2561  2.7058  2.5115  1.0415  1.0415  0.3456  0.6631  0.6631  0.6194  0.6194

 Free energy of the ion-electron system (eV)
  ---------------------------------------------------
  alpha Z        PSCENC =      2383.77402658
  Ewald energy   TEWEN  =    -62821.39865055
  -Hartree energ DENC   =    -42740.39823223
  -exchange      EXHF   =         0.00000000
  -V(xc)+E(xc)   XCENC  =      3286.44593131
  PAW double counting   =    112004.51679038  -115693.43404513
  entropy T*S    EENTRO =         0.00000000
  eigenvalues    EBANDS =    -10764.40210788
  atomic energy  EATOM  =    114020.06510763
  Solvation  Ediel_sol  =         0.00000000
  ---------------------------------------------------
  free energy    TOTEN  =      -324.83117987 eV

  energy without entropy =     -324.83117987  energy(sigma->0) =     -324.83117987


--------------------------------------------------------------------------------------------------------




--------------------------------------- Iteration      1(  16)  ---------------------------------------


    POTLOK:  cpu time    0.1520: real time    0.1530
    SETDIJ:  cpu time    0.0134: real time    0.0135
     EDDAV:  cpu time  139.7322: real time  140.6948
 BZINTS: Fermi energy:  5.145635;688.000000 electrons
         Band energy:***********;  BLOECHL correction:  0.000000
       DOS:  cpu time    0.0068: real time    0.0068
    CHARGE:  cpu time    1.4079: real time    1.4162
    MIXING:  cpu time    0.0020: real time    0.0164
    --------------------------------------------
      LOOP:  cpu time  141.3145: real time  142.3006

 eigenvalue-minimisations  : 20480
 total energy-change (2. order) :-0.1319990E-05  (-0.9613362E-06)
 number of electron     688.0000140 magnetization       0.0000000
 augmentation part      282.3027287 magnetization       0.0000000

 Broyden mixing:
  rms(total) = 0.35406E-03    rms(broyden)= 0.35391E-03
  rms(prec ) = 0.37988E-03
  weight for this iteration     100.00

 eigenvalues of (default mixing * dielectric matrix)
  average eigenvalue GAMMA=   1.5317
  5.2787  3.0113  2.5268  1.0566  1.0566  0.9996  0.3456  0.6527  0.6527  0.6344
  0.6344

 Free energy of the ion-electron system (eV)
  ---------------------------------------------------
  alpha Z        PSCENC =      2383.77402658
  Ewald energy   TEWEN  =    -62821.39865055
  -Hartree energ DENC   =    -42740.40465134
  -exchange      EXHF   =         0.00000000
  -V(xc)+E(xc)   XCENC  =      3286.44623995
  PAW double counting   =    112004.57457769  -115693.49396308
  entropy T*S    EENTRO =         0.00000000
  eigenvalues    EBANDS =    -10764.39386807
  atomic energy  EATOM  =    114020.06510763
  Solvation  Ediel_sol  =         0.00000000
  ---------------------------------------------------
  free energy    TOTEN  =      -324.83118119 eV

  energy without entropy =     -324.83118119  energy(sigma->0) =     -324.83118119


--------------------------------------------------------------------------------------------------------




--------------------------------------- Iteration      1(  17)  ---------------------------------------


    POTLOK:  cpu time    0.1481: real time    0.1527
    SETDIJ:  cpu time    0.0134: real time    0.0134
     EDDAV:  cpu time  183.9904: real time  185.2156
 BZINTS: Fermi energy:  5.145627;688.000000 electrons
         Band energy:***********;  BLOECHL correction:  0.000000
       DOS:  cpu time    0.0068: real time    0.0068
    CHARGE:  cpu time    1.4000: real time    1.4084
    MIXING:  cpu time    0.0020: real time    0.0020
    --------------------------------------------
      LOOP:  cpu time  185.5607: real time  186.7990

 eigenvalue-minimisations  : 24832
 total energy-change (2. order) :-0.7533527E-06  (-0.3240955E-06)
 number of electron     688.0000140 magnetization       0.0000000
 augmentation part      282.3024480 magnetization       0.0000000

 Broyden mixing:
  rms(total) = 0.23768E-03    rms(broyden)= 0.23764E-03
  rms(prec ) = 0.26341E-03
  weight for this iteration     100.00

 eigenvalues of (default mixing * dielectric matrix)
  average eigenvalue GAMMA=   1.6175
  5.3241  3.7906  2.5388  2.1490  1.0275  1.0275  0.3456  0.6796  0.6796  0.6201
  0.6201  0.6076

 Free energy of the ion-electron system (eV)
  ---------------------------------------------------
  alpha Z        PSCENC =      2383.77402658
  Ewald energy   TEWEN  =    -62821.39865055
  -Hartree energ DENC   =    -42740.40634787
  -exchange      EXHF   =         0.00000000
  -V(xc)+E(xc)   XCENC  =      3286.44626490
  PAW double counting   =    112004.73465862  -115693.65500839
  entropy T*S    EENTRO =         0.00000000
  eigenvalues    EBANDS =    -10764.39123287
  atomic energy  EATOM  =    114020.06510763
  Solvation  Ediel_sol  =         0.00000000
  ---------------------------------------------------
  free energy    TOTEN  =      -324.83118195 eV

  energy without entropy =     -324.83118195  energy(sigma->0) =     -324.83118195


--------------------------------------------------------------------------------------------------------




--------------------------------------- Iteration      1(  18)  ---------------------------------------


    POTLOK:  cpu time    0.1490: real time    0.1532
    SETDIJ:  cpu time    0.0133: real time    0.0133
     EDDAV:  cpu time  136.1855: real time  137.1268
 BZINTS: Fermi energy:  5.145626;688.000000 electrons
         Band energy:***********;  BLOECHL correction:  0.000000
       DOS:  cpu time    0.0068: real time    0.0068
    CHARGE:  cpu time    1.7176: real time    1.7272
    MIXING:  cpu time    0.0026: real time    0.0027
    --------------------------------------------
      LOOP:  cpu time  138.0749: real time  139.0300

 eigenvalue-minimisations  : 20224
 total energy-change (2. order) :-0.2338493E-06  (-0.1415504E-06)
 number of electron     688.0000140 magnetization       0.0000000
 augmentation part      282.3026998 magnetization       0.0000000

 Broyden mixing:
  rms(total) = 0.82913E-04    rms(broyden)= 0.82848E-04
  rms(prec ) = 0.89222E-04
  weight for this iteration     100.00

 eigenvalues of (default mixing * dielectric matrix)
  average eigenvalue GAMMA=   1.5914
  5.3933  4.1094  2.5363  2.2347  1.0582  1.0582  0.3456  0.7303  0.7303  0.6295
  0.6295  0.6162  0.6162

 Free energy of the ion-electron system (eV)
  ---------------------------------------------------
  alpha Z        PSCENC =      2383.77402658
  Ewald energy   TEWEN  =    -62821.39865055
  -Hartree energ DENC   =    -42740.39305020
  -exchange      EXHF   =         0.00000000
  -V(xc)+E(xc)   XCENC  =      3286.44610146
  PAW double counting   =    112004.79536931  -115693.71490081
  entropy T*S    EENTRO =         0.00000000
  eigenvalues    EBANDS =    -10764.40518560
  atomic energy  EATOM  =    114020.06510763
  Solvation  Ediel_sol  =         0.00000000
  ---------------------------------------------------
  free energy    TOTEN  =      -324.83118218 eV

  energy without entropy =     -324.83118218  energy(sigma->0) =     -324.83118218


--------------------------------------------------------------------------------------------------------




--------------------------------------- Iteration      1(  19)  ---------------------------------------


    POTLOK:  cpu time    0.1666: real time    0.1677
    SETDIJ:  cpu time    0.0168: real time    0.0169
     EDDAV:  cpu time  217.1574: real time  218.5757
 BZINTS: Fermi energy:  5.145630;688.000000 electrons
         Band energy:***********;  BLOECHL correction:  0.000000
       DOS:  cpu time    0.0069: real time    0.0069
    CHARGE:  cpu time    1.4039: real time    1.4120
    MIXING:  cpu time    0.0023: real time    0.0023
    --------------------------------------------
      LOOP:  cpu time  218.7539: real time  220.1816

 eigenvalue-minimisations  : 27904
 total energy-change (2. order) :-0.3307650E-07  (-0.1851669E-07)
 number of electron     688.0000140 magnetization       0.0000000
 augmentation part      282.3026435 magnetization       0.0000000

 Broyden mixing:
[...]
   -.374E+02 0.632E+02 -.311E+01   0.381E+02 -.636E+02 0.315E+01   -.695E+00 0.431E+00 -.433E-01   0.329E-05 0.718E-05 0.777E-05
   -.374E+02 0.632E+02 -.311E+01   0.381E+02 -.636E+02 0.315E+01   -.695E+00 0.431E+00 -.433E-01   0.328E-05 0.718E-05 0.778E-05
   -.374E+02 0.632E+02 -.311E+01   0.381E+02 -.636E+02 0.315E+01   -.695E+00 0.431E+00 -.433E-01   0.329E-05 0.715E-05 0.777E-05
   -.374E+02 0.632E+02 -.311E+01   0.381E+02 -.636E+02 0.315E+01   -.695E+00 0.431E+00 -.433E-01   0.328E-05 0.715E-05 0.778E-05
   0.374E+02 0.632E+02 0.311E+01   -.381E+02 -.636E+02 -.315E+01   0.695E+00 0.431E+00 0.433E-01   -.328E-05 0.717E-05 -.777E-05
   0.374E+02 0.632E+02 0.311E+01   -.381E+02 -.636E+02 -.315E+01   0.695E+00 0.431E+00 0.433E-01   -.328E-05 0.717E-05 -.777E-05
   0.374E+02 0.632E+02 0.311E+01   -.381E+02 -.636E+02 -.315E+01   0.695E+00 0.431E+00 0.433E-01   -.328E-05 0.717E-05 -.777E-05
   0.374E+02 0.632E+02 0.311E+01   -.381E+02 -.636E+02 -.315E+01   0.695E+00 0.431E+00 0.433E-01   -.328E-05 0.717E-05 -.777E-05
   0.204E-07 -.178E+01 0.247E-06   -.355E-13 0.231E+01 -.604E-13   -.240E-23 -.531E+00 -.414E-24   -.163E-09 -.163E-04 -.554E-09
   0.204E-07 -.178E+01 0.247E-06   -.284E-13 0.231E+01 -.142E-13   -.184E-23 -.531E+00 0.414E-24   0.146E-09 -.163E-04 0.533E-09
   0.204E-07 -.178E+01 0.247E-06   -.284E-13 0.231E+01 0.142E-13   -.343E-23 -.531E+00 -.414E-24   -.163E-09 -.163E-04 -.554E-09
   0.204E-07 -.178E+01 0.247E-06   -.711E-14 0.231E+01 0.355E-13   -.523E-24 -.531E+00 -.124E-23   0.146E-09 -.163E-04 0.533E-09
   0.234E-08 0.860E+02 0.216E-06   0.284E-13 -.871E+02 -.657E-13   -.233E-24 0.112E+01 0.414E-24   0.100E-07 0.271E-04 -.875E-09
   0.234E-08 0.860E+02 0.216E-06   0.497E-13 -.871E+02 -.799E-13   0.362E-24 0.112E+01 -.496E-23   -.998E-08 0.271E-04 0.877E-09
   0.234E-08 0.860E+02 0.216E-06   0.355E-13 -.871E+02 -.426E-13   -.258E-24 0.112E+01 0.827E-24   0.100E-07 0.271E-04 -.875E-09
   0.234E-08 0.860E+02 0.216E-06   0.568E-13 -.871E+02 -.284E-13   -.233E-24 0.112E+01 -.372E-23   -.998E-08 0.271E-04 0.877E-09
   0.675E+01 -.570E+02 0.102E+02   -.675E+01 0.548E+02 -.104E+02   -.569E-02 0.219E+01 0.211E+00   -.244E-04 -.178E-04 -.576E-05
   0.675E+01 -.570E+02 0.102E+02   -.675E+01 0.548E+02 -.104E+02   -.569E-02 0.219E+01 0.211E+00   -.244E-04 -.178E-04 -.576E-05
   0.675E+01 -.570E+02 0.102E+02   -.675E+01 0.548E+02 -.104E+02   -.569E-02 0.219E+01 0.211E+00   -.244E-04 -.179E-04 -.576E-05
   0.675E+01 -.570E+02 0.102E+02   -.675E+01 0.548E+02 -.104E+02   -.569E-02 0.219E+01 0.211E+00   -.244E-04 -.179E-04 -.576E-05
   -.675E+01 -.570E+02 -.102E+02   0.675E+01 0.548E+02 0.104E+02   0.569E-02 0.219E+01 -.211E+00   0.244E-04 -.178E-04 0.576E-05
   -.675E+01 -.570E+02 -.102E+02   0.675E+01 0.548E+02 0.104E+02   0.569E-02 0.219E+01 -.211E+00   0.244E-04 -.178E-04 0.576E-05
   -.675E+01 -.570E+02 -.102E+02   0.675E+01 0.548E+02 0.104E+02   0.569E-02 0.219E+01 -.211E+00   0.244E-04 -.179E-04 0.576E-05
   -.675E+01 -.570E+02 -.102E+02   0.675E+01 0.548E+02 0.104E+02   0.569E-02 0.219E+01 -.211E+00   0.244E-04 -.179E-04 0.576E-05
   0.675E+01 -.570E+02 0.102E+02   -.675E+01 0.548E+02 -.104E+02   -.569E-02 0.219E+01 0.211E+00   -.244E-04 -.178E-04 -.576E-05
   0.675E+01 -.570E+02 0.102E+02   -.675E+01 0.548E+02 -.104E+02   -.569E-02 0.219E+01 0.211E+00   -.244E-04 -.178E-04 -.576E-05
   0.675E+01 -.570E+02 0.102E+02   -.675E+01 0.548E+02 -.104E+02   -.569E-02 0.219E+01 0.211E+00   -.244E-04 -.179E-04 -.576E-05
   0.675E+01 -.570E+02 0.102E+02   -.675E+01 0.548E+02 -.104E+02   -.569E-02 0.219E+01 0.211E+00   -.244E-04 -.179E-04 -.576E-05
   -.675E+01 -.570E+02 -.102E+02   0.675E+01 0.548E+02 0.104E+02   0.569E-02 0.219E+01 -.211E+00   0.244E-04 -.178E-04 0.576E-05
   -.675E+01 -.570E+02 -.102E+02   0.675E+01 0.548E+02 0.104E+02   0.569E-02 0.219E+01 -.211E+00   0.244E-04 -.178E-04 0.576E-05
   -.675E+01 -.570E+02 -.102E+02   0.675E+01 0.548E+02 0.104E+02   0.569E-02 0.219E+01 -.211E+00   0.244E-04 -.179E-04 0.576E-05
   -.675E+01 -.570E+02 -.102E+02   0.675E+01 0.548E+02 0.104E+02   0.569E-02 0.219E+01 -.211E+00   0.244E-04 -.179E-04 0.576E-05
   -.179E+02 -.541E+02 0.145E+02   0.176E+02 0.513E+02 -.147E+02   0.261E+00 0.280E+01 0.254E+00   0.221E-04 -.876E-05 0.434E-04
   -.179E+02 -.541E+02 0.145E+02   0.176E+02 0.513E+02 -.147E+02   0.261E+00 0.280E+01 0.254E+00   0.221E-04 -.876E-05 0.434E-04
   -.179E+02 -.541E+02 0.145E+02   0.176E+02 0.513E+02 -.147E+02   0.261E+00 0.280E+01 0.254E+00   0.221E-04 -.880E-05 0.434E-04
   -.179E+02 -.541E+02 0.145E+02   0.176E+02 0.513E+02 -.147E+02   0.261E+00 0.280E+01 0.254E+00   0.221E-04 -.880E-05 0.434E-04
   0.179E+02 -.541E+02 -.145E+02   -.176E+02 0.513E+02 0.147E+02   -.261E+00 0.280E+01 -.254E+00   -.221E-04 -.876E-05 -.434E-04
   0.179E+02 -.541E+02 -.145E+02   -.176E+02 0.513E+02 0.147E+02   -.261E+00 0.280E+01 -.254E+00   -.221E-04 -.876E-05 -.434E-04
   0.179E+02 -.541E+02 -.145E+02   -.176E+02 0.513E+02 0.147E+02   -.261E+00 0.280E+01 -.254E+00   -.221E-04 -.880E-05 -.434E-04
   0.179E+02 -.541E+02 -.145E+02   -.176E+02 0.513E+02 0.147E+02   -.261E+00 0.280E+01 -.254E+00   -.221E-04 -.880E-05 -.434E-04
   -.179E+02 -.541E+02 0.145E+02   0.176E+02 0.513E+02 -.147E+02   0.261E+00 0.280E+01 0.254E+00   0.221E-04 -.876E-05 0.434E-04
   -.179E+02 -.541E+02 0.145E+02   0.176E+02 0.513E+02 -.147E+02   0.261E+00 0.280E+01 0.254E+00   0.221E-04 -.876E-05 0.434E-04
   -.179E+02 -.541E+02 0.145E+02   0.176E+02 0.513E+02 -.147E+02   0.261E+00 0.280E+01 0.254E+00   0.221E-04 -.880E-05 0.434E-04
   -.179E+02 -.541E+02 0.145E+02   0.176E+02 0.513E+02 -.147E+02   0.261E+00 0.280E+01 0.254E+00   0.221E-04 -.880E-05 0.434E-04
   0.179E+02 -.541E+02 -.145E+02   -.176E+02 0.513E+02 0.147E+02   -.261E+00 0.280E+01 -.254E+00   -.221E-04 -.876E-05 -.434E-04
   0.179E+02 -.541E+02 -.145E+02   -.176E+02 0.513E+02 0.147E+02   -.261E+00 0.280E+01 -.254E+00   -.221E-04 -.876E-05 -.434E-04
   0.179E+02 -.541E+02 -.145E+02   -.176E+02 0.513E+02 0.147E+02   -.261E+00 0.280E+01 -.254E+00   -.221E-04 -.880E-05 -.434E-04
   0.179E+02 -.541E+02 -.145E+02   -.176E+02 0.513E+02 0.147E+02   -.261E+00 0.280E+01 -.254E+00   -.221E-04 -.880E-05 -.434E-04
 -----------------------------------------------------------------------------------------------
   -.202E-04 -.913E+02 -.325E-03   -.156E-12 0.111E-11 0.473E-12   0.999E-15 0.914E+02 -.167E-15   0.194E-09 -.225E-03 0.222E-09
 
 
 POSITION                                       TOTAL-FORCE (eV/Angst)
 -----------------------------------------------------------------------------------
      1.44467      1.19705      1.42965         0.000029     -0.000220     -0.000276
      6.68263      1.19705      1.88791         0.000029     -0.000220     -0.000276
      1.44467      6.47144      1.42965         0.000029     -0.000220     -0.000276
      6.68263      6.47144      1.88791         0.000029     -0.000220     -0.000276
      4.02013      3.83424      1.62142        -0.000029     -0.000220      0.000276
      9.25809      3.83424      2.07968        -0.000029     -0.000220      0.000276
      4.02013      9.10864      1.62142        -0.000029     -0.000220      0.000276
      9.25809      9.10864      2.07968        -0.000029     -0.000220      0.000276
      2.10344      3.88564      9.18940         0.000000     -0.000930      0.000000
      7.34139      3.88564      9.64766         0.000000     -0.000930      0.000000
      2.10344      9.16003      9.18940         0.000000     -0.000930      0.000000
      7.34139      9.16003      9.64766         0.000000     -0.000930      0.000000
      4.72241      1.25322      9.41853         0.000000      0.000227      0.000000
      9.96037      1.25322      9.87679         0.000000      0.000227      0.000000
      4.72241      6.52761      9.41853         0.000000      0.000227      0.000000
      9.96037      6.52761      9.87679         0.000000      0.000227      0.000000
      1.85483      1.19705      6.57791        -0.000029     -0.000220      0.000276
      7.09279      1.19705      7.03617        -0.000029     -0.000220      0.000276
      1.85483      6.47144      6.57791        -0.000029     -0.000220      0.000276
      7.09279      6.47144      7.03617        -0.000029     -0.000220      0.000276
      4.51733      3.83424      6.84440         0.000029     -0.000220     -0.000276
      9.75529      3.83424      7.30266         0.000029     -0.000220     -0.000276
      4.51733      9.10864      6.84440         0.000029     -0.000220     -0.000276
      9.75529      9.10864      7.30266         0.000029     -0.000220     -0.000276
      4.26873      1.24844      4.23291         0.000000     -0.000930      0.000000
      9.50669      1.24844      4.69117         0.000000     -0.000930      0.000000
      4.26873      6.52284      4.23291         0.000000     -0.000930      0.000000
      9.50669      6.52284      4.69117         0.000000     -0.000930      0.000000
      1.64975      3.89042      4.00378         0.000000      0.000227      0.000000
      6.88771      3.89042      4.46204         0.000000      0.000227      0.000000
      1.64975      9.16481      4.00378         0.000000      0.000227      0.000000
      6.88771      9.16481      4.46204         0.000000      0.000227      0.000000
     10.87843      0.09454      6.09879         0.000243      0.000022     -0.000074
      5.64047      0.09454      5.64053         0.000243      0.000022     -0.000074
     10.87843      5.36894      6.09879         0.000243      0.000022     -0.000074
      5.64047      5.36894      5.64053         0.000243      0.000022     -0.000074
      2.89699      0.09454      2.82530        -0.000243      0.000022      0.000074
      8.13495      0.09454      3.28356        -0.000243      0.000022      0.000074
      2.89699      5.36894      2.82530        -0.000243      0.000022      0.000074
      8.13495      5.36894      3.28356        -0.000243      0.000022      0.000074
      2.56781      2.73174      0.22578         0.000243      0.000022     -0.000074
      7.80577      2.73174      0.68404         0.000243      0.000022     -0.000074
      2.56781      8.00613      0.22578         0.000243      0.000022     -0.000074
      7.80577      8.00613      0.68404         0.000243      0.000022     -0.000074
      0.73169      2.73174      7.78178        -0.000243      0.000022      0.000074
      5.96965      2.73174      8.24005        -0.000243      0.000022      0.000074
      0.73169      8.00613      7.78178        -0.000243      0.000022      0.000074
      5.96965      8.00613      8.24005        -0.000243      0.000022      0.000074
     10.44511      0.09478      0.93673        -0.000041      0.000550      0.000135
      5.20715      0.09478      0.47847        -0.000041      0.000550      0.000135
     10.44511      5.36918      0.93673        -0.000041      0.000550      0.000135
      5.20715      5.36918      0.47847        -0.000041      0.000550      0.000135
      3.33032      0.09478      7.98736         0.000041      0.000550     -0.000135
      8.56828      0.09478      8.44562         0.000041      0.000550     -0.000135
      3.33032      5.36918      7.98736         0.000041      0.000550     -0.000135
      8.56828      5.36918      8.44562         0.000041      0.000550     -0.000135
      3.04185      2.73198      5.43495        -0.000041      0.000550      0.000135
      8.27981      2.73198      5.89322        -0.000041      0.000550      0.000135
      3.04185      8.00638      5.43495        -0.000041      0.000550      0.000135
      8.27981      8.00638      5.89322        -0.000041      0.000550      0.000135
      0.25765      2.73198      2.57261         0.000041      0.000550     -0.000135
      5.49561      2.73198      3.03087         0.000041      0.000550     -0.000135
      0.25765      8.00638      2.57261         0.000041      0.000550     -0.000135
      5.49561      8.00638      3.03087         0.000041      0.000550     -0.000135
 -----------------------------------------------------------------------------------
    total drift:                               -0.000020      0.035280     -0.000325


--------------------------------------------------------------------------------------------------------



  FREE ENERGIE OF THE ION-ELECTRON SYSTEM (eV)
  ---------------------------------------------------
  free  energy   TOTEN  =      -324.83118224 eV

  energy  without entropy=     -324.83118224  energy(sigma->0) =     -324.83118224
 


--------------------------------------------------------------------------------------------------------


    POTLOK:  cpu time    0.1646: real time    0.1654


--------------------------------------------------------------------------------------------------------


 writing wavefunctions
     LOOP+:  cpu time 3131.3299: real time 3153.7772
    4ORBIT:  cpu time    0.0000: real time    0.0000
 


 total charge     
 
# of ion       s       p       d       tot
------------------------------------------
    1        1.318   2.398   0.000   3.716
    2        1.318   2.398   0.000   3.716
    3        1.318   2.398   0.000   3.716
    4        1.318   2.398   0.000   3.716
    5        1.318   2.398   0.000   3.716
    6        1.318   2.398   0.000   3.716
    7        1.318   2.398   0.000   3.716
    8        1.318   2.398   0.000   3.716
    9        1.320   2.390   0.000   3.710
   10        1.320   2.390   0.000   3.710
   11        1.320   2.390   0.000   3.710
   12        1.320   2.390   0.000   3.710
   13        1.314   2.408   0.000   3.721
   14        1.314   2.408   0.000   3.721
   15        1.314   2.408   0.000   3.721
   16        1.314   2.408   0.000   3.721
   17        1.318   2.398   0.000   3.716
   18        1.318   2.398   0.000   3.716
   19        1.318   2.398   0.000   3.716
   20        1.318   2.398   0.000   3.716
   21        1.318   2.398   0.000   3.716
   22        1.318   2.398   0.000   3.716
   23        1.318   2.398   0.000   3.716
   24        1.318   2.398   0.000   3.716
   25        1.320   2.390   0.000   3.710
   26        1.320   2.390   0.000   3.710
   27        1.320   2.390   0.000   3.710
   28        1.320   2.390   0.000   3.710
   29        1.314   2.408   0.000   3.721
   30        1.314   2.408   0.000   3.721
   31        1.314   2.408   0.000   3.721
   32        1.314   2.408   0.000   3.721
   33        0.256   6.198   8.918  15.371
   34        0.256   6.198   8.918  15.371
   35        0.256   6.198   8.918  15.371
   36        0.256   6.198   8.918  15.371
   37        0.256   6.198   8.918  15.371
   38        0.256   6.198   8.918  15.371
   39        0.256   6.198   8.918  15.371
   40        0.256   6.198   8.918  15.371
   41        0.256   6.198   8.918  15.371
   42        0.256   6.198   8.918  15.371
   43        0.256   6.198   8.918  15.371
   44        0.256   6.198   8.918  15.371
   45        0.256   6.198   8.918  15.371
   46        0.256   6.198   8.918  15.371
   47        0.256   6.198   8.918  15.371
   48        0.256   6.198   8.918  15.371
   49        0.343   6.341   5.831  12.515
   50        0.343   6.341   5.831  12.515
   51        0.343   6.341   5.831  12.515
   52        0.343   6.341   5.831  12.515
   53        0.343   6.341   5.831  12.515
   54        0.343   6.341   5.831  12.515
   55        0.343   6.341   5.831  12.515
   56        0.343   6.341   5.831  12.515
   57        0.343   6.341   5.831  12.515
   58        0.343   6.341   5.831  12.515
   59        0.343   6.341   5.831  12.515
   60        0.343   6.341   5.831  12.515
   61        0.343   6.341   5.831  12.515
   62        0.343   6.341   5.831  12.515
   63        0.343   6.341   5.831  12.515
   64        0.343   6.341   5.831  12.515
--------------------------------------------------
tot         51.731 277.380 235.980 565.091
 


 magnetization (x)
 
# of ion       s       p       d       tot
------------------------------------------
    1       -0.000  -0.044   0.000  -0.045
    2       -0.000  -0.044   0.000  -0.045
    3       -0.000  -0.044   0.000  -0.045
    4       -0.000  -0.044   0.000  -0.045
    5        0.000   0.044   0.000   0.045
    6        0.000   0.044   0.000   0.045
    7        0.000   0.044   0.000   0.045
    8        0.000   0.044   0.000   0.045
    9       -0.000   0.000   0.000   0.000
   10       -0.000  -0.000   0.000  -0.000
   11        0.000  -0.000   0.000  -0.000
   12        0.000  -0.000   0.000  -0.000
   13       -0.000   0.000   0.000   0.000
   14       -0.000   0.000   0.000   0.000
   15       -0.000   0.000   0.000   0.000
   16       -0.000   0.000   0.000   0.000
   17        0.000   0.044   0.000   0.045
   18        0.000   0.044   0.000   0.045
   19        0.000   0.044   0.000   0.045
   20        0.000   0.044   0.000   0.045
   21       -0.000  -0.044   0.000  -0.045
   22       -0.000  -0.044   0.000  -0.045
   23       -0.000  -0.044   0.000  -0.045
   24       -0.000  -0.044   0.000  -0.045
   25       -0.000  -0.000   0.000  -0.000
   26       -0.000  -0.000   0.000  -0.000
   27       -0.000  -0.000   0.000  -0.000
   28       -0.000  -0.000   0.000  -0.000
   29       -0.000   0.000   0.000   0.000
   30       -0.000   0.000   0.000   0.000
   31       -0.000   0.000   0.000   0.000
   32       -0.000   0.000   0.000   0.000
   33        0.001   0.002  -0.009  -0.007
   34        0.001   0.002  -0.009  -0.007
   35        0.001   0.002  -0.009  -0.007
   36        0.001   0.002  -0.009  -0.007
   37       -0.001  -0.002   0.009   0.007
   38       -0.001  -0.002   0.009   0.007
   39       -0.001  -0.002   0.009   0.007
   40       -0.001  -0.002   0.009   0.007
   41        0.001   0.002  -0.009  -0.007
   42        0.001   0.002  -0.009  -0.007
   43        0.001   0.002  -0.009  -0.007
   44        0.001   0.002  -0.009  -0.007
   45       -0.001  -0.002   0.009   0.007
   46       -0.001  -0.002   0.009   0.007
   47       -0.001  -0.002   0.009   0.007
   48       -0.001  -0.002   0.009   0.007
   49        0.021   0.053   3.653   3.728
   50        0.021   0.053   3.653   3.728
   51        0.021   0.053   3.653   3.728
   52        0.021   0.053   3.653   3.728
   53       -0.021  -0.053  -3.653  -3.728
   54       -0.021  -0.053  -3.653  -3.728
   55       -0.021  -0.053  -3.653  -3.728
   56       -0.021  -0.053  -3.653  -3.728
   57        0.021   0.053   3.653   3.728
   58        0.021   0.053   3.653   3.728
   59        0.021   0.053   3.653   3.728
   60        0.021   0.053   3.653   3.728
   61       -0.021  -0.053  -3.653  -3.728
   62       -0.021  -0.053  -3.653  -3.728
   63       -0.021  -0.053  -3.653  -3.728
   64       -0.021  -0.053  -3.653  -3.728
--------------------------------------------------
tot          0.000  -0.000   0.000   0.000
 
 BZINTS: Fermi energy:  5.145629;688.000000 electrons
         Band energy:***********;  BLOECHL correction:  0.000000

 total amount of memory used by VASP MPI-rank0   347075. kBytes
=======================================================================

   base      :      30000. kBytes
   nonl-proj :     215613. kBytes
   fftplans  :       4588. kBytes
   grid      :      69719. kBytes
   one-center:       1990. kBytes
   wavefun   :      25165. kBytes
 
  
  
 General timing and accounting informations for this job:
 ========================================================
  
                  Total CPU time used (sec):     3190.345
                            User time (sec):     3179.799
                          System time (sec):       10.547
                         Elapsed time (sec):     3214.544
  
                   Maximum memory used (kb):      730320.
                   Average memory used (kb):           0.
  
                          Minor page faults:       323258
                          Major page faults:         5869
                 Voluntary context switches:         7120
