       N       E                     dE             d eps       ncg     rms          rms(c)
DAV:   1     0.605530676861E+04    0.60553E+04   -0.51579E+05 12288   0.197E+03
DAV:   2    -0.756776645141E+02   -0.61310E+04   -0.60206E+04 13312   0.445E+02
DAV:   3    -0.324089799516E+03   -0.24841E+03   -0.24749E+03 17408   0.972E+01
DAV:   4    -0.327494896490E+03   -0.34051E+01   -0.34050E+01 14336   0.115E+01
DAV:   5    -0.327597800151E+03   -0.10290E+00   -0.10290E+00 16384   0.196E+00    0.253E-01
DAV:   6    -0.327602916038E+03   -0.51159E-02   -0.51343E-02 17664   0.435E-01    0.102E-01
DAV:   7    -0.327603158346E+03   -0.24231E-03   -0.28993E-03 16384   0.130E-01    0.881E-02
DAV:   8    -0.327603166109E+03   -0.77626E-05   -0.32585E-04 15360   0.500E-02    0.749E-02
DAV:   9    -0.327603166642E+03   -0.53339E-06   -0.19374E-05 15360   0.110E-02    0.666E-02
DAV:  10    -0.327603166471E+03    0.17138E-06   -0.15581E-06 20224   0.268E-03    0.561E-02
DAV:  11    -0.327603165702E+03    0.76838E-06   -0.22169E-06 14080   0.391E-03    0.207E-02
DAV:  12    -0.327603165376E+03    0.32657E-06   -0.15067E-06 18176   0.260E-03    0.388E-03
DAV:  13    -0.327603165394E+03   -0.18510E-07   -0.90143E-08 14336   0.502E-04    0.378E-03
DAV:  14    -0.327603165429E+03   -0.35303E-07   -0.12344E-07 12288   0.474E-04    0.192E-03
DAV:  15    -0.327603165434E+03   -0.44820E-08   -0.26641E-08 11520   0.219E-04
   1 F= -.32760317E+03 E0= -.32760317E+03  d E =0.000000E+00  mag=     0.0000
