 vasp.5.4.4.18Apr17-6-g9f103f2a35 (build Oct 30 2023 17:30:16) complex          
  
 executed on             LinuxIFC date 2024.06.26  14:03:12
 running on  256 total cores
 distrk:  each k-point on  256 cores,    1 groups
 distr:  one band on NCORES_PER_BAND=   1 cores,  256 groups


--------------------------------------------------------------------------------------------------------


 INCAR:
 POTCAR:    PAW_PBE S 06Sep2000                   
 POTCAR:     PAW_PBE Cu_pv 06Sep2000              
 POTCAR:     PAW_PBE Fe_pv 02Aug2007              

 ----------------------------------------------------------------------------- 
|                                                                             |
|           W    W    AA    RRRRR   N    N  II  N    N   GGGG   !!!           |
|           W    W   A  A   R    R  NN   N  II  NN   N  G    G  !!!           |
|           W    W  A    A  R    R  N N  N  II  N N  N  G       !!!           |
|           W WW W  AAAAAA  RRRRR   N  N N  II  N  N N  G  GGG   !            |
|           WW  WW  A    A  R   R   N   NN  II  N   NN  G    G                |
|           W    W  A    A  R    R  N    N  II  N    N   GGGG   !!!           |
|                                                                             |
|      For optimal performance we recommend to set                            |
|        NCORE= 4 - approx SQRT( number of cores)                             |
|      NCORE specifies how many cores store one orbital (NPAR=cpu/NCORE).     |
|      This setting can  greatly improve the performance of VASP for DFT.     |
|      The default,   NCORE=1            might be grossly inefficient         |
|      on modern multi-core architectures or massively parallel machines.     |
|      Do your own testing !!!!                                               |
|      Unfortunately you need to use the default for GW and RPA calculations. |
|      (for HF NCORE is supported but not extensively tested yet)             |
|                                                                             |
 ----------------------------------------------------------------------------- 

 POTCAR:    PAW_PBE S 06Sep2000                   
   SHA256 =  0fc7481fb0695f01bdc6462160264c5c84044ae9ec85a907d398b887a2bc3132 S/
   COPYR  = (c) Copyright 06Sep2000 Georg Kresse                                
   COPYR  = This file is part of the software VASP. Any use, copying, and all ot
   COPYR  = If you do not have a valid VASP license, you may not use, copy or di
   VRHFIN =S : s2p4                                                             
   LEXCH  = PE                                                                  
   EATOM  =   276.8230 eV,   20.3459 Ry                                         
                                                                                
   TITEL  = PAW_PBE S 06Sep2000                                                 
   LULTRA =        F    use ultrasoft PP ?                                      
   IUNSCR =        1    unscreen: 0-lin 1-nonlin 2-no                           
   RPACOR =    1.500    partial core radius                                     
   POMASS =   32.066; ZVAL   =    6.000    mass and valenz                      
   RCORE  =    1.900    outmost cutoff radius                                   
   RWIGS  =    2.200; RWIGS  =    1.164    wigner-seitz radius (au A)           
   ENMAX  =  258.689; ENMIN  =  194.016 eV                                      
   ICORE  =        2    local potential                                         
   LCOR   =        T    correct aug charges                                     
   LPAW   =        T    paw PP                                                  
   EAUG   =  335.092                                                            
   DEXC   =    0.000                                                            
   RMAX   =    1.942    core radius for proj-oper                               
   RAUG   =    1.300    factor for augmentation sphere                          
   RDEP   =    1.954    radius for radial grids                                 
   RDEPT  =    1.744    core radius for aug-charge                              
                                                                                
   Atomic configuration                                                         
    6 entries                                                                   
     n  l   j            E        occ.                                          
     1  0  0.50     -2405.8406   2.0000                                         
     2  0  0.50      -211.7007   2.0000                                         
     2  1  1.50      -156.4958   6.0000                                         
     3  0  0.50       -17.2562   2.0000                                         
     3  1  0.50        -7.0085   4.0000                                         
     3  2  1.50        -6.8029   0.0000                                         
   Description                                                                  
     l       E           TYP  RCUT    TYP  RCUT                                 
     0    -17.2561641     23  1.900                                             
     0    -15.8743224     23  1.900                                             
     1     -7.0085400     23  1.900                                             
     1     -2.7779785     23  1.900                                             
     2     -6.8029130     23  1.900                                             
  local pseudopotential read in
  partial core-charges read in
  partial kinetic energy density read in
  atomic valenz-charges read in
  non local Contribution for L=           0  read in
    real space projection operators read in
  non local Contribution for L=           0  read in
    real space projection operators read in
  non local Contribution for L=           1  read in
    real space projection operators read in
  non local Contribution for L=           1  read in
    real space projection operators read in
    PAW grid and wavefunctions read in
 
   number of l-projection  operators is LMAX  =           4
   number of lm-projection operators is LMMAX =           8
 
 POTCAR:     PAW_PBE Cu_pv 06Sep2000              
   SHA256 =  cb7b504e2ea725fe1f25c85a9ac77d4012ce94cd394135b722c4e25ec297f1cb Cu
   COPYR  = (c) Copyright 06Sep2000 Georg Kresse                                
   COPYR  = This file is part of the software VASP. Any use, copying, and all ot
   COPYR  = If you do not have a valid VASP license, you may not use, copy or di
   VRHFIN =Cu: d10 p1                                                           
   LEXCH  = PE                                                                  
   EATOM  =  4120.1201 eV,  302.8203 Ry                                         
                                                                                
   TITEL  = PAW_PBE Cu_pv 06Sep2000                                             
   LULTRA =        F    use ultrasoft PP ?                                      
   IUNSCR =        1    unscreen: 0-lin 1-nonlin 2-no                           
   RPACOR =    1.500    partial core radius                                     
   POMASS =   63.546; ZVAL   =   17.000    mass and valenz                      
   RCORE  =    2.000    outmost cutoff radius                                   
   RWIGS  =    2.000; RWIGS  =    1.058    wigner-seitz radius (au A)           
   ENMAX  =  368.648; ENMIN  =  276.486 eV                                      
   RCLOC  =    1.304    cutoff for local pot                                    
   LCOR   =        T    correct aug charges                                     
   LPAW   =        T    paw PP                                                  
   EAUG   =  758.233                                                            
   DEXC   =    0.000                                                            
   RMAX   =    2.046    core radius for proj-oper                               
   RAUG   =    1.300    factor for augmentation sphere                          
   RDEP   =    2.025    radius for radial grids                                 
   RDEPT  =    1.558    core radius for aug-charge                              
                                                                                
   Atomic configuration                                                         
    8 entries                                                                   
     n  l   j            E        occ.                                          
     1  0  0.50     -8850.2467   2.0000                                         
     2  0  0.50     -1062.3498   2.0000                                         
     2  1  1.50      -916.8226   6.0000                                         
     3  0  0.50      -114.6929   2.0000                                         
     3  1  1.50       -72.1325   6.0000                                         
     3  2  2.50        -5.0394  10.0000                                         
     4  0  0.50        -4.6097   1.0000                                         
     4  3  2.50        -1.3606   0.0000                                         
   Description                                                                  
     l       E           TYP  RCUT    TYP  RCUT                                 
     1    -72.1324777     23  1.700                                             
     1     -1.3605826     23  1.700                                             
     2     -5.0393776     23  2.000                                             
     2     -6.3999602     23  2.000                                             
     0     -4.6097062     23  1.800                                             
     0     14.1620818     23  1.800                                             
  local pseudopotential read in
  partial core-charges read in
  partial kinetic energy density read in
  atomic valenz-charges read in
  non local Contribution for L=           1  read in
    real space projection operators read in
  non local Contribution for L=           1  read in
    real space projection operators read in
  non local Contribution for L=           2  read in
    real space projection operators read in
  non local Contribution for L=           2  read in
    real space projection operators read in
  non local Contribution for L=           0  read in
    real space projection operators read in
  non local Contribution for L=           0  read in
    real space projection operators read in
    PAW grid and wavefunctions read in
 
   number of l-projection  operators is LMAX  =           6
   number of lm-projection operators is LMMAX =          18
 
 POTCAR:     PAW_PBE Fe_pv 02Aug2007              
   SHA256 =  5d22e414b1f82158bf2c7ecb8b97b28fd0923e48cadc1c3bf74d524558f5dd32 Fe
   COPYR  = (c) Copyright 02Aug2007 Georg Kresse                                
   COPYR  = This file is part of the software VASP. Any use, copying, and all ot
   COPYR  = If you do not have a valid VASP license, you may not use, copy or di
   VRHFIN =Fe:  3pd7s1                                                          
   LEXCH  = PE                                                                  
   EATOM  =  2457.4239 eV,  180.6156 Ry                                         
                                                                                
   TITEL  = PAW_PBE Fe_pv 02Aug2007                                             
   LULTRA =        F    use ultrasoft PP ?                                      
   IUNSCR =        1    unscreen: 0-lin 1-nonlin 2-no                           
   RPACOR =    1.750    partial core radius                                     
   POMASS =   55.847; ZVAL   =   14.000    mass and valenz                      
   RCORE  =    2.200    outmost cutoff radius                                   
   RWIGS  =    2.200; RWIGS  =    1.164    wigner-seitz radius (au A)           
   ENMAX  =  293.238; ENMIN  =  219.928 eV                                      
   ICORE  =        3    local potential                                         
   LCOR   =        T    correct aug charges                                     
   LPAW   =        T    paw PP                                                  
   EAUG   =  578.342                                                            
   DEXC   =    0.000                                                            
   RMAX   =    2.249    core radius for proj-oper                               
   RAUG   =    1.300    factor for augmentation sphere                          
   RDEP   =    2.296    radius for radial grids                                 
   RDEPT  =    1.766    core radius for aug-charge                              
                                                                                
   Atomic configuration                                                         
    8 entries                                                                   
     n  l   j            E        occ.                                          
     1  0  0.50     -6993.8440   2.0000                                         
     2  0  0.50      -814.6047   2.0000                                         
     2  1  1.50      -693.3689   6.0000                                         
     3  0  0.50       -89.4732   2.0000                                         
     3  1  1.50       -55.6373   6.0000                                         
     3  2  2.50        -3.8151   7.0000                                         
     4  0  0.50        -4.2551   1.0000                                         
     4  3  2.50        -1.3606   0.0000                                         
   Description                                                                  
     l       E           TYP  RCUT    TYP  RCUT                                 
     1    -55.6372668     23  2.000                                             
     1     -5.4423304     23  2.000                                             
     2     -3.8151096     23  2.200                                             
     2     -5.1756922     23  2.200                                             
     0     -4.2550951     23  2.200                                             
     0     27.2116520     23  2.200                                             
     3     -1.3605826     23  2.200                                             
  local pseudopotential read in
  partial core-charges read in
  partial kinetic energy density read in
  atomic valenz-charges read in
  non local Contribution for L=           1  read in
    real space projection operators read in
  non local Contribution for L=           1  read in
    real space projection operators read in
  non local Contribution for L=           2  read in
    real space projection operators read in
  non local Contribution for L=           2  read in
    real space projection operators read in
  non local Contribution for L=           0  read in
    real space projection operators read in
  non local Contribution for L=           0  read in
    real space projection operators read in
    PAW grid and wavefunctions read in
 
   number of l-projection  operators is LMAX  =           6
   number of lm-projection operators is LMMAX =          18
 

 ----------------------------------------------------------------------------- 
|                                                                             |
|  ADVICE TO THIS USER RUNNING 'VASP/VAMP'   (HEAR YOUR MASTER'S VOICE ...):  |
|                                                                             |
|      You have a (more or less) 'large supercell' and for larger cells       |
|      it might be more efficient to use real space projection opertators     |
|      So try LREAL= Auto  in the INCAR   file.                               |
|      Mind:          For very  accurate calculation you might also keep the  |
|      reciprocal projection scheme          (i.e. LREAL=.FALSE.)             |
|                                                                             |
 ----------------------------------------------------------------------------- 


 ----------------------------------------------------------------------------- 
|                                                                             |
|  ADVICE TO THIS USER RUNNING 'VASP/VAMP'   (HEAR YOUR MASTER'S VOICE ...):  |
|                                                                             |
|      You enforced a specific xc-type in the INCAR file,                     |
|      a different type was found on the POTCAR file                          |
|          I HOPE YOU KNOW, WHAT YOU ARE  DOING                               |
|                                                                             |
 ----------------------------------------------------------------------------- 

  PAW_PBE S 06Sep2000                   :
 energy of atom  1       EATOM= -276.8230
 kinetic energy error for atom=    0.0007 (will be added to EATOM!!)
   PAW_PBE Cu_pv 06Sep2000              :
 energy of atom  2       EATOM=-4120.1201
 kinetic energy error for atom=    0.0094 (will be added to EATOM!!)
   PAW_PBE Fe_pv 02Aug2007              :
 energy of atom  3       EATOM=-2457.4239
 kinetic energy error for atom=    0.0025 (will be added to EATOM!!)
 
 
 POSCAR: Fe16 Cu16 S32                           
  positions in direct lattice
  velocities in cartesian coordinates
 exchange correlation table for  LEXCH =       14
   RHO(1)=    0.500       N(1)  =     2000
   RHO(2)=  100.500       N(2)  =     4000
 


--------------------------------------------------------------------------------------------------------


 ion  position               nearest neighbor table
   1  0.126  0.125  0.123-  37 2.26  41 2.27  61 2.27  49 2.28
   2  0.626  0.125  0.123-  38 2.26  42 2.27  62 2.27  50 2.28
   3  0.126  0.625  0.123-  39 2.26  43 2.27  63 2.27  51 2.28
   4  0.626  0.625  0.123-  40 2.26  44 2.27  64 2.27  52 2.28
   5  0.374  0.375  0.123-  39 2.26  41 2.27  62 2.27  52 2.28
   6  0.874  0.375  0.123-  40 2.26  42 2.27  61 2.27  51 2.28
   7  0.374  0.875  0.123-  37 2.26  43 2.27  64 2.27  50 2.28
   8  0.874  0.875  0.123-  38 2.26  44 2.27  63 2.27  49 2.28
   9  0.125  0.374  0.873-  41 2.26  45 2.27  51 2.27  55 2.28
  10  0.625  0.374  0.873-  42 2.26  46 2.27  52 2.27  56 2.28
  11  0.125  0.874  0.873-  43 2.26  47 2.27  49 2.27  53 2.28
  12  0.625  0.874  0.873-  44 2.26  48 2.27  50 2.27  54 2.28
  13  0.375  0.126  0.873-  41 2.26  46 2.27  50 2.27  53 2.28
  14  0.875  0.126  0.873-  42 2.26  45 2.27  49 2.27  54 2.28
  15  0.375  0.626  0.873-  43 2.26  48 2.27  52 2.27  55 2.28
  16  0.875  0.626  0.873-  44 2.26  47 2.27  51 2.27  56 2.28
  17  0.124  0.125  0.623-  45 2.26  33 2.27  53 2.27  57 2.28
  18  0.624  0.125  0.623-  46 2.26  34 2.27  54 2.27  58 2.28
  19  0.124  0.625  0.623-  47 2.26  35 2.27  55 2.27  59 2.28
  20  0.624  0.625  0.623-  48 2.26  36 2.27  56 2.27  60 2.28
  21  0.376  0.375  0.623-  46 2.26  36 2.27  55 2.27  57 2.28
  22  0.876  0.375  0.623-  45 2.26  35 2.27  56 2.27  58 2.28
  23  0.376  0.875  0.623-  48 2.26  34 2.27  53 2.27  59 2.28
  24  0.876  0.875  0.623-  47 2.26  33 2.27  54 2.27  60 2.28
  25  0.375  0.124  0.373-  34 2.26  37 2.27  57 2.27  62 2.28
  26  0.875  0.124  0.373-  33 2.26  38 2.27  58 2.27  61 2.28
  27  0.375  0.624  0.373-  36 2.26  39 2.27  59 2.27  64 2.28
  28  0.875  0.624  0.373-  35 2.26  40 2.27  60 2.27  63 2.28
  29  0.125  0.376  0.373-  35 2.26  39 2.27  57 2.27  61 2.28
  30  0.625  0.376  0.373-  36 2.26  40 2.27  58 2.27  62 2.28
  31  0.125  0.876  0.373-  33 2.26  37 2.27  59 2.27  63 2.28
  32  0.625  0.876  0.373-  34 2.26  38 2.27  60 2.27  64 2.28
  33  0.000  0.000  0.502-  26 2.26  31 2.26  17 2.27  24 2.27
  34  0.500  0.000  0.502-  32 2.26  25 2.26  18 2.27  23 2.27
  35  0.000  0.500  0.502-  29 2.26  28 2.26  22 2.27  19 2.27
  36  0.500  0.500  0.502-  30 2.26  27 2.26  21 2.27  20 2.27
  37  0.250  0.000  0.252-   7 2.26   1 2.26  25 2.27  31 2.27
  38  0.750  0.000  0.252-   2 2.26   8 2.26  26 2.27  32 2.27
  39  0.250  0.500  0.252-   3 2.26   5 2.26  27 2.27  29 2.27
  40  0.750  0.500  0.252-   4 2.26   6 2.26  30 2.27  28 2.27
  41  0.250  0.250  0.002-   9 2.26  13 2.26   5 2.27   1 2.27
  42  0.750  0.250  0.002-  10 2.26  14 2.26   6 2.27   2 2.27
  43  0.250  0.750  0.002-  11 2.26  15 2.26   7 2.27   3 2.27
  44  0.750  0.750  0.002-  12 2.26  16 2.26   4 2.27   8 2.27
  45  0.000  0.250  0.752-  17 2.26  22 2.26   9 2.27  14 2.27
  46  0.500  0.250  0.752-  21 2.26  18 2.26  13 2.27  10 2.27
  47  0.000  0.750  0.752-  19 2.26  24 2.26  11 2.27  16 2.27
  48  0.500  0.750  0.752-  23 2.26  20 2.26  15 2.27  12 2.27
  49  0.000  0.000  0.002-  11 2.27  14 2.27   1 2.28   8 2.28
  50  0.500  0.000  0.002-  13 2.27  12 2.27   2 2.28   7 2.28
  51  0.000  0.500  0.002-  16 2.27   9 2.27   3 2.28   6 2.28
  52  0.500  0.500  0.002-  15 2.27  10 2.27   4 2.28   5 2.28
  53  0.250  0.000  0.752-  17 2.27  23 2.27  11 2.28  13 2.28
  54  0.750  0.000  0.752-  18 2.27  24 2.27  12 2.28  14 2.28
  55  0.250  0.500  0.752-  19 2.27  21 2.27  15 2.28   9 2.28
  56  0.750  0.500  0.752-  22 2.27  20 2.27  16 2.28  10 2.28
  57  0.250  0.250  0.502-  25 2.27  29 2.27  17 2.28  21 2.28
  58  0.750  0.250  0.502-  26 2.27  30 2.27  18 2.28  22 2.28
  59  0.250  0.750  0.502-  27 2.27  31 2.27  19 2.28  23 2.28
  60  0.750  0.750  0.502-  28 2.27  32 2.27  20 2.28  24 2.28
  61  0.000  0.250  0.252-   6 2.27   1 2.27  26 2.28  29 2.28
  62  0.500  0.250  0.252-   2 2.27   5 2.27  25 2.28  30 2.28
  63  0.000  0.750  0.252-   3 2.27   8 2.27  28 2.28  31 2.28
  64  0.500  0.750  0.252-   4 2.27   7 2.27  32 2.28  27 2.28
 
  LATTYP: Found a base centered orthorhombic cell.
 ALAT       =    14.6012275298
 B/A-ratio  =     1.0355083046
 C/A-ratio  =     0.7136947597
  
  Lattice vectors:
  
 A1 = (  10.5079320000,   0.1833050000,   0.0000000000)
 A2 = (  -0.1833050000, -10.5079320000,   0.0000000000)
 A3 = (   0.0000000000,   0.0000000000, -10.4208195727)


Analysis of symmetry for initial positions (statically):
=====================================================================
 Subroutine PRICEL returns following result:
 
  LATTYP: Found a face centered orthorhombic cell.
 ALAT       =     7.3006137649
 B/A-ratio  =     1.0355083046
 C/A-ratio  =     1.4273895193
  
  Lattice vectors:
  
 A1 = (  -2.6728092500,  -2.6728092500,   5.2104097864)
 A2 = (  -2.5811567500,   2.5811567500,   5.2104097864)
 A3 = (  -5.2539660000,  -0.0916525000,   0.0000000000)
 
   8 primitive cells build up your supercell.
 

 Routine SETGRP: Setting up the symmetry group for a 
 base centered orthorhombic supercell.


 Subroutine GETGRP returns: Found  4 space group operations
 (whereof  2 operations were pure point group operations)
 out of a pool of  8 trial point group operations.


The static configuration has the point symmetry C_2 .
 The point group associated with its full space group is C_2v.


Analysis of symmetry for dynamics (positions and initial velocities):
=====================================================================
 Subroutine PRICEL returns following result:
 
  LATTYP: Found a face centered orthorhombic cell.
 ALAT       =     7.3006137649
 B/A-ratio  =     1.0355083046
 C/A-ratio  =     1.4273895193
  
  Lattice vectors:
  
 A1 = (  -2.6728092500,  -2.6728092500,   5.2104097864)
 A2 = (  -2.5811567500,   2.5811567500,   5.2104097864)
 A3 = (  -5.2539660000,  -0.0916525000,   0.0000000000)
 
   8 primitive cells build up your supercell.
 

 Routine SETGRP: Setting up the symmetry group for a 
 base centered orthorhombic supercell.


 Subroutine GETGRP returns: Found  4 space group operations
 (whereof  2 operations were pure point group operations)
 out of a pool of  8 trial point group operations.


The dynamic configuration has the point symmetry C_2 .
 The point group associated with its full space group is C_2v.


Analysis of structural, dynamic, and magnetic symmetry:
=====================================================================
 Subroutine PRICEL returns following result:
 
  LATTYP: Found a face centered orthorhombic cell.
 ALAT       =     7.3006137649
 B/A-ratio  =     1.0355083046
 C/A-ratio  =     1.4273895193
  
  Lattice vectors:
  
 A1 = (  -2.6728092500,  -2.6728092500,   5.2104097864)
 A2 = (  -2.5811567500,   2.5811567500,   5.2104097864)
 A3 = (  -5.2539660000,  -0.0916525000,   0.0000000000)
 
   8 primitive cells build up your supercell.
 

 Routine SETGRP: Setting up the symmetry group for a 
 base centered orthorhombic supercell.


 Subroutine GETGRP returns: Found  4 space group operations
 (whereof  2 operations were pure point group operations)
 out of a pool of  8 trial point group operations.


The magnetic configuration has the point symmetry C_2 .
 The point group associated with its full space group is C_2v.


 Subroutine INISYM returns: Found  4 space group operations
 (whereof  2 operations are pure point group operations),
 and found     8 'primitive' translations

 
 
 KPOINTS: Automatic mesh                          

Automatic generation of k-mesh.
Space group operators:
 irot       det(A)        alpha          n_x          n_y          n_z        tau_x        tau_y        tau_z
    1     1.000000     0.000001     1.000000     0.000000     0.000000     0.000000     0.000000     0.000000
    2     1.000000   179.999999     0.000000     0.000000     1.000000     0.000000     0.000000     0.000000
    3    -1.000000   179.999999     0.707107     0.707107     0.000000    -0.750000    -0.000000     0.750000
    4    -1.000000   179.999999     0.707107    -0.707107     0.000000    -0.750000    -0.000000     0.750000
 
 Subroutine IBZKPT returns following result:
 ===========================================
 
 Found     21 irreducible k-points:
 
 Following reciprocal coordinates:
            Coordinates               Weight
  0.000000  0.000000  0.000000      1.000000
  0.250000 -0.000000  0.000000      4.000000
  0.500000 -0.000000  0.000000      2.000000
  0.250000  0.250000  0.000000      2.000000
  0.500000  0.250000  0.000000      4.000000
 -0.250000  0.250000  0.000000      2.000000
  0.500000  0.500000  0.000000      1.000000
  0.000000  0.000000  0.250000      2.000000
  0.250000 -0.000000  0.250000      8.000000
  0.500000 -0.000000  0.250000      4.000000
  0.250000  0.250000  0.250000      4.000000
  0.500000  0.250000  0.250000      8.000000
 -0.250000  0.250000  0.250000      4.000000
  0.500000  0.500000  0.250000      2.000000
  0.000000  0.000000  0.500000      1.000000
  0.250000 -0.000000  0.500000      4.000000
  0.500000 -0.000000  0.500000      2.000000
  0.250000  0.250000  0.500000      2.000000
  0.500000  0.250000  0.500000      4.000000
 -0.250000  0.250000  0.500000      2.000000
  0.500000  0.500000  0.500000      1.000000
 
 Following cartesian coordinates:
            Coordinates               Weight
  0.000000  0.000000  0.000000      1.000000
  0.023799 -0.000415  0.000000      4.000000
  0.047598 -0.000830  0.000000      2.000000
  0.023384  0.023384  0.000000      2.000000
  0.047182  0.022968  0.000000      4.000000
 -0.024214  0.024214  0.000000      2.000000
  0.046767  0.046767  0.000000      1.000000
  0.000000  0.000000  0.023990      2.000000
  0.023799 -0.000415  0.023990      8.000000
  0.047598 -0.000830  0.023990      4.000000
  0.023384  0.023384  0.023990      4.000000
  0.047182  0.022968  0.023990      8.000000
 -0.024214  0.024214  0.023990      4.000000
  0.046767  0.046767  0.023990      2.000000
  0.000000  0.000000  0.047981      1.000000
  0.023799 -0.000415  0.047981      4.000000
  0.047598 -0.000830  0.047981      2.000000
  0.023384  0.023384  0.047981      2.000000
  0.047182  0.022968  0.047981      4.000000
 -0.024214  0.024214  0.047981      2.000000
  0.046767  0.046767  0.047981      1.000000
 
 TETIRR: Found     96 inequivalent tetrahedra from      384
 
 Subroutine IBZKPT_HF returns following result:
 ==============================================
 
 Found     64 k-points in 1st BZ
 the following     64 k-points will be used (e.g. in the exchange kernel)
 Following reciprocal coordinates:   # in IRBZ
  0.000000  0.000000  0.000000    0.01562500   1 t-inv F
  0.250000 -0.000000  0.000000    0.01562500   2 t-inv F
  0.500000 -0.000000  0.000000    0.01562500   3 t-inv F
  0.250000  0.250000  0.000000    0.01562500   4 t-inv F
  0.500000  0.250000  0.000000    0.01562500   5 t-inv F
 -0.250000  0.250000  0.000000    0.01562500   6 t-inv F
  0.500000  0.500000  0.000000    0.01562500   7 t-inv F
  0.000000  0.000000  0.250000    0.01562500   8 t-inv F
  0.250000 -0.000000  0.250000    0.01562500   9 t-inv F
  0.500000 -0.000000  0.250000    0.01562500  10 t-inv F
  0.250000  0.250000  0.250000    0.01562500  11 t-inv F
  0.500000  0.250000  0.250000    0.01562500  12 t-inv F
 -0.250000  0.250000  0.250000    0.01562500  13 t-inv F
  0.500000  0.500000  0.250000    0.01562500  14 t-inv F
  0.000000  0.000000  0.500000    0.01562500  15 t-inv F
  0.250000 -0.000000  0.500000    0.01562500  16 t-inv F
  0.500000 -0.000000  0.500000    0.01562500  17 t-inv F
  0.250000  0.250000  0.500000    0.01562500  18 t-inv F
  0.500000  0.250000  0.500000    0.01562500  19 t-inv F
 -0.250000  0.250000  0.500000    0.01562500  20 t-inv F
  0.500000  0.500000  0.500000    0.01562500  21 t-inv F
 -0.250000  0.000000  0.000000    0.01562500   2 t-inv F
  0.000000 -0.250000  0.000000    0.01562500   2 t-inv F spinflp
 -0.000000  0.250000  0.000000    0.01562500   2 t-inv F spinflp
  0.000000 -0.500000  0.000000    0.01562500   3 t-inv F spinflp
 -0.250000 -0.250000  0.000000    0.01562500   4 t-inv F
 -0.500000 -0.250000  0.000000    0.01562500   5 t-inv F
 -0.250000 -0.500000  0.000000    0.01562500   5 t-inv F spinflp
  0.250000  0.500000  0.000000    0.01562500   5 t-inv F spinflp
  0.250000 -0.250000  0.000000    0.01562500   6 t-inv F
 -0.250000  0.000000  0.250000    0.01562500   9 t-inv F
  0.000000 -0.250000  0.250000    0.01562500   9 t-inv F spinflp
 -0.000000  0.250000  0.250000    0.01562500   9 t-inv F spinflp
  0.000000 -0.500000  0.250000    0.01562500  10 t-inv F spinflp
 -0.250000 -0.250000  0.250000    0.01562500  11 t-inv F
 -0.500000 -0.250000  0.250000    0.01562500  12 t-inv F
 -0.250000 -0.500000  0.250000    0.01562500  12 t-inv F spinflp
  0.250000  0.500000  0.250000    0.01562500  12 t-inv F spinflp
  0.250000 -0.250000  0.250000    0.01562500  13 t-inv F
 -0.250000  0.000000  0.500000    0.01562500  16 t-inv F
  0.000000 -0.250000  0.500000    0.01562500  16 t-inv F spinflp
 -0.000000  0.250000  0.500000    0.01562500  16 t-inv F spinflp
  0.000000 -0.500000  0.500000    0.01562500  17 t-inv F spinflp
 -0.250000 -0.250000  0.500000    0.01562500  18 t-inv F
 -0.500000 -0.250000  0.500000    0.01562500  19 t-inv F
 -0.250000 -0.500000  0.500000    0.01562500  19 t-inv F spinflp
  0.250000  0.500000  0.500000    0.01562500  19 t-inv F spinflp
  0.250000 -0.250000  0.500000    0.01562500  20 t-inv F
  0.000000  0.000000 -0.250000    0.01562500   8 t-inv T
 -0.250000  0.000000 -0.250000    0.01562500   9 t-inv T
  0.250000 -0.000000 -0.250000    0.01562500   9 t-inv T
 -0.000000  0.250000 -0.250000    0.01562500   9 t-inv T spinflp
  0.000000 -0.250000 -0.250000    0.01562500   9 t-inv T spinflp
 -0.500000  0.000000 -0.250000    0.01562500  10 t-inv T
 -0.000000  0.500000 -0.250000    0.01562500  10 t-inv T spinflp
 -0.250000 -0.250000 -0.250000    0.01562500  11 t-inv T
  0.250000  0.250000 -0.250000    0.01562500  11 t-inv T
 -0.500000 -0.250000 -0.250000    0.01562500  12 t-inv T
  0.500000  0.250000 -0.250000    0.01562500  12 t-inv T
  0.250000  0.500000 -0.250000    0.01562500  12 t-inv T spinflp
 -0.250000 -0.500000 -0.250000    0.01562500  12 t-inv T spinflp
  0.250000 -0.250000 -0.250000    0.01562500  13 t-inv T
 -0.250000  0.250000 -0.250000    0.01562500  13 t-inv T
 -0.500000 -0.500000 -0.250000    0.01562500  14 t-inv T


--------------------------------------------------------------------------------------------------------




 Dimension of arrays:
   k-points           NKPTS =     21   k-points in BZ     NKDIM =     21   number of bands    NBANDS=    512
   number of dos      NEDOS =    301   number of ions     NIONS =     64
   non local maximal  LDIM  =      6   non local SUM 2l+1 LMDIM =     18
   total plane-waves  NPLWV = 829440
   max r-space proj   IRMAX =      1   max aug-charges    IRDMAX=  22914
   dimension x,y,z NGX =    96 NGY =   96 NGZ =   90
   dimension x,y,z NGXF=   192 NGYF=  192 NGZF=  180
   support grid    NGXF=   192 NGYF=  192 NGZF=  180
   ions per type =              32  16  16
   NGX,Y,Z   is equivalent  to a cutoff of  15.19, 15.19, 14.36 a.u.
   NGXF,Y,Z  is equivalent  to a cutoff of  30.37, 30.37, 28.72 a.u.

 SYSTEM =  CuFeS2                                  
 POSCAR =  Fe16 Cu16 S32                           

 Startparameter for this run:
   NWRITE =      2    write-flag & timer
   PREC   = accura    normal or accurate (medium, high low for compatibility)
   ISTART =      0    job   : 0-new  1-cont  2-samecut
   ICHARG =      1    charge: 1-file 2-atom 10-const
   ISPIN  =      2    spin polarized calculation?
   LNONCOLLINEAR =      F non collinear calculations
   LSORBIT =      F    spin-orbit coupling
   INIWAV =      1    electr: 0-lowe 1-rand  2-diag
   LASPH  =      F    aspherical Exc in radial PAW
   METAGGA=      F    non-selfconsistent MetaGGA calc.

 Electronic Relaxation 1
   ENCUT  =  700.0 eV  51.45 Ry    7.17 a.u.  22.67 22.67 22.48*2*pi/ulx,y,z
   ENINI  =  700.0     initial cutoff
   ENAUG  =  758.2 eV  augmentation charge cutoff
   NELM   =    500;   NELMIN=  2; NELMDL=  0     # of ELM steps 
   EDIFF  = 0.1E-07   stopping-criterion for ELM
   LREAL  =      F    real-space projection
   NLSPLINE    = F    spline interpolate recip. space projectors
   LCOMPAT=      F    compatible to vasp.4.4
   GGA_COMPAT  = T    GGA compatible to vasp.4.4-vasp.4.6
   LMAXPAW     = -100 max onsite density
   LMAXMIX     =    4 max onsite mixed and CHGCAR
   VOSKOWN=      0    Vosko Wilk Nusair interpolation
   ROPT   =    0.00000   0.00000   0.00000
 Ionic relaxation
   EDIFFG = -.1E-04   stopping-criterion for IOM
   NSW    =      0    number of steps for IOM
   NBLOCK =      1;   KBLOCK =      1    inner block; outer block 
   IBRION =     -1    ionic relax: 0-MD 1-quasi-New 2-CG
   NFREE  =      0    steps in history (QN), initial steepest desc. (CG)
   ISIF   =      2    stress and relaxation
   IWAVPR =     10    prediction:  0-non 1-charg 2-wave 3-comb
   ISYM   =      2    0-nonsym 1-usesym 2-fastsym
   LCORR  =      T    Harris-Foulkes like correction to forces

   POTIM  = 0.5000    time-step for ionic-motion
   TEIN   =    0.0    initial temperature
   TEBEG  =    0.0;   TEEND  =   0.0 temperature during run
   SMASS  =  -3.00    Nose mass-parameter (am)
   estimated Nose-frequenzy (Omega)   =  0.10E-29 period in steps =****** mass=  -0.252E-26a.u.
   SCALEE = 1.0000    scale energy and forces
   NPACO  =    256;   APACO  = 16.0  distance and # of slots for P.C.
   PSTRESS=    0.0 pullay stress

  Mass of Ions in am
   POMASS =  32.07 63.55 55.85
  Ionic Valenz
   ZVAL   =   6.00 17.00 14.00
  Atomic Wigner-Seitz radii
   RWIGS  =  -1.00 -1.00 -1.00
  virtual crystal weights 
   VCA    =   1.00  1.00  1.00
   NELECT =     688.0000    total number of electrons
   NUPDOWN=      -1.0000    fix difference up-down

 DOS related values:
   EMIN   =  10.00;   EMAX   =-10.00  energy-range for DOS
   EFERMI =   0.00
   ISMEAR =    -5;   SIGMA  =   0.03  broadening in eV -4-tet -1-fermi 0-gaus

 Electronic relaxation 2 (details)
   IALGO  =     38    algorithm
   LDIAG  =      T    sub-space diagonalisation (order eigenvalues)
   LSUBROT=      F    optimize rotation matrix (better conditioning)
   TURBO    =      0    0=normal 1=particle mesh
   IRESTART =      0    0=no restart 2=restart with 2 vectors
   NREBOOT  =      0    no. of reboots
   NMIN     =      0    reboot dimension
   EREF     =   0.00    reference energy to select bands
   IMIX   =      4    mixing-type and parameters
     AMIX     =   0.40;   BMIX     =  1.00
     AMIX_MAG =   1.60;   BMIX_MAG =  1.00
     AMIN     =   0.10
     WC   =   100.;   INIMIX=   1;  MIXPRE=   1;  MAXMIX= -45

 Intra band minimization:
   WEIMIN = 0.0000     energy-eigenvalue tresh-hold
   EBREAK =  0.49E-11  absolut break condition
   DEPER  =   0.30     relativ break condition  

   TIME   =   0.40     timestep for ELM

  volume/ion in A,a.u.               =      17.97       121.29
  Fermi-wavevector in a.u.,A,eV,Ry     =   1.379334  2.606564 25.885947  1.902563
  Thomas-Fermi vector in A             =   2.504313
 
 Write flags
   LWAVE        =      T    write WAVECAR
   LDOWNSAMPLE  =      F    k-point downsampling of WAVECAR
   LCHARG       =      T    write CHGCAR
   LVTOT        =      F    write LOCPOT, total local potential
   LVHAR        =      F    write LOCPOT, Hartree potential only
   LELF         =      F    write electronic localiz. function (ELF)
   LORBIT       =     11    0 simple, 1 ext, 2 COOP (PROOUT), +10 PAW based schemes


 Dipole corrections
   LMONO  =      F    monopole corrections only (constant potential shift)
   LDIPOL =      F    correct potential (dipole corrections)
   IDIPOL =      0    1-x, 2-y, 3-z, 4-all directions 
   EPSILON=  1.0000000 bulk dielectric constant

 LDA+U is selected, type is set to LDAUTYPE =  2
   angular momentum for each species LDAUL =     2    2    2
   U (eV)           for each species LDAUU =   0.0  0.1  4.7
   J (eV)           for each species LDAUJ =   0.0  0.0  0.0
 Exchange correlation treatment:
   GGA     =    PS    GGA type
   LEXCH   =    14    internal setting for exchange type
   VOSKOWN=      0    Vosko Wilk Nusair interpolation
   LHFCALC =     F    Hartree Fock is set to
   LHFONE  =     F    Hartree Fock one center treatment
   AEXX    =    0.0000 exact exchange contribution

 Linear response parameters
   LEPSILON=     F    determine dielectric tensor
   LRPA    =     F    only Hartree local field effects (RPA)
   LNABLA  =     F    use nabla operator in PAW spheres
   LVEL    =     F    velocity operator in full k-point grid
   LINTERFAST=   F  fast interpolation
   KINTER  =     0    interpolate to denser k-point grid
   CSHIFT  =0.1000    complex shift for real part using Kramers Kronig
   OMEGAMAX=  -1.0    maximum frequency
   DEG_THRESHOLD= 0.2000000E-02 threshold for treating states as degnerate
   RTIME   =   -0.100 relaxation time in fs
  (WPLASMAI=    0.000 imaginary part of plasma frequency in eV, 0.658/RTIME)
   DFIELD  = 0.0000000 0.0000000 0.0000000 field for delta impulse in time
 
 Orbital magnetization related:
   ORBITALMAG=     F  switch on orbital magnetization
   LCHIMAG   =     F  perturbation theory with respect to B field
   DQ        =  0.001000  dq finite difference perturbation B field
   LLRAUG    =     F  two centre corrections for induced B field

 PEAD related settings:
   LPEAD      =     T    switch on PEAD
   IPEAD      =     4    finite difference order for dpsi/dk
   LCALCPOL   =     T    calculate macroscopic polarization
   LCALCEPS   =     F    calculate dielectric tensor
   EFIELD_PEAD=    0.0000    0.0000    0.0000
   SKIP_EDOTP =     F
   LRPA       =     F
   SKIP_SCF   =     F


--------------------------------------------------------------------------------------------------------


 Static calculation
 charge density and potential will be updated during run
 spin polarized calculation
 Variant of blocked Davidson
 Davidson routine will perform the subspace rotation
 perform sub-space diagonalisation
    after iterative eigenvector-optimisation
 modified Broyden-mixing scheme, WC =      100.0
 initial mixing is a Kerker type mixing with AMIX =  0.4000 and BMIX =      1.0000
 Hartree-type preconditioning will be used
 using additional bands          168
 reciprocal scheme for non local part
 use partial core corrections
 calculate Harris-corrections to forces 
   (improved forces if not selfconsistent)
 use gradient corrections 
 use of overlap-Matrix (Vanderbilt PP)
 Fermi weights with tetrahedron method with Bloechl corrections


--------------------------------------------------------------------------------------------------------


  energy-cutoff  :      700.00
  volume of cell :     1150.28
      direct lattice vectors                 reciprocal lattice vectors
    10.507932000  0.183305000  0.000000000     0.095195173 -0.001660627  0.000000000
     0.183305000 10.507932000  0.000000000    -0.001660627  0.095195173  0.000000000
     0.000000000  0.000000000 10.420819573     0.000000000  0.000000000  0.095961742

  length of vectors
    10.509530705 10.509530705 10.420819573     0.095209656  0.095209656  0.095961742


 
 k-points in units of 2pi/SCALE and weight: Automatic mesh                          
   0.00000000  0.00000000  0.00000000       0.016
   0.02379879 -0.00041516  0.00000000       0.062
   0.04759759 -0.00083031  0.00000000       0.031
   0.02338364  0.02338364  0.00000000       0.031
   0.04718243  0.02296848  0.00000000       0.062
  -0.02421395  0.02421395  0.00000000       0.031
   0.04676727  0.04676727  0.00000000       0.016
   0.00000000  0.00000000  0.02399044       0.031
   0.02379879 -0.00041516  0.02399044       0.125
   0.04759759 -0.00083031  0.02399044       0.062
   0.02338364  0.02338364  0.02399044       0.062
   0.04718243  0.02296848  0.02399044       0.125
  -0.02421395  0.02421395  0.02399044       0.062
   0.04676727  0.04676727  0.02399044       0.031
   0.00000000  0.00000000  0.04798087       0.016
   0.02379879 -0.00041516  0.04798087       0.062
   0.04759759 -0.00083031  0.04798087       0.031
   0.02338364  0.02338364  0.04798087       0.031
   0.04718243  0.02296848  0.04798087       0.062
  -0.02421395  0.02421395  0.04798087       0.031
   0.04676727  0.04676727  0.04798087       0.016
 
 k-points in reciprocal lattice and weights: Automatic mesh                          
   0.00000000  0.00000000  0.00000000       0.016
   0.25000000 -0.00000000  0.00000000       0.062
   0.50000000 -0.00000000  0.00000000       0.031
   0.25000000  0.25000000  0.00000000       0.031
   0.50000000  0.25000000  0.00000000       0.062
  -0.25000000  0.25000000  0.00000000       0.031
   0.50000000  0.50000000  0.00000000       0.016
   0.00000000  0.00000000  0.25000000       0.031
   0.25000000 -0.00000000  0.25000000       0.125
   0.50000000 -0.00000000  0.25000000       0.062
   0.25000000  0.25000000  0.25000000       0.062
   0.50000000  0.25000000  0.25000000       0.125
  -0.25000000  0.25000000  0.25000000       0.062
   0.50000000  0.50000000  0.25000000       0.031
   0.00000000  0.00000000  0.50000000       0.016
   0.25000000 -0.00000000  0.50000000       0.062
   0.50000000 -0.00000000  0.50000000       0.031
   0.25000000  0.25000000  0.50000000       0.031
   0.50000000  0.25000000  0.50000000       0.062
  -0.25000000  0.25000000  0.50000000       0.031
   0.50000000  0.50000000  0.50000000       0.016
 
 position of ions in fractional coordinates (direct lattice) 
   0.12615307  0.12521636  0.12305214
   0.62615307  0.12521636  0.12305214
   0.12615307  0.62521636  0.12305214
   0.62615307  0.62521636  0.12305214
   0.37384693  0.37478364  0.12305214
   0.87384693  0.37478364  0.12305214
   0.37384693  0.87478364  0.12305214
   0.87384693  0.87478364  0.12305214
   0.12478364  0.37384693  0.87305214
   0.62478364  0.37384693  0.87305214
   0.12478364  0.87384693  0.87305214
   0.62478364  0.87384693  0.87305214
   0.37521636  0.12615307  0.87305214
   0.87521636  0.12615307  0.87305214
   0.37521636  0.62615307  0.87305214
   0.87521636  0.62615307  0.87305214
   0.12384693  0.12478364  0.62305214
   0.62384693  0.12478364  0.62305214
   0.12384693  0.62478364  0.62305214
   0.62384693  0.62478364  0.62305214
   0.37615307  0.37521636  0.62305214
   0.87615307  0.37521636  0.62305214
   0.37615307  0.87521636  0.62305214
   0.87615307  0.87521636  0.62305214
   0.37478364  0.12384693  0.37305214
   0.87478364  0.12384693  0.37305214
   0.37478364  0.62384693  0.37305214
   0.87478364  0.62384693  0.37305214
   0.12521636  0.37615307  0.37305214
   0.62521636  0.37615307  0.37305214
   0.12521636  0.87615307  0.37305214
   0.62521636  0.87615307  0.37305214
   0.00000000  0.00000000  0.50166120
   0.50000000  0.00000000  0.50166120
   0.00000000  0.50000000  0.50166120
   0.50000000  0.50000000  0.50166120
   0.25000000  0.00000000  0.25166120
   0.75000000  0.00000000  0.25166120
   0.25000000  0.50000000  0.25166120
   0.75000000  0.50000000  0.25166120
   0.25000000  0.25000000  0.00166120
   0.75000000  0.25000000  0.00166120
   0.25000000  0.75000000  0.00166120
   0.75000000  0.75000000  0.00166120
   0.00000000  0.25000000  0.75166120
   0.50000000  0.25000000  0.75166120
   0.00000000  0.75000000  0.75166120
   0.50000000  0.75000000  0.75166120
   0.00000000  0.00000000  0.00223451
   0.50000000  0.00000000  0.00223451
   0.00000000  0.50000000  0.00223451
   0.50000000  0.50000000  0.00223451
   0.25000000  0.00000000  0.75223451
   0.75000000  0.00000000  0.75223451
   0.25000000  0.50000000  0.75223451
   0.75000000  0.50000000  0.75223451
   0.25000000  0.25000000  0.50223451
   0.75000000  0.25000000  0.50223451
   0.25000000  0.75000000  0.50223451
   0.75000000  0.75000000  0.50223451
   0.00000000  0.25000000  0.25223451
   0.50000000  0.25000000  0.25223451
   0.00000000  0.75000000  0.25223451
   0.50000000  0.75000000  0.25223451
 
 position of ions in cartesian coordinates  (Angst):
   1.34856065  1.33888944  1.28230419
   6.60252665  1.43054194  1.28230419
   1.44021315  6.59285544  1.28230419
   6.69417915  6.68450794  1.28230419
   3.99705785  4.00672906  1.28230419
   9.25102385  4.09838156  1.28230419
   4.08871035  9.26069506  1.28230419
   9.34267635  9.35234756  1.28230419
   1.37974606  3.95123160  9.09791886
   6.63371206  4.04288410  9.09791886
   1.47139856  9.20519760  9.09791886
   6.72536456  9.29685010  9.09791886
   3.96587244  1.39438690  9.09791886
   9.21983844  1.48603940  9.09791886
   4.05752494  6.64835290  9.09791886
   9.31149094  6.74000540  9.09791886
   1.32424860  1.33391981  6.49271397
   6.57821460  1.42557231  6.49271397
   1.41590110  6.58788581  6.49271397
   6.66986710  6.67953831  6.49271397
   4.02136990  4.01169869  6.49271397
   9.27533590  4.10335119  6.49271397
   4.11302240  9.26566469  6.49271397
   9.36698840  9.35731719  6.49271397
   3.96090281  1.37007485  3.88750908
   9.21486881  1.46172735  3.88750908
   4.05255531  6.62404085  3.88750908
   9.30652131  6.71569335  3.88750908
   1.38471569  3.97554365  3.88750908
   6.63868169  4.06719615  3.88750908
   1.47636819  9.22950965  3.88750908
   6.73033419  9.32116215  3.88750908
   0.00000000  0.00000000  5.22772085
   5.25396600  0.09165250  5.22772085
   0.09165250  5.25396600  5.22772085
   5.34561850  5.34561850  5.22772085
   2.62698300  0.04582625  2.62251596
   7.88094900  0.13747875  2.62251596
   2.71863550  5.29979225  2.62251596
   7.97260150  5.39144475  2.62251596
   2.67280925  2.67280925  0.01731107
   7.92677525  2.76446175  0.01731107
   2.76446175  7.92677525  0.01731107
   8.01842775  8.01842775  0.01731107
   0.04582625  2.62698300  7.83292575
   5.29979225  2.71863550  7.83292575
   0.13747875  7.88094900  7.83292575
   5.39144475  7.97260150  7.83292575
   0.00000000  0.00000000  0.02328545
   5.25396600  0.09165250  0.02328545
   0.09165250  5.25396600  0.02328545
   5.34561850  5.34561850  0.02328545
   2.62698300  0.04582625  7.83890013
   7.88094900  0.13747875  7.83890013
   2.71863550  5.29979225  7.83890013
   7.97260150  5.39144475  7.83890013
   2.67280925  2.67280925  5.23369524
   7.92677525  2.76446175  5.23369524
   2.76446175  7.92677525  5.23369524
   8.01842775  8.01842775  5.23369524
   0.04582625  2.62698300  2.62849035
   5.29979225  2.71863550  2.62849035
   0.13747875  7.88094900  2.62849035
   5.39144475  7.97260150  2.62849035
 


--------------------------------------------------------------------------------------------------------


 k-point  1 :   0.0000 0.0000 0.0000  plane waves:   48399
 k-point  2 :   0.2500-0.0000 0.0000  plane waves:   48421
 k-point  3 :   0.5000-0.0000 0.0000  plane waves:   48352
 k-point  4 :   0.2500 0.2500 0.0000  plane waves:   48375
 k-point  5 :   0.5000 0.2500 0.0000  plane waves:   48396
 k-point  6 :  -0.2500 0.2500 0.0000  plane waves:   48365
 k-point  7 :   0.5000 0.5000 0.0000  plane waves:   48416
 k-point  8 :   0.0000 0.0000 0.2500  plane waves:   48401
 k-point  9 :   0.2500-0.0000 0.2500  plane waves:   48387
 k-point 10 :   0.5000-0.0000 0.2500  plane waves:   48370
 k-point 11 :   0.2500 0.2500 0.2500  plane waves:   48387
 k-point 12 :   0.5000 0.2500 0.2500  plane waves:   48383
 k-point 13 :  -0.2500 0.2500 0.2500  plane waves:   48349
 k-point 14 :   0.5000 0.5000 0.2500  plane waves:   48414
 k-point 15 :   0.0000 0.0000 0.5000  plane waves:   48432
 k-point 16 :   0.2500-0.0000 0.5000  plane waves:   48346
 k-point 17 :   0.5000-0.0000 0.5000  plane waves:   48332
 k-point 18 :   0.2500 0.2500 0.5000  plane waves:   48390
 k-point 19 :   0.5000 0.2500 0.5000  plane waves:   48338
 k-point 20 :  -0.2500 0.2500 0.5000  plane waves:   48352
 k-point 21 :   0.5000 0.5000 0.5000  plane waves:   48292

 maximum and minimum number of plane-waves per node :     48432    48292

 maximum number of plane-waves:     48432
 maximum index in each direction: 
   IXMAX=   22   IYMAX=   22   IZMAX=   22
   IXMIN=  -23   IYMIN=  -23   IZMIN=  -22


 serial   3D FFT for wavefunctions
 parallel 3D FFT for charge:
    minimum data exchange during FFTs selected (reduces bandwidth)


 total amount of memory used by VASP MPI-rank0   664114. kBytes
=======================================================================

   base      :      30000. kBytes
   nonl-proj :     491069. kBytes
   fftplans  :       4588. kBytes
   grid      :      69719. kBytes
   one-center:       1990. kBytes
   wavefun   :      66748. kBytes
 
     INWAV:  cpu time    0.0000: real time    0.0000
 Broyden mixing: mesh for mixing (old mesh)
   NGX = 45   NGY = 45   NGZ = 45
  (NGX  =192   NGY  =192   NGZ  =180)
  gives a total of  91125 points

 initial charge density was supplied:
 number of electron     688.0000415 magnetization      -0.0000000
 keeping initial charge density in first step


--------------------------------------------------------------------------------------------------------


 Maximum index for augmentation-charges          893 (set IRDMAX)


--------------------------------------------------------------------------------------------------------


 First call to EWALD:  gamma=   0.169
 Maximum number of real-space cells 3x 3x 3
 Maximum number of reciprocal cells 3x 3x 3

    FEWALD:  cpu time    0.0027: real time    0.0032


--------------------------------------- Iteration      1(   1)  ---------------------------------------


    POTLOK:  cpu time    0.3375: real time    0.3688
    SETDIJ:  cpu time    0.0143: real time    0.0144
     EDDAV:  cpu time  222.4236: real time  224.2012
 BZINTS: Fermi energy: 14.981959;688.000000 electrons
         Band energy:***********;  BLOECHL correction: -0.010087
       DOS:  cpu time    0.1605: real time    0.1612
    --------------------------------------------
      LOOP:  cpu time  222.9359: real time  224.7457

 eigenvalue-minimisations  : 43008
 total energy-change (2. order) : 0.6052392E+04  (-0.5163338E+05)
 number of electron     688.0000415 magnetization      -0.0000000
 augmentation part      688.0000415 magnetization      -0.0000000

 Free energy of the ion-electron system (eV)
  ---------------------------------------------------
  alpha Z        PSCENC =      2356.94489831
  Ewald energy   TEWEN  =    -62480.02942175
  -Hartree energ DENC   =    -42945.46329357
  -exchange      EXHF   =         0.00000000
  -V(xc)+E(xc)   XCENC  =      3286.51870967
  PAW double counting   =    112275.32203429  -115969.22376934
  entropy T*S    EENTRO =         0.00000000
  eigenvalues    EBANDS =     -4491.74249559
  atomic energy  EATOM  =    114020.06510763
  Solvation  Ediel_sol  =         0.00000000
  ---------------------------------------------------
  free energy    TOTEN  =      6052.39176964 eV

  energy without entropy =     6052.39176964  energy(sigma->0) =     6052.39176964


--------------------------------------------------------------------------------------------------------




--------------------------------------- Iteration      1(   2)  ---------------------------------------


     EDDAV:  cpu time  259.1574: real time  261.0799
 BZINTS: Fermi energy:  5.581891;688.000000 electrons
         Band energy:***********;  BLOECHL correction:  0.000000
       DOS:  cpu time    0.0239: real time    0.0241
    --------------------------------------------
      LOOP:  cpu time  259.1814: real time  261.1040

 eigenvalue-minimisations  : 47104
 total energy-change (2. order) :-0.6129197E+04  (-0.6019175E+04)
 number of electron     688.0000415 magnetization      -0.0000000
 augmentation part      688.0000415 magnetization      -0.0000000

 Free energy of the ion-electron system (eV)
  ---------------------------------------------------
  alpha Z        PSCENC =      2356.94489831
  Ewald energy   TEWEN  =    -62480.02942175
  -Hartree energ DENC   =    -42945.46329357
  -exchange      EXHF   =         0.00000000
  -V(xc)+E(xc)   XCENC  =      3286.51870967
  PAW double counting   =    112275.32203429  -115969.22376934
  entropy T*S    EENTRO =         0.00000000
  eigenvalues    EBANDS =    -10620.93942344
  atomic energy  EATOM  =    114020.06510763
  Solvation  Ediel_sol  =         0.00000000
  ---------------------------------------------------
  free energy    TOTEN  =       -76.80515821 eV

  energy without entropy =      -76.80515821  energy(sigma->0) =      -76.80515821


--------------------------------------------------------------------------------------------------------




--------------------------------------- Iteration      1(   3)  ---------------------------------------


     EDDAV:  cpu time  412.8746: real time  415.6843
 BZINTS: Fermi energy:  4.997114;688.000000 electrons
         Band energy:***********;  BLOECHL correction:  0.000000
       DOS:  cpu time    0.0242: real time    0.0243
    --------------------------------------------
      LOOP:  cpu time  412.8988: real time  415.7086

 eigenvalue-minimisations  : 59648
 total energy-change (2. order) :-0.2476244E+03  (-0.2467175E+03)
 number of electron     688.0000415 magnetization      -0.0000000
 augmentation part      688.0000415 magnetization      -0.0000000

 Free energy of the ion-electron system (eV)
  ---------------------------------------------------
  alpha Z        PSCENC =      2356.94489831
  Ewald energy   TEWEN  =    -62480.02942175
  -Hartree energ DENC   =    -42945.46329357
  -exchange      EXHF   =         0.00000000
  -V(xc)+E(xc)   XCENC  =      3286.51870967
  PAW double counting   =    112275.32203429  -115969.22376934
  entropy T*S    EENTRO =         0.00000000
  eigenvalues    EBANDS =    -10868.56380093
  atomic energy  EATOM  =    114020.06510763
  Solvation  Ediel_sol  =         0.00000000
  ---------------------------------------------------
  free energy    TOTEN  =      -324.42953569 eV

  energy without entropy =     -324.42953569  energy(sigma->0) =     -324.42953569


--------------------------------------------------------------------------------------------------------




--------------------------------------- Iteration      1(   4)  ---------------------------------------


     EDDAV:  cpu time  314.0281: real time  316.2656
 BZINTS: Fermi energy:  4.896438;688.000000 electrons
         Band energy:***********;  BLOECHL correction:  0.000000
       DOS:  cpu time    0.0205: real time    0.0205
    --------------------------------------------
      LOOP:  cpu time  314.0486: real time  316.2861

 eigenvalue-minimisations  : 50688
 total energy-change (2. order) :-0.3458865E+01  (-0.3458668E+01)
 number of electron     688.0000415 magnetization      -0.0000000
 augmentation part      688.0000415 magnetization      -0.0000000

 Free energy of the ion-electron system (eV)
  ---------------------------------------------------
  alpha Z        PSCENC =      2356.94489831
  Ewald energy   TEWEN  =    -62480.02942175
  -Hartree energ DENC   =    -42945.46329357
  -exchange      EXHF   =         0.00000000
  -V(xc)+E(xc)   XCENC  =      3286.51870967
  PAW double counting   =    112275.32203429  -115969.22376934
  entropy T*S    EENTRO =         0.00000000
  eigenvalues    EBANDS =    -10872.02266565
  atomic energy  EATOM  =    114020.06510763
  Solvation  Ediel_sol  =         0.00000000
  ---------------------------------------------------
  free energy    TOTEN  =      -327.88840041 eV

  energy without entropy =     -327.88840041  energy(sigma->0) =     -327.88840041


--------------------------------------------------------------------------------------------------------




--------------------------------------- Iteration      1(   5)  ---------------------------------------


     EDDAV:  cpu time  406.8781: real time  409.6223
 BZINTS: Fermi energy:  5.040570;688.000000 electrons
         Band energy:***********;  BLOECHL correction:  0.000000
       DOS:  cpu time    0.0241: real time    0.0243
    CHARGE:  cpu time    2.9370: real time    2.9598
    MIXING:  cpu time    0.0055: real time    0.0056
    --------------------------------------------
      LOOP:  cpu time  409.8449: real time  412.6120

 eigenvalue-minimisations  : 58624
 total energy-change (2. order) :-0.1031432E+00  (-0.1031428E+00)
 number of electron     688.0000415 magnetization      -0.0000000
 augmentation part      282.2356714 magnetization      -0.0000000

 Broyden mixing:
  rms(total) = 0.25915E-01    rms(broyden)= 0.25912E-01
  rms(prec ) = 0.25986E-01
  weight for this iteration     100.00

 Free energy of the ion-electron system (eV)
  ---------------------------------------------------
  alpha Z        PSCENC =      2356.94489831
  Ewald energy   TEWEN  =    -62480.02942175
  -Hartree energ DENC   =    -42945.46329357
  -exchange      EXHF   =         0.00000000
  -V(xc)+E(xc)   XCENC  =      3286.51870967
  PAW double counting   =    112275.32203429  -115969.22376934
  entropy T*S    EENTRO =         0.00000000
  eigenvalues    EBANDS =    -10872.12580890
  atomic energy  EATOM  =    114020.06510763
  Solvation  Ediel_sol  =         0.00000000
  ---------------------------------------------------
  free energy    TOTEN  =      -327.99154366 eV

  energy without entropy =     -327.99154366  energy(sigma->0) =     -327.99154366


--------------------------------------------------------------------------------------------------------




--------------------------------------- Iteration      1(   6)  ---------------------------------------


    POTLOK:  cpu time    0.1580: real time    0.1592
    SETDIJ:  cpu time    0.0132: real time    0.0132
     EDDAV:  cpu time  438.9813: real time  441.9162
 BZINTS: Fermi energy:  4.975380;688.000000 electrons
         Band energy:***********;  BLOECHL correction:  0.000000
       DOS:  cpu time    0.0249: real time    0.0251
    CHARGE:  cpu time    2.9439: real time    2.9674
    MIXING:  cpu time    0.0041: real time    0.1468
    --------------------------------------------
      LOOP:  cpu time  442.1254: real time  445.2278

 eigenvalue-minimisations  : 60928
 total energy-change (2. order) :-0.5075869E-02  (-0.5098826E-02)
 number of electron     688.0000415 magnetization      -0.0000000
 augmentation part      282.2091944 magnetization      -0.0000000

 Broyden mixing:
  rms(total) = 0.95049E-02    rms(broyden)= 0.95018E-02
  rms(prec ) = 0.99515E-02
  weight for this iteration     100.00

 eigenvalues of (default mixing * dielectric matrix)
  average eigenvalue GAMMA=   0.7374
  0.7374

 Free energy of the ion-electron system (eV)
  ---------------------------------------------------
  alpha Z        PSCENC =      2356.94489831
  Ewald energy   TEWEN  =    -62480.02942175
  -Hartree energ DENC   =    -42946.02944893
  -exchange      EXHF   =         0.00000000
  -V(xc)+E(xc)   XCENC  =      3286.54315653
  PAW double counting   =    112296.54102009  -115990.63400532
  entropy T*S    EENTRO =         0.00000000
  eigenvalues    EBANDS =    -10871.39792608
  atomic energy  EATOM  =    114020.06510763
  Solvation  Ediel_sol  =         0.00000000
  ---------------------------------------------------
  free energy    TOTEN  =      -327.99661953 eV

  energy without entropy =     -327.99661953  energy(sigma->0) =     -327.99661953


--------------------------------------------------------------------------------------------------------




--------------------------------------- Iteration      1(   7)  ---------------------------------------


    POTLOK:  cpu time    0.1575: real time    0.1589
    SETDIJ:  cpu time    0.0129: real time    0.0130
     EDDAV:  cpu time  404.5855: real time  407.3093
 BZINTS: Fermi energy:  4.959253;688.000000 electrons
         Band energy:***********;  BLOECHL correction:  0.000000
       DOS:  cpu time    0.0242: real time    0.0243
    CHARGE:  cpu time    2.9292: real time    2.9523
    MIXING:  cpu time    0.0032: real time    0.0470
    --------------------------------------------
      LOOP:  cpu time  407.7126: real time  410.5047

 eigenvalue-minimisations  : 57600
 total energy-change (2. order) :-0.2976972E-03  (-0.3468407E-03)
 number of electron     688.0000415 magnetization      -0.0000000
 augmentation part      282.2232928 magnetization      -0.0000000

 Broyden mixing:
  rms(total) = 0.87848E-02    rms(broyden)= 0.87839E-02
  rms(prec ) = 0.92853E-02
  weight for this iteration     100.00

 eigenvalues of (default mixing * dielectric matrix)
  average eigenvalue GAMMA=   0.5415
  0.5415  0.5415

 Free energy of the ion-electron system (eV)
  ---------------------------------------------------
  alpha Z        PSCENC =      2356.94489831
  Ewald energy   TEWEN  =    -62480.02942175
  -Hartree energ DENC   =    -42945.05653935
  -exchange      EXHF   =         0.00000000
  -V(xc)+E(xc)   XCENC  =      3286.51121651
  PAW double counting   =    112289.23131948  -115983.15545152
  entropy T*S    EENTRO =         0.00000000
  eigenvalues    EBANDS =    -10872.50804654
  atomic energy  EATOM  =    114020.06510763
  Solvation  Ediel_sol  =         0.00000000
  ---------------------------------------------------
  free energy    TOTEN  =      -327.99691723 eV

  energy without entropy =     -327.99691723  energy(sigma->0) =     -327.99691723


--------------------------------------------------------------------------------------------------------




--------------------------------------- Iteration      1(   8)  ---------------------------------------


    POTLOK:  cpu time    0.1542: real time    0.1587
    SETDIJ:  cpu time    0.0130: real time    0.0130
     EDDAV:  cpu time  415.6045: real time  418.4208
 BZINTS: Fermi energy:  4.950278;688.000000 electrons
         Band energy:***********;  BLOECHL correction:  0.000000
       DOS:  cpu time    0.0244: real time    0.0245
    CHARGE:  cpu time    2.9428: real time    2.9659
    MIXING:  cpu time    0.0037: real time    0.0232
    --------------------------------------------
      LOOP:  cpu time  418.7425: real time  421.6060

 eigenvalue-minimisations  : 58368
 total energy-change (2. order) :-0.1043195E-04  (-0.3850533E-04)
 number of electron     688.0000415 magnetization      -0.0000000
 augmentation part      282.2208790 magnetization      -0.0000000

 Broyden mixing:
  rms(total) = 0.74444E-02    rms(broyden)= 0.74441E-02
  rms(prec ) = 0.75235E-02
  weight for this iteration     100.00

 eigenvalues of (default mixing * dielectric matrix)
  average eigenvalue GAMMA=   0.4387
  0.5308  0.5308  0.2543

 Free energy of the ion-electron system (eV)
  ---------------------------------------------------
  alpha Z        PSCENC =      2356.94489831
  Ewald energy   TEWEN  =    -62480.02942175
  -Hartree energ DENC   =    -42945.38304083
  -exchange      EXHF   =         0.00000000
  -V(xc)+E(xc)   XCENC  =      3286.52312427
  PAW double counting   =    112287.86141755  -115981.81799923
  entropy T*S    EENTRO =         0.00000000
  eigenvalues    EBANDS =    -10872.16101360
  atomic energy  EATOM  =    114020.06510763
  Solvation  Ediel_sol  =         0.00000000
  ---------------------------------------------------
  free energy    TOTEN  =      -327.99692766 eV

  energy without entropy =     -327.99692766  energy(sigma->0) =     -327.99692766


--------------------------------------------------------------------------------------------------------




--------------------------------------- Iteration      1(   9)  ---------------------------------------


    POTLOK:  cpu time    0.1611: real time    0.1621
    SETDIJ:  cpu time    0.0128: real time    0.0129
     EDDAV:  cpu time  331.7077: real time  334.0194
 BZINTS: Fermi energy:  4.946950;688.000000 electrons
         Band energy:***********;  BLOECHL correction:  0.000000
       DOS:  cpu time    0.0243: real time    0.0244
    CHARGE:  cpu time    2.9476: real time    2.9696
    MIXING:  cpu time    0.0020: real time    0.0020
    --------------------------------------------
      LOOP:  cpu time  334.8555: real time  337.1903

 eigenvalue-minimisations  : 51200
 total energy-change (2. order) :-0.3218884E-06  (-0.2185289E-05)
 number of electron     688.0000415 magnetization       0.0000000
 augmentation part      282.2196910 magnetization       0.0000000

 Broyden mixing:
  rms(total) = 0.65391E-02    rms(broyden)= 0.65391E-02
  rms(prec ) = 0.65588E-02
  weight for this iteration     100.00

 eigenvalues of (default mixing * dielectric matrix)
  average eigenvalue GAMMA=   0.5073
  0.6722  0.6722  0.3425  0.3425

 Free energy of the ion-electron system (eV)
  ---------------------------------------------------
  alpha Z        PSCENC =      2356.94489831
  Ewald energy   TEWEN  =    -62480.02942175
  -Hartree energ DENC   =    -42945.43299390
  -exchange      EXHF   =         0.00000000
  -V(xc)+E(xc)   XCENC  =      3286.52254038
  PAW double counting   =    112286.78288870  -115980.74478869
  entropy T*S    EENTRO =         0.00000000
  eigenvalues    EBANDS =    -10872.10515866
  atomic energy  EATOM  =    114020.06510763
  Solvation  Ediel_sol  =         0.00000000
  ---------------------------------------------------
  free energy    TOTEN  =      -327.99692798 eV

  energy without entropy =     -327.99692798  energy(sigma->0) =     -327.99692798


--------------------------------------------------------------------------------------------------------




--------------------------------------- Iteration      1(  10)  ---------------------------------------


    POTLOK:  cpu time    0.1576: real time    0.1587
    SETDIJ:  cpu time    0.0129: real time    0.0129
     EDDAV:  cpu time  514.5634: real time  517.9483
 BZINTS: Fermi energy:  4.943680;688.000000 electrons
         Band energy:***********;  BLOECHL correction:  0.000000
       DOS:  cpu time    0.0243: real time    0.0244
    CHARGE:  cpu time    2.9316: real time    2.9544
    MIXING:  cpu time    0.0018: real time    0.0018
    --------------------------------------------
      LOOP:  cpu time  517.6916: real time  521.1006

 eigenvalue-minimisations  : 68608
 total energy-change (2. order) : 0.2674060E-06  (-0.1692854E-06)
 number of electron     688.0000415 magnetization       0.0000000
 augmentation part      282.2193623 magnetization       0.0000000

 Broyden mixing:
  rms(total) = 0.55403E-02    rms(broyden)= 0.55403E-02
  rms(prec ) = 0.55567E-02
  weight for this iteration     100.00

 eigenvalues of (default mixing * dielectric matrix)
  average eigenvalue GAMMA=   0.7191
  1.1562  1.1562  0.4741  0.4741  0.3351

 Free energy of the ion-electron system (eV)
  ---------------------------------------------------
  alpha Z        PSCENC =      2356.94489831
  Ewald energy   TEWEN  =    -62480.02942175
  -Hartree energ DENC   =    -42945.46385132
  -exchange      EXHF   =         0.00000000
  -V(xc)+E(xc)   XCENC  =      3286.52227340
  PAW double counting   =    112284.98389506  -115978.93928321
  entropy T*S    EENTRO =         0.00000000
  eigenvalues    EBANDS =    -10872.08054582
  atomic energy  EATOM  =    114020.06510763
  Solvation  Ediel_sol  =         0.00000000
  ---------------------------------------------------
  free energy    TOTEN  =      -327.99692771 eV

  energy without entropy =     -327.99692771  energy(sigma->0) =     -327.99692771


--------------------------------------------------------------------------------------------------------




--------------------------------------- Iteration      1(  11)  ---------------------------------------


    POTLOK:  cpu time    0.1567: real time    0.1614
    SETDIJ:  cpu time    0.0129: real time    0.0130
     EDDAV:  cpu time  298.3695: real time  300.5776
 BZINTS: Fermi energy:  4.942689;688.000000 electrons
         Band energy:***********;  BLOECHL correction:  0.000000
       DOS:  cpu time    0.0251: real time    0.0270
    CHARGE:  cpu time    3.0275: real time    3.0510
    MIXING:  cpu time    0.0047: real time    0.0115
    --------------------------------------------
      LOOP:  cpu time  301.5966: real time  303.8416

 eigenvalue-minimisations  : 48128
 total energy-change (2. order) : 0.9961223E-06  (-0.1045802E-06)
 number of electron     688.0000415 magnetization       0.0000000
 augmentation part      282.2201524 magnetization       0.0000000

 Broyden mixing:
  rms(total) = 0.24598E-02    rms(broyden)= 0.24598E-02
  rms(prec ) = 0.24699E-02
  weight for this iteration     100.00

 eigenvalues of (default mixing * dielectric matrix)
  average eigenvalue GAMMA=   0.8597
  1.5278  1.5278  0.6342  0.6342  0.3345  0.4997

 Free energy of the ion-electron system (eV)
  ---------------------------------------------------
  alpha Z        PSCENC =      2356.94489831
  Ewald energy   TEWEN  =    -62480.02942175
  -Hartree energ DENC   =    -42945.47481059
  -exchange      EXHF   =         0.00000000
  -V(xc)+E(xc)   XCENC  =      3286.52052488
  PAW double counting   =    112279.61811315  -115973.54123917
  entropy T*S    EENTRO =         0.00000000
  eigenvalues    EBANDS =    -10872.10009917
  atomic energy  EATOM  =    114020.06510763
  Solvation  Ediel_sol  =         0.00000000
  ---------------------------------------------------
  free energy    TOTEN  =      -327.99692672 eV

  energy without entropy =     -327.99692672  energy(sigma->0) =     -327.99692672


--------------------------------------------------------------------------------------------------------




--------------------------------------- Iteration      1(  12)  ---------------------------------------


    POTLOK:  cpu time    0.1994: real time    0.2018
    SETDIJ:  cpu time    0.0152: real time    0.0153
     EDDAV:  cpu time  546.4617: real time  550.0304
 BZINTS: Fermi energy:  4.942337;688.000000 electrons
         Band energy:***********;  BLOECHL correction:  0.000000
       DOS:  cpu time    0.0244: real time    0.0245
    CHARGE:  cpu time    2.9234: real time    2.9459
    MIXING:  cpu time    0.0021: real time    0.0021
    --------------------------------------------
      LOOP:  cpu time  549.6259: real time  553.2197

 eigenvalue-minimisations  : 71680
 total energy-change (2. order) : 0.3955211E-06  (-0.5370018E-07)
 number of electron     688.0000415 magnetization       0.0000000
 augmentation part      282.2209455 magnetization       0.0000000

 Broyden mixing:
  rms(total) = 0.65446E-03    rms(broyden)= 0.65446E-03
  rms(prec ) = 0.65901E-03
  weight for this iteration     100.00

 eigenvalues of (default mixing * dielectric matrix)
  average eigenvalue GAMMA=   0.8523
  1.6156  1.6156  0.6994  0.6994  0.5002  0.5002  0.3356

 Free energy of the ion-electron system (eV)
  ---------------------------------------------------
  alpha Z        PSCENC =      2356.94489831
  Ewald energy   TEWEN  =    -62480.02942175
  -Hartree energ DENC   =    -42945.47087862
  -exchange      EXHF   =         0.00000000
  -V(xc)+E(xc)   XCENC  =      3286.51953430
  PAW double counting   =    112276.34543921  -115970.24969524
  entropy T*S    EENTRO =         0.00000000
  eigenvalues    EBANDS =    -10872.12191014
  atomic energy  EATOM  =    114020.06510763
  Solvation  Ediel_sol  =         0.00000000
  ---------------------------------------------------
  free energy    TOTEN  =      -327.99692632 eV

  energy without entropy =     -327.99692632  energy(sigma->0) =     -327.99692632


--------------------------------------------------------------------------------------------------------




--------------------------------------- Iteration      1(  13)  ---------------------------------------


    POTLOK:  cpu time    0.1554: real time    0.1564
    SETDIJ:  cpu time    0.0128: real time    0.0129
     EDDAV:  cpu time  267.5319: real time  269.4783
 BZINTS: Fermi energy:  4.942208;688.000000 electrons
         Band energy:***********;  BLOECHL correction:  0.000000
       DOS:  cpu time    0.0243: real time    0.0244
    CHARGE:  cpu time    2.9420: real time    2.9649
    MIXING:  cpu time    0.0020: real time    0.0020
    --------------------------------------------
      LOOP:  cpu time  270.6685: real time  272.6388

 eigenvalue-minimisations  : 45568
 total energy-change (2. order) : 0.1155422E-07  (-0.2377191E-08)
 number of electron     688.0000415 magnetization      -0.0000000
 augmentation part      282.2209352 magnetization      -0.0000000

 Broyden mixing:
  rms(total) = 0.58033E-03    rms(broyden)= 0.58033E-03
  rms(prec ) = 0.58368E-03
  weight for this iteration     100.00

 eigenvalues of (default mixing * dielectric matrix)
  average eigenvalue GAMMA=   0.9809
  2.0026  2.0026  0.9275  0.9275  0.3354  0.5742  0.5742  0.5030

 Free energy of the ion-electron system (eV)
  ---------------------------------------------------
  alpha Z        PSCENC =      2356.94489831
  Ewald energy   TEWEN  =    -62480.02942175
  -Hartree energ DENC   =    -42945.47133328
  -exchange      EXHF   =         0.00000000
  -V(xc)+E(xc)   XCENC  =      3286.51953720
  PAW double counting   =    112276.24002987  -115970.14415904
  entropy T*S    EENTRO =         0.00000000
  eigenvalues    EBANDS =    -10872.12158525
  atomic energy  EATOM  =    114020.06510763
  Solvation  Ediel_sol  =         0.00000000
  ---------------------------------------------------
  free energy    TOTEN  =      -327.99692631 eV

  energy without entropy =     -327.99692631  energy(sigma->0) =     -327.99692631


--------------------------------------------------------------------------------------------------------




--------------------------------------- Iteration      1(  14)  ---------------------------------------


    POTLOK:  cpu time    0.1543: real time    0.1550
    SETDIJ:  cpu time    0.0129: real time    0.0129
     EDDAV:  cpu time  392.7181: real time  395.2968
 BZINTS: Fermi energy:  4.942071;688.000000 electrons
         Band energy:***********;  BLOECHL correction:  0.000000
       DOS:  cpu time    0.0244: real time    0.0245
    CHARGE:  cpu time    2.9241: real time    2.9469
    MIXING:  cpu time    0.0021: real time    0.0021
    --------------------------------------------
      LOOP:  cpu time  395.8359: real time  398.4383

 eigenvalue-minimisations  : 50176
 total energy-change (2. order) : 0.4855974E-07  (-0.1954674E-08)
 number of electron     688.0000415 magnetization      -0.0000000
 augmentation part      282.2210354 magnetization      -0.0000000

 Broyden mixing:
  rms(total) = 0.38943E-03    rms(broyden)= 0.38943E-03
  rms(prec ) = 0.39039E-03
  weight for this iteration     100.00

 eigenvalues of (default mixing * dielectric matrix)
  average eigenvalue GAMMA=   1.0336
  1.9907  1.9907  1.2480  1.2480  0.3353  0.6636  0.6288  0.6288  0.5683

 Free energy of the ion-electron system (eV)
  ---------------------------------------------------
  alpha Z        PSCENC =      2356.94489831
  Ewald energy   TEWEN  =    -62480.02942175
  -Hartree energ DENC   =    -42945.46785291
  -exchange      EXHF   =         0.00000000
  -V(xc)+E(xc)   XCENC  =      3286.51938396
  PAW double counting   =    112275.93719672  -115969.84019130
  entropy T*S    EENTRO =         0.00000000
  eigenvalues    EBANDS =    -10872.12604692
  atomic energy  EATOM  =    114020.06510763
  Solvation  Ediel_sol  =         0.00000000
  ---------------------------------------------------
  free energy    TOTEN  =      -327.99692626 eV

  energy without entropy =     -327.99692626  energy(sigma->0) =     -327.99692626


--------------------------------------------------------------------------------------------------------




--------------------------------------- Iteration      1(  15)  ---------------------------------------


    POTLOK:  cpu time    0.1553: real time    0.1561
    SETDIJ:  cpu time    0.0128: real time    0.0129
     EDDAV:  cpu time  204.2253: real time  205.7329
 BZINTS: Fermi energy:  4.942032;688.000000 electrons
         Band energy:***********;  BLOECHL correction:  0.000000
       DOS:  cpu time    0.0244: real time    0.0245
    CHARGE:  cpu time    2.9280: real time    2.9506
    MIXING:  cpu time    0.0021: real time    0.0022
    --------------------------------------------
      LOOP:  cpu time  207.3480: real time  208.8792

 eigenvalue-minimisations  : 34304
 total energy-change (2. order) : 0.6477057E-07  (-0.1371065E-08)
 number of electron     688.0000415 magnetization      -0.0000000
 augmentation part      282.2211610 magnetization      -0.0000000

 Broyden mixing:
  rms(total) = 0.29927E-04    rms(broyden)= 0.29926E-04
  rms(prec ) = 0.30216E-04
  weight for this iteration     100.00

 eigenvalues of (default mixing * dielectric matrix)
  average eigenvalue GAMMA=   0.9989
  1.8575  1.8575  1.3398  1.3398  0.3353  0.7530  0.7530  0.5971  0.5971  0.5595

 Free energy of the ion-electron system (eV)
  ---------------------------------------------------
  alpha Z        PSCENC =      2356.94489831
  Ewald energy   TEWEN  =    -62480.02942175
  -Hartree energ DENC   =    -42945.46673278
  -exchange      EXHF   =         0.00000000
  -V(xc)+E(xc)   XCENC  =      3286.51911254
  PAW double counting   =    112275.27439545  -115969.17403440
  entropy T*S    EENTRO =         0.00000000
  eigenvalues    EBANDS =    -10872.13025120
  atomic energy  EATOM  =    114020.06510763
  Solvation  Ediel_sol  =         0.00000000
  ---------------------------------------------------
  free energy    TOTEN  =      -327.99692620 eV

  energy without entropy =     -327.99692620  energy(sigma->0) =     -327.99692620


--------------------------------------------------------------------------------------------------------




--------------------------------------- Iteration      1(  16)  ---------------------------------------


    POTLOK:  cpu time    0.1560: real time    0.1568
    SETDIJ:  cpu time    0.0129: real time    0.0129
     EDDAV:  cpu time  373.7837: real time  376.2455
 BZINTS: Fermi energy:  4.942017;688.000000 electrons
         Band energy:***********;  BLOECHL correction:  0.000000
[...]
   -.421E+02 0.369E+00 0.107E+02   0.430E+02 -.357E+00 -.109E+02   -.860E+00 -.127E-01 0.108E+00   0.191E-04 0.241E-05 -.865E-06
   -.421E+02 0.369E+00 0.107E+02   0.430E+02 -.357E+00 -.109E+02   -.860E+00 -.127E-01 0.108E+00   0.191E-04 0.241E-05 -.865E-06
   -.421E+02 0.369E+00 0.107E+02   0.430E+02 -.357E+00 -.109E+02   -.860E+00 -.127E-01 0.108E+00   0.191E-04 0.241E-05 -.865E-06
   -.421E+02 0.369E+00 0.107E+02   0.430E+02 -.357E+00 -.109E+02   -.860E+00 -.127E-01 0.108E+00   0.191E-04 0.241E-05 -.865E-06
   0.421E+02 -.369E+00 0.107E+02   -.430E+02 0.357E+00 -.109E+02   0.860E+00 0.127E-01 0.108E+00   -.191E-04 -.241E-05 -.865E-06
   0.421E+02 -.369E+00 0.107E+02   -.430E+02 0.357E+00 -.109E+02   0.860E+00 0.127E-01 0.108E+00   -.191E-04 -.241E-05 -.865E-06
   0.421E+02 -.369E+00 0.107E+02   -.430E+02 0.357E+00 -.109E+02   0.860E+00 0.127E-01 0.108E+00   -.191E-04 -.241E-05 -.865E-06
   0.421E+02 -.369E+00 0.107E+02   -.430E+02 0.357E+00 -.109E+02   0.860E+00 0.127E-01 0.108E+00   -.191E-04 -.241E-05 -.865E-06
   0.369E+00 -.421E+02 0.107E+02   -.357E+00 0.430E+02 -.109E+02   -.127E-01 -.860E+00 0.108E+00   0.241E-05 0.191E-04 -.865E-06
   0.369E+00 -.421E+02 0.107E+02   -.357E+00 0.430E+02 -.109E+02   -.127E-01 -.860E+00 0.108E+00   0.241E-05 0.191E-04 -.865E-06
   0.369E+00 -.421E+02 0.107E+02   -.357E+00 0.430E+02 -.109E+02   -.127E-01 -.860E+00 0.108E+00   0.241E-05 0.191E-04 -.865E-06
   0.369E+00 -.421E+02 0.107E+02   -.357E+00 0.430E+02 -.109E+02   -.127E-01 -.860E+00 0.108E+00   0.241E-05 0.191E-04 -.865E-06
   -.369E+00 0.421E+02 0.107E+02   0.357E+00 -.430E+02 -.109E+02   0.127E-01 0.860E+00 0.108E+00   -.241E-05 -.191E-04 -.865E-06
   -.369E+00 0.421E+02 0.107E+02   0.357E+00 -.430E+02 -.109E+02   0.127E-01 0.860E+00 0.108E+00   -.241E-05 -.191E-04 -.865E-06
   -.369E+00 0.421E+02 0.107E+02   0.357E+00 -.430E+02 -.109E+02   0.127E-01 0.860E+00 0.108E+00   -.241E-05 -.191E-04 -.865E-06
   -.369E+00 0.421E+02 0.107E+02   0.357E+00 -.430E+02 -.109E+02   0.127E-01 0.860E+00 0.108E+00   -.241E-05 -.191E-04 -.865E-06
   -.217E-06 0.344E-07 -.127E+02   0.533E-11 0.369E-11 0.122E+02   -.271E-19 0.407E-19 0.512E+00   0.313E-11 -.480E-11 0.210E-04
   -.217E-06 0.344E-07 -.127E+02   0.249E-11 0.219E-10 0.122E+02   -.212E-20 0.949E-19 0.512E+00   -.204E-11 -.842E-11 0.210E-04
   -.217E-06 0.344E-07 -.127E+02   -.115E-10 -.398E-12 0.122E+02   0.114E-19 -.136E-19 0.512E+00   -.462E-13 0.416E-11 0.210E-04
   -.217E-06 0.344E-07 -.127E+02   -.144E-10 0.178E-10 0.122E+02   0.911E-19 -.217E-18 0.512E+00   0.344E-12 0.736E-11 0.210E-04
   0.344E-07 -.217E-06 -.127E+02   -.145E-11 0.210E-10 0.122E+02   0.145E-18 0.377E-19 0.512E+00   -.664E-11 0.923E-13 0.210E-04
   0.344E-07 -.217E-06 -.127E+02   -.554E-11 0.409E-11 0.122E+02   -.477E-19 0.822E-19 0.512E+00   0.789E-11 0.149E-11 0.210E-04
   0.344E-07 -.217E-06 -.127E+02   0.169E-10 0.181E-10 0.122E+02   0.202E-19 -.201E-18 0.512E+00   -.319E-11 0.194E-12 0.210E-04
   0.344E-07 -.217E-06 -.127E+02   0.128E-10 0.131E-11 0.122E+02   -.152E-19 -.390E-19 0.512E+00   0.269E-11 -.351E-12 0.210E-04
   -.217E-06 0.344E-07 -.127E+02   0.137E-10 -.179E-10 0.122E+02   0.175E-18 0.813E-19 0.512E+00   0.296E-12 -.125E-11 0.210E-04
   -.217E-06 0.344E-07 -.127E+02   0.108E-10 0.397E-12 0.122E+02   -.216E-19 0.542E-19 0.512E+00   0.776E-12 -.437E-11 0.210E-04
   -.217E-06 0.344E-07 -.127E+02   -.318E-11 -.220E-10 0.122E+02   0.678E-20 0.108E-18 0.512E+00   -.142E-11 0.182E-11 0.210E-04
   -.217E-06 0.344E-07 -.127E+02   -.608E-11 -.369E-11 0.122E+02   -.491E-19 0.542E-19 0.512E+00   0.163E-11 0.377E-11 0.210E-04
   0.344E-07 -.217E-06 -.127E+02   -.128E-10 -.158E-11 0.122E+02   0.156E-18 -.555E-19 0.512E+00   -.221E-12 -.103E-11 0.210E-04
   0.344E-07 -.217E-06 -.127E+02   -.170E-10 -.185E-10 0.122E+02   0.537E-19 -.284E-19 0.512E+00   0.727E-12 -.765E-11 0.210E-04
   0.344E-07 -.217E-06 -.127E+02   0.555E-11 -.453E-11 0.122E+02   -.282E-19 0.275E-19 0.512E+00   -.101E-11 0.328E-11 0.210E-04
   0.344E-07 -.217E-06 -.127E+02   0.140E-11 -.214E-10 0.122E+02   -.257E-19 0.123E-18 0.512E+00   0.104E-11 0.691E-11 0.210E-04
   0.536E-07 -.753E-07 -.102E+02   -.433E-11 -.270E-11 0.955E+01   0.762E-18 0.651E-18 0.611E+00   -.536E-11 0.204E-11 -.100E-04
   0.536E-07 -.753E-07 -.102E+02   -.276E-11 -.176E-10 0.955E+01   0.715E-18 -.976E-18 0.611E+00   0.469E-11 0.310E-11 -.100E-04
   0.536E-07 -.753E-07 -.102E+02   0.932E-11 -.448E-12 0.955E+01   0.440E-18 0.976E-18 0.611E+00   -.344E-11 -.113E-11 -.100E-04
   0.536E-07 -.754E-07 -.102E+02   0.109E-10 -.152E-10 0.955E+01   -.122E-18 -.163E-17 0.611E+00   0.291E-11 -.271E-11 -.100E-04
   -.753E-07 0.536E-07 -.102E+02   0.206E-11 -.171E-10 0.955E+01   -.324E-18 0.976E-18 0.611E+00   0.492E-11 -.255E-11 -.100E-04
   -.753E-07 0.536E-07 -.102E+02   0.442E-11 -.331E-11 0.955E+01   -.156E-17 0.108E-18 0.611E+00   -.601E-11 -.296E-11 -.100E-04
   -.753E-07 0.536E-07 -.102E+02   -.128E-10 -.155E-10 0.955E+01   0.600E-18 -.651E-18 0.611E+00   0.161E-11 0.303E-11 -.100E-04
   -.753E-07 0.536E-07 -.102E+02   -.105E-10 -.176E-11 0.955E+01   0.966E-19 -.542E-18 0.611E+00   -.113E-11 0.356E-11 -.100E-04
   0.536E-07 -.753E-07 -.102E+02   -.105E-10 0.153E-10 0.955E+01   -.149E-18 0.651E-18 0.611E+00   -.154E-11 -.243E-11 -.100E-04
   0.536E-07 -.753E-07 -.102E+02   -.890E-11 0.436E-12 0.955E+01   -.123E-17 0.108E-17 0.611E+00   0.160E-11 0.117E-11 -.100E-04
   0.536E-07 -.753E-07 -.102E+02   0.311E-11 0.177E-10 0.955E+01   0.102E-18 -.217E-18 0.611E+00   0.910E-12 0.180E-11 -.100E-04
   0.536E-07 -.753E-07 -.102E+02   0.476E-11 0.285E-11 0.955E+01   -.210E-17 0.867E-18 0.611E+00   -.101E-11 0.351E-12 -.100E-04
   -.753E-07 0.536E-07 -.102E+02   0.106E-10 0.181E-11 0.955E+01   0.679E-18 0.217E-18 0.611E+00   -.297E-11 -.113E-11 -.100E-04
   -.753E-07 0.536E-07 -.102E+02   0.129E-10 0.155E-10 0.955E+01   -.254E-17 0.000E+00 0.611E+00   0.156E-11 0.252E-11 -.100E-04
   -.753E-07 0.536E-07 -.102E+02   -.425E-11 0.341E-11 0.955E+01   0.720E-18 0.141E-17 0.611E+00   -.167E-11 0.643E-12 -.100E-04
   -.753E-07 0.536E-07 -.102E+02   -.188E-11 0.170E-10 0.955E+01   -.444E-18 -.759E-18 0.611E+00   0.129E-11 -.263E-11 -.100E-04
 -----------------------------------------------------------------------------------------------
   -.147E-05 -.147E-05 -.215E+02   -.267E-12 0.140E-12 0.273E-11   0.438E-15 0.779E-15 0.214E+02   -.682E-13 0.365E-11 0.149E-03
 
 
 POSITION                                       TOTAL-FORCE (eV/Angst)
 -----------------------------------------------------------------------------------
      1.34856      1.33889      1.28230        -0.000015      0.000486      0.000056
      6.60253      1.43054      1.28230        -0.000015      0.000486      0.000056
      1.44021      6.59286      1.28230        -0.000015      0.000486      0.000056
      6.69418      6.68451      1.28230        -0.000015      0.000486      0.000056
      3.99706      4.00673      1.28230         0.000015     -0.000486      0.000056
      9.25102      4.09838      1.28230         0.000015     -0.000486      0.000056
      4.08871      9.26070      1.28230         0.000015     -0.000486      0.000056
      9.34268      9.35235      1.28230         0.000015     -0.000486      0.000056
      1.37975      3.95123      9.09792        -0.000486      0.000015      0.000056
      6.63371      4.04288      9.09792        -0.000486      0.000015      0.000056
      1.47140      9.20520      9.09792        -0.000486      0.000015      0.000056
      6.72536      9.29685      9.09792        -0.000486      0.000015      0.000056
      3.96587      1.39439      9.09792         0.000486     -0.000015      0.000056
      9.21984      1.48604      9.09792         0.000486     -0.000015      0.000056
      4.05752      6.64835      9.09792         0.000486     -0.000015      0.000056
      9.31149      6.74001      9.09792         0.000486     -0.000015      0.000056
      1.32425      1.33392      6.49271         0.000015     -0.000486      0.000056
      6.57821      1.42557      6.49271         0.000015     -0.000486      0.000056
      1.41590      6.58789      6.49271         0.000015     -0.000486      0.000056
      6.66987      6.67954      6.49271         0.000015     -0.000486      0.000056
      4.02137      4.01170      6.49271        -0.000015      0.000486      0.000056
      9.27534      4.10335      6.49271        -0.000015      0.000486      0.000056
      4.11302      9.26566      6.49271        -0.000015      0.000486      0.000056
      9.36699      9.35732      6.49271        -0.000015      0.000486      0.000056
      3.96090      1.37007      3.88751        -0.000486      0.000015      0.000056
      9.21487      1.46173      3.88751        -0.000486      0.000015      0.000056
      4.05256      6.62404      3.88751        -0.000486      0.000015      0.000056
      9.30652      6.71569      3.88751        -0.000486      0.000015      0.000056
      1.38472      3.97554      3.88751         0.000486     -0.000015      0.000056
      6.63868      4.06720      3.88751         0.000486     -0.000015      0.000056
      1.47637      9.22951      3.88751         0.000486     -0.000015      0.000056
      6.73033      9.32116      3.88751         0.000486     -0.000015      0.000056
      0.00000      0.00000      5.22772        -0.000000     -0.000000     -0.000938
      5.25397      0.09165      5.22772        -0.000000     -0.000000     -0.000938
      0.09165      5.25397      5.22772        -0.000000     -0.000000     -0.000938
      5.34562      5.34562      5.22772        -0.000000     -0.000000     -0.000938
      2.62698      0.04583      2.62252        -0.000000     -0.000000     -0.000938
      7.88095      0.13748      2.62252        -0.000000     -0.000000     -0.000938
      2.71864      5.29979      2.62252        -0.000000     -0.000000     -0.000938
      7.97260      5.39144      2.62252        -0.000000     -0.000000     -0.000938
      2.67281      2.67281      0.01731        -0.000000     -0.000000     -0.000938
      7.92678      2.76446      0.01731        -0.000000     -0.000000     -0.000938
      2.76446      7.92678      0.01731        -0.000000     -0.000000     -0.000938
      8.01843      8.01843      0.01731        -0.000000     -0.000000     -0.000938
      0.04583      2.62698      7.83293        -0.000000     -0.000000     -0.000938
      5.29979      2.71864      7.83293        -0.000000     -0.000000     -0.000938
      0.13748      7.88095      7.83293        -0.000000     -0.000000     -0.000938
      5.39144      7.97260      7.83293        -0.000000     -0.000000     -0.000938
      0.00000      0.00000      0.02329        -0.000000     -0.000000      0.000826
      5.25397      0.09165      0.02329        -0.000000     -0.000000      0.000826
      0.09165      5.25397      0.02329        -0.000000     -0.000000      0.000826
      5.34562      5.34562      0.02329        -0.000000     -0.000000      0.000826
      2.62698      0.04583      7.83890        -0.000000     -0.000000      0.000826
      7.88095      0.13748      7.83890        -0.000000     -0.000000      0.000826
      2.71864      5.29979      7.83890        -0.000000     -0.000000      0.000826
      7.97260      5.39144      7.83890        -0.000000     -0.000000      0.000826
      2.67281      2.67281      5.23370        -0.000000     -0.000000      0.000826
      7.92678      2.76446      5.23370        -0.000000     -0.000000      0.000826
      2.76446      7.92678      5.23370        -0.000000     -0.000000      0.000826
      8.01843      8.01843      5.23370        -0.000000     -0.000000      0.000826
      0.04583      2.62698      2.62849        -0.000000     -0.000000      0.000826
      5.29979      2.71864      2.62849        -0.000000     -0.000000      0.000826
      0.13748      7.88095      2.62849        -0.000000     -0.000000      0.000826
      5.39144      7.97260      2.62849        -0.000000     -0.000000      0.000826
 -----------------------------------------------------------------------------------
    total drift:                               -0.000001     -0.000001     -0.034866


--------------------------------------------------------------------------------------------------------



  FREE ENERGIE OF THE ION-ELECTRON SYSTEM (eV)
  ---------------------------------------------------
  free  energy   TOTEN  =      -327.99692620 eV

  energy  without entropy=     -327.99692620  energy(sigma->0) =     -327.99692620
 


--------------------------------------------------------------------------------------------------------


    POTLOK:  cpu time    0.1741: real time    0.1750


--------------------------------------------------------------------------------------------------------


 writing wavefunctions
     LOOP+:  cpu time 6432.9614: real time 6478.3403
    4ORBIT:  cpu time    0.0000: real time    0.0000
 


 total charge     
 
# of ion       s       p       d       tot
------------------------------------------
    1        1.314   2.410   0.000   3.724
    2        1.314   2.410   0.000   3.724
    3        1.314   2.410   0.000   3.724
    4        1.314   2.410   0.000   3.724
    5        1.313   2.410   0.000   3.723
    6        1.313   2.410   0.000   3.723
    7        1.313   2.410   0.000   3.723
    8        1.313   2.410   0.000   3.723
    9        1.314   2.410   0.000   3.724
   10        1.314   2.410   0.000   3.724
   11        1.314   2.410   0.000   3.724
   12        1.314   2.410   0.000   3.724
   13        1.314   2.410   0.000   3.724
   14        1.314   2.410   0.000   3.724
   15        1.314   2.410   0.000   3.724
   16        1.314   2.410   0.000   3.724
   17        1.313   2.410   0.000   3.723
   18        1.313   2.410   0.000   3.723
   19        1.313   2.410   0.000   3.723
   20        1.313   2.410   0.000   3.723
   21        1.314   2.410   0.000   3.724
   22        1.314   2.410   0.000   3.724
   23        1.314   2.410   0.000   3.724
   24        1.314   2.410   0.000   3.724
   25        1.314   2.410   0.000   3.724
   26        1.314   2.410   0.000   3.724
   27        1.314   2.410   0.000   3.724
   28        1.314   2.410   0.000   3.724
   29        1.314   2.410   0.000   3.724
   30        1.314   2.410   0.000   3.724
   31        1.314   2.410   0.000   3.724
   32        1.314   2.410   0.000   3.724
   33        0.260   6.202   8.916  15.378
   34        0.260   6.202   8.916  15.378
   35        0.260   6.202   8.916  15.378
   36        0.260   6.202   8.916  15.378
   37        0.260   6.202   8.916  15.378
   38        0.260   6.202   8.916  15.378
   39        0.260   6.202   8.916  15.378
   40        0.260   6.202   8.916  15.378
   41        0.260   6.202   8.916  15.378
   42        0.260   6.202   8.916  15.378
   43        0.260   6.202   8.916  15.378
   44        0.260   6.202   8.916  15.378
   45        0.260   6.202   8.916  15.378
   46        0.260   6.202   8.916  15.378
   47        0.260   6.202   8.916  15.378
   48        0.260   6.202   8.916  15.378
   49        0.350   6.350   5.820  12.521
   50        0.350   6.350   5.820  12.521
   51        0.350   6.350   5.820  12.521
   52        0.350   6.350   5.820  12.521
   53        0.350   6.350   5.820  12.521
   54        0.350   6.350   5.820  12.521
   55        0.350   6.350   5.820  12.521
   56        0.350   6.350   5.820  12.521
   57        0.350   6.350   5.820  12.521
   58        0.350   6.350   5.820  12.521
   59        0.350   6.350   5.820  12.521
   60        0.350   6.350   5.820  12.521
   61        0.350   6.350   5.820  12.521
   62        0.350   6.350   5.820  12.521
   63        0.350   6.350   5.820  12.521
   64        0.350   6.350   5.820  12.521
--------------------------------------------------
tot         51.789 277.964 235.783 565.536
 


 magnetization (x)
 
# of ion       s       p       d       tot
------------------------------------------
    1       -0.000  -0.008   0.000  -0.009
    2       -0.000  -0.008   0.000  -0.009
    3       -0.000  -0.008   0.000  -0.009
    4       -0.000  -0.008   0.000  -0.009
    5       -0.000  -0.008   0.000  -0.009
    6       -0.000  -0.008   0.000  -0.009
    7       -0.000  -0.008   0.000  -0.009
    8       -0.000  -0.008   0.000  -0.009
    9        0.000   0.008   0.000   0.009
   10        0.000   0.008   0.000   0.009
   11        0.000   0.008   0.000   0.009
   12        0.000   0.008   0.000   0.009
   13        0.000   0.008   0.000   0.009
   14        0.000   0.008   0.000   0.009
   15        0.000   0.008   0.000   0.009
   16        0.000   0.008   0.000   0.009
   17       -0.000  -0.008   0.000  -0.009
   18       -0.000  -0.008   0.000  -0.009
   19       -0.000  -0.008   0.000  -0.009
   20       -0.000  -0.008   0.000  -0.009
   21       -0.000  -0.008   0.000  -0.009
   22       -0.000  -0.008   0.000  -0.009
   23       -0.000  -0.008   0.000  -0.009
   24       -0.000  -0.008   0.000  -0.009
   25        0.000   0.008   0.000   0.009
   26        0.000   0.008   0.000   0.009
   27        0.000   0.008   0.000   0.009
   28        0.000   0.008   0.000   0.009
   29        0.000   0.008   0.000   0.009
   30        0.000   0.008   0.000   0.009
   31        0.000   0.008   0.000   0.009
   32        0.000   0.008   0.000   0.009
   33        0.000   0.000  -0.000   0.000
   34        0.000   0.000  -0.000   0.000
   35        0.000   0.000  -0.000   0.000
   36        0.000   0.000  -0.000   0.000
   37       -0.000  -0.000   0.000  -0.001
   38       -0.000  -0.000   0.000  -0.001
   39       -0.000  -0.000   0.000  -0.001
   40       -0.000  -0.000   0.000  -0.001
   41        0.000   0.000  -0.000   0.000
   42        0.000   0.000  -0.000   0.000
   43        0.000   0.000  -0.000   0.000
   44        0.000   0.000  -0.000   0.000
   45       -0.000  -0.000   0.000  -0.001
   46       -0.000  -0.000   0.000  -0.001
   47       -0.000  -0.000   0.000  -0.001
   48       -0.000  -0.000   0.000  -0.001
   49        0.020   0.054   3.671   3.744
   50        0.020   0.054   3.671   3.744
   51        0.020   0.054   3.671   3.744
   52        0.020   0.054   3.671   3.744
   53       -0.020  -0.054  -3.671  -3.744
   54       -0.020  -0.054  -3.671  -3.744
   55       -0.020  -0.054  -3.671  -3.744
   56       -0.020  -0.054  -3.671  -3.744
   57        0.020   0.054   3.671   3.744
   58        0.020   0.054   3.671   3.744
   59        0.020   0.054   3.671   3.744
   60        0.020   0.054   3.671   3.744
   61       -0.020  -0.054  -3.671  -3.744
   62       -0.020  -0.054  -3.671  -3.744
   63       -0.020  -0.054  -3.671  -3.744
   64       -0.020  -0.054  -3.671  -3.744
--------------------------------------------------
tot         -0.001   0.001  -0.000  -0.000
 
 BZINTS: Fermi energy:  4.942017;688.000000 electrons
         Band energy:***********;  BLOECHL correction:  0.000000

 total amount of memory used by VASP MPI-rank0   664114. kBytes
=======================================================================

   base      :      30000. kBytes
   nonl-proj :     491069. kBytes
   fftplans  :       4588. kBytes
   grid      :      69719. kBytes
   one-center:       1990. kBytes
   wavefun   :      66748. kBytes
 
  
  
 General timing and accounting informations for this job:
 ========================================================
  
                  Total CPU time used (sec):     6550.486
                            User time (sec):     6533.379
                          System time (sec):       17.107
                         Elapsed time (sec):     6597.847
  
                   Maximum memory used (kb):     1153140.
                   Average memory used (kb):           0.
  
                          Minor page faults:      1021277
                          Major page faults:         6306
                 Voluntary context switches:         7469
