       N       E                     dE             d eps       ncg     rms          ort
SDA:   1    -0.817372312342E+02   -0.81737E+02    0.00000E+00  4784   0.515E-06 0.000E+00
CGA:   2    -0.817372313439E+02   -0.10973E-06   -0.15461E-08  4784   0.470E-06 0.494E-06
CGA:   3    -0.817372314414E+02   -0.97556E-07   -0.14303E-08  4784   0.430E-06 0.452E-06
CGA:   4    -0.817372315294E+02   -0.87972E-07   -0.13458E-08  4784   0.395E-06 0.414E-06
CGA:   5    -0.817372316101E+02   -0.80709E-07   -0.12895E-08  4784   0.363E-06 0.380E-06
CGA:   6    -0.817372316854E+02   -0.75272E-07   -0.12599E-08  4784   0.333E-06 0.349E-06
CGA:   7    -0.817372317569E+02   -0.71530E-07   -0.12572E-08  4784   0.305E-06 0.320E-06
CGA:   8    -0.817372318260E+02   -0.69109E-07   -0.12823E-08  4784   0.278E-06 0.292E-06
CGA:   9    -0.817372318940E+02   -0.67988E-07   -0.13381E-08  4784   0.251E-06 0.265E-06
CGA:  10    -0.817372319620E+02   -0.68017E-07   -0.14282E-08  4784   0.225E-06 0.238E-06
CGA:  11    -0.817372320307E+02   -0.68640E-07   -0.15563E-08  4784   0.197E-06 0.211E-06
CGA:  12    -0.817372321010E+02   -0.70339E-07   -0.17195E-08  4784   0.169E-06 0.183E-06
CGA:  13    -0.817372321742E+02   -0.73174E-07   -0.18870E-08  4784   0.141E-06 0.154E-06
CGA:  14    -0.817372322553E+02   -0.81140E-07   -0.19483E-08  4784   0.113E-06 0.126E-06
CGA:  15    -0.817372323567E+02   -0.10136E-06   -0.15925E-08  4784   0.922E-07 0.102E-06
CGA:  16    -0.817372324705E+02   -0.11384E-06   -0.81271E-09  4784   0.808E-07 0.862E-07
CGA:  17    -0.817372325808E+02   -0.11030E-06   -0.38445E-09  4784   0.745E-07 0.775E-07
CGA:  18    -0.817372326847E+02   -0.10392E-06   -0.22011E-09  4784   0.702E-07 0.723E-07
CGA:  19    -0.817372327807E+02   -0.95990E-07   -0.14324E-09  4784   0.670E-07 0.685E-07
CGA:  20    -0.817372328707E+02   -0.89933E-07   -0.10365E-09  4784   0.643E-07 0.656E-07
CGA:  21    -0.817372329421E+02   -0.71439E-07   -0.68239E-10  4784   0.623E-07 0.632E-07
CGA:  22    -0.817372329993E+02   -0.57216E-07   -0.48068E-10  4784   0.608E-07 0.615E-07
CGA:  23    -0.817372330453E+02   -0.45982E-07   -0.35205E-10  4784   0.597E-07 0.602E-07
CGA:  24    -0.817372330848E+02   -0.39492E-07   -0.28170E-10  4784   0.587E-07 0.591E-07
CGA:  25    -0.817372331192E+02   -0.34448E-07   -0.23230E-10  4784   0.579E-07 0.582E-07
CGA:  26    -0.817372331495E+02   -0.30286E-07   -0.19534E-10  4784   0.571E-07 0.575E-07
CGA:  27    -0.817372331765E+02   -0.26970E-07   -0.16663E-10  4784   0.565E-07 0.568E-07
CGA:  28    -0.817372332004E+02   -0.23951E-07   -0.14377E-10  4784   0.560E-07 0.562E-07
CGA:  29    -0.817372332219E+02   -0.21450E-07   -0.12528E-10  4784   0.555E-07 0.557E-07
CGA:  30    -0.817372332413E+02   -0.19400E-07   -0.11013E-10  4784   0.550E-07 0.552E-07
CGA:  31    -0.817372332588E+02   -0.17490E-07   -0.97576E-11  4784   0.546E-07 0.548E-07
CGA:  32    -0.817372332747E+02   -0.15893E-07   -0.87126E-11  4784   0.543E-07 0.544E-07
CGA:  33    -0.817372332893E+02   -0.14597E-07   -0.78398E-11  4784   0.539E-07 0.541E-07
CGA:  34    -0.817372333027E+02   -0.13395E-07   -0.71095E-11  4784   0.536E-07 0.538E-07
CGA:  35    -0.817372333151E+02   -0.12400E-07   -0.65017E-11  4784   0.534E-07 0.535E-07
CGA:  36    -0.817372333266E+02   -0.11565E-07   -0.60014E-11  4784   0.531E-07 0.532E-07
CGA:  37    -0.817372333376E+02   -0.10916E-07   -0.55982E-11  4784   0.529E-07 0.530E-07
CGA:  38    -0.817372333480E+02   -0.10457E-07   -0.52864E-11  4784   0.526E-07 0.527E-07
CGA:  39    -0.817372333581E+02   -0.10095E-07   -0.50667E-11  4784   0.524E-07 0.525E-07
CGA:  40    -0.817372333680E+02   -0.99390E-08   -0.49476E-11  4784   0.522E-07 0.523E-07
   1 F= -.81737233E+02 E0= -.81737233E+02  d E =0.000000E+00  mag=    -0.0000    -0.0000     0.0000
