 vasp.5.4.4.18Apr17-6-g9f103f2a35 (build Oct 04 2018 15:53:47) complex          
  
 executed on             LinuxIFC date 2022.10.07  15:46:26
 running on  256 total cores
 distrk:  each k-point on  256 cores,    1 groups
 distr:  one band on NCORES_PER_BAND=  32 cores,    8 groups


--------------------------------------------------------------------------------------------------------


 INCAR:
 POTCAR:    PAW_PBE S 06Sep2000                   
 POTCAR:     PAW_PBE Cu_pv 06Sep2000              
 POTCAR:     PAW_PBE Fe_pv 02Aug2007              
 POTCAR:    PAW_PBE S 06Sep2000                   
   SHA256 =  0fc7481fb0695f01bdc6462160264c5c84044ae9ec85a907d398b887a2bc3132 S/
   COPYR  = (c) Copyright 06Sep2000 Georg Kresse                                
   COPYR  = This file is part of the software VASP. Any use, copying, and all ot
   COPYR  = If you do not have a valid VASP license, you may not use, copy or di
   VRHFIN =S : s2p4                                                             
   LEXCH  = PE                                                                  
   EATOM  =   276.8230 eV,   20.3459 Ry                                         
                                                                                
   TITEL  = PAW_PBE S 06Sep2000                                                 
   LULTRA =        F    use ultrasoft PP ?                                      
   IUNSCR =        1    unscreen: 0-lin 1-nonlin 2-no                           
   RPACOR =    1.500    partial core radius                                     
   POMASS =   32.066; ZVAL   =    6.000    mass and valenz                      
   RCORE  =    1.900    outmost cutoff radius                                   
   RWIGS  =    2.200; RWIGS  =    1.164    wigner-seitz radius (au A)           
   ENMAX  =  258.689; ENMIN  =  194.016 eV                                      
   ICORE  =        2    local potential                                         
   LCOR   =        T    correct aug charges                                     
   LPAW   =        T    paw PP                                                  
   EAUG   =  335.092                                                            
   DEXC   =    0.000                                                            
   RMAX   =    1.942    core radius for proj-oper                               
   RAUG   =    1.300    factor for augmentation sphere                          
   RDEP   =    1.954    radius for radial grids                                 
   RDEPT  =    1.744    core radius for aug-charge                              
                                                                                
   Atomic configuration                                                         
    6 entries                                                                   
     n  l   j            E        occ.                                          
     1  0  0.50     -2405.8406   2.0000                                         
     2  0  0.50      -211.7007   2.0000                                         
     2  1  1.50      -156.4958   6.0000                                         
     3  0  0.50       -17.2562   2.0000                                         
     3  1  0.50        -7.0085   4.0000                                         
     3  2  1.50        -6.8029   0.0000                                         
   Description                                                                  
     l       E           TYP  RCUT    TYP  RCUT                                 
     0    -17.2561641     23  1.900                                             
     0    -15.8743224     23  1.900                                             
     1     -7.0085400     23  1.900                                             
     1     -2.7779785     23  1.900                                             
     2     -6.8029130     23  1.900                                             
  local pseudopotential read in
  partial core-charges read in
  partial kinetic energy density read in
  atomic valenz-charges read in
  non local Contribution for L=           0  read in
    real space projection operators read in
  non local Contribution for L=           0  read in
    real space projection operators read in
  non local Contribution for L=           1  read in
    real space projection operators read in
  non local Contribution for L=           1  read in
    real space projection operators read in
    PAW grid and wavefunctions read in
 
   number of l-projection  operators is LMAX  =           4
   number of lm-projection operators is LMMAX =           8
 
 POTCAR:     PAW_PBE Cu_pv 06Sep2000              
   SHA256 =  cb7b504e2ea725fe1f25c85a9ac77d4012ce94cd394135b722c4e25ec297f1cb Cu
   COPYR  = (c) Copyright 06Sep2000 Georg Kresse                                
   COPYR  = This file is part of the software VASP. Any use, copying, and all ot
   COPYR  = If you do not have a valid VASP license, you may not use, copy or di
   VRHFIN =Cu: d10 p1                                                           
   LEXCH  = PE                                                                  
   EATOM  =  4120.1201 eV,  302.8203 Ry                                         
                                                                                
   TITEL  = PAW_PBE Cu_pv 06Sep2000                                             
   LULTRA =        F    use ultrasoft PP ?                                      
   IUNSCR =        1    unscreen: 0-lin 1-nonlin 2-no                           
   RPACOR =    1.500    partial core radius                                     
   POMASS =   63.546; ZVAL   =   17.000    mass and valenz                      
   RCORE  =    2.000    outmost cutoff radius                                   
   RWIGS  =    2.000; RWIGS  =    1.058    wigner-seitz radius (au A)           
   ENMAX  =  368.648; ENMIN  =  276.486 eV                                      
   RCLOC  =    1.304    cutoff for local pot                                    
   LCOR   =        T    correct aug charges                                     
   LPAW   =        T    paw PP                                                  
   EAUG   =  758.233                                                            
   DEXC   =    0.000                                                            
   RMAX   =    2.046    core radius for proj-oper                               
   RAUG   =    1.300    factor for augmentation sphere                          
   RDEP   =    2.025    radius for radial grids                                 
   RDEPT  =    1.558    core radius for aug-charge                              
                                                                                
   Atomic configuration                                                         
    8 entries                                                                   
     n  l   j            E        occ.                                          
     1  0  0.50     -8850.2467   2.0000                                         
     2  0  0.50     -1062.3498   2.0000                                         
     2  1  1.50      -916.8226   6.0000                                         
     3  0  0.50      -114.6929   2.0000                                         
     3  1  1.50       -72.1325   6.0000                                         
     3  2  2.50        -5.0394  10.0000                                         
     4  0  0.50        -4.6097   1.0000                                         
     4  3  2.50        -1.3606   0.0000                                         
   Description                                                                  
     l       E           TYP  RCUT    TYP  RCUT                                 
     1    -72.1324777     23  1.700                                             
     1     -1.3605826     23  1.700                                             
     2     -5.0393776     23  2.000                                             
     2     -6.3999602     23  2.000                                             
     0     -4.6097062     23  1.800                                             
     0     14.1620818     23  1.800                                             
  local pseudopotential read in
  partial core-charges read in
  partial kinetic energy density read in
  atomic valenz-charges read in
  non local Contribution for L=           1  read in
    real space projection operators read in
  non local Contribution for L=           1  read in
    real space projection operators read in
  non local Contribution for L=           2  read in
    real space projection operators read in
  non local Contribution for L=           2  read in
    real space projection operators read in
  non local Contribution for L=           0  read in
    real space projection operators read in
  non local Contribution for L=           0  read in
    real space projection operators read in
    PAW grid and wavefunctions read in
 
   number of l-projection  operators is LMAX  =           6
   number of lm-projection operators is LMMAX =          18
 
 POTCAR:     PAW_PBE Fe_pv 02Aug2007              
   SHA256 =  5d22e414b1f82158bf2c7ecb8b97b28fd0923e48cadc1c3bf74d524558f5dd32 Fe
   COPYR  = (c) Copyright 02Aug2007 Georg Kresse                                
   COPYR  = This file is part of the software VASP. Any use, copying, and all ot
   COPYR  = If you do not have a valid VASP license, you may not use, copy or di
   VRHFIN =Fe:  3pd7s1                                                          
   LEXCH  = PE                                                                  
   EATOM  =  2457.4239 eV,  180.6156 Ry                                         
                                                                                
   TITEL  = PAW_PBE Fe_pv 02Aug2007                                             
   LULTRA =        F    use ultrasoft PP ?                                      
   IUNSCR =        1    unscreen: 0-lin 1-nonlin 2-no                           
   RPACOR =    1.750    partial core radius                                     
   POMASS =   55.847; ZVAL   =   14.000    mass and valenz                      
   RCORE  =    2.200    outmost cutoff radius                                   
   RWIGS  =    2.200; RWIGS  =    1.164    wigner-seitz radius (au A)           
   ENMAX  =  293.238; ENMIN  =  219.928 eV                                      
   ICORE  =        3    local potential                                         
   LCOR   =        T    correct aug charges                                     
   LPAW   =        T    paw PP                                                  
   EAUG   =  578.342                                                            
   DEXC   =    0.000                                                            
   RMAX   =    2.249    core radius for proj-oper                               
   RAUG   =    1.300    factor for augmentation sphere                          
   RDEP   =    2.296    radius for radial grids                                 
   RDEPT  =    1.766    core radius for aug-charge                              
                                                                                
   Atomic configuration                                                         
    8 entries                                                                   
     n  l   j            E        occ.                                          
     1  0  0.50     -6993.8440   2.0000                                         
     2  0  0.50      -814.6047   2.0000                                         
     2  1  1.50      -693.3689   6.0000                                         
     3  0  0.50       -89.4732   2.0000                                         
     3  1  1.50       -55.6373   6.0000                                         
     3  2  2.50        -3.8151   7.0000                                         
     4  0  0.50        -4.2551   1.0000                                         
     4  3  2.50        -1.3606   0.0000                                         
   Description                                                                  
     l       E           TYP  RCUT    TYP  RCUT                                 
     1    -55.6372668     23  2.000                                             
     1     -5.4423304     23  2.000                                             
     2     -3.8151096     23  2.200                                             
     2     -5.1756922     23  2.200                                             
     0     -4.2550951     23  2.200                                             
     0     27.2116520     23  2.200                                             
     3     -1.3605826     23  2.200                                             
  local pseudopotential read in
  partial core-charges read in
  partial kinetic energy density read in
  atomic valenz-charges read in
  non local Contribution for L=           1  read in
    real space projection operators read in
  non local Contribution for L=           1  read in
    real space projection operators read in
  non local Contribution for L=           2  read in
    real space projection operators read in
  non local Contribution for L=           2  read in
    real space projection operators read in
  non local Contribution for L=           0  read in
    real space projection operators read in
  non local Contribution for L=           0  read in
    real space projection operators read in
    PAW grid and wavefunctions read in
 
   number of l-projection  operators is LMAX  =           6
   number of lm-projection operators is LMMAX =          18
 

 ----------------------------------------------------------------------------- 
|                                                                             |
|  ADVICE TO THIS USER RUNNING 'VASP/VAMP'   (HEAR YOUR MASTER'S VOICE ...):  |
|                                                                             |
|      You enforced a specific xc-type in the INCAR file,                     |
|      a different type was found on the POTCAR file                          |
|          I HOPE YOU KNOW, WHAT YOU ARE  DOING                               |
|                                                                             |
 ----------------------------------------------------------------------------- 

  PAW_PBE S 06Sep2000                   :
 energy of atom  1       EATOM= -276.8230
 kinetic energy error for atom=    0.0007 (will be added to EATOM!!)
   PAW_PBE Cu_pv 06Sep2000              :
 energy of atom  2       EATOM=-4120.1201
 kinetic energy error for atom=    0.0094 (will be added to EATOM!!)
   PAW_PBE Fe_pv 02Aug2007              :
 energy of atom  3       EATOM=-2457.4239
 kinetic energy error for atom=    0.0025 (will be added to EATOM!!)
 
 
 POSCAR: sm_isp_SD0310437-standardized_unitcell  
  positions in direct lattice
  velocities in cartesian coordinates
 exchange correlation table for  LEXCH =       14
   RHO(1)=    0.500       N(1)  =     2000
   RHO(2)=  100.500       N(2)  =     4000
 


--------------------------------------------------------------------------------------------------------


 ion  position               nearest neighbor table
   1  0.253  0.250  0.125-  10 2.24  11 2.24  13 2.26  16 2.26
   2  0.747  0.750  0.125-  10 2.24  11 2.24  13 2.26  16 2.26
   3  0.250  0.747  0.875-  11 2.24  12 2.24  13 2.26  14 2.26
   4  0.750  0.253  0.875-  11 2.24  12 2.24  13 2.26  14 2.26
   5  0.247  0.250  0.625-   9 2.24  12 2.24  14 2.26  15 2.26
   6  0.753  0.750  0.625-   9 2.24  12 2.24  14 2.26  15 2.26
   7  0.750  0.247  0.375-   9 2.24  10 2.24  15 2.26  16 2.26
   8  0.250  0.753  0.375-   9 2.24  10 2.24  15 2.26  16 2.26
   9  0.000  0.000  0.500-   5 2.24   7 2.24   6 2.24   8 2.24
  10  0.500  0.000  0.250-   7 2.24   1 2.24   2 2.24   8 2.24
  11  0.500  0.500  0.000-   1 2.24   4 2.24   3 2.24   2 2.24
  12  0.000  0.500  0.750-   5 2.24   4 2.24   3 2.24   6 2.24
  13  0.000  0.000  0.000-   2 2.26   3 2.26   1 2.26   4 2.26
  14  0.500  0.000  0.750-   3 2.26   6 2.26   4 2.26   5 2.26
  15  0.500  0.500  0.500-   6 2.26   8 2.26   7 2.26   5 2.26
  16  0.000  0.500  0.250-   2 2.26   8 2.26   1 2.26   7 2.26
 
  LATTYP: Found a simple tetragonal cell.
 ALAT       =     4.9958463727
 C/A-ratio  =     2.2403509917
  
  Lattice vectors:
  
 A1 = (   4.9958463727,   0.0000000000,   0.0000000000)
 A2 = (   0.0000000000,   4.9958463727,   0.0000000000)
 A3 = (   0.0000000000,   0.0000000000,  11.1924493753)


Analysis of symmetry for initial positions (statically):
=====================================================================
 Subroutine PRICEL returns following result:
 
  LATTYP: Found a body centered tetragonal cell.
 ALAT       =     4.9958463727
 C/A-ratio  =     2.2403509917
  
  Lattice vectors:
  
 A1 = (   2.4979231864,  -2.4979231864,   5.5962246877)
 A2 = (  -2.4979231864,   2.4979231864,   5.5962246877)
 A3 = (  -2.4979231864,  -2.4979231864,  -5.5962246877)
 
   2 primitive cells build up your supercell.
 

 Routine SETGRP: Setting up the symmetry group for a 
 simple tetragonal supercell.


 Subroutine GETGRP returns: Found  8 space group operations
 (whereof  4 operations were pure point group operations)
 out of a pool of 16 trial point group operations.


The static configuration has the point symmetry S_4 .
 The point group associated with its full space group is D_2d.


Analysis of symmetry for dynamics (positions and initial velocities):
=====================================================================
 Subroutine PRICEL returns following result:
 
  LATTYP: Found a body centered tetragonal cell.
 ALAT       =     4.9958463727
 C/A-ratio  =     2.2403509917
  
  Lattice vectors:
  
 A1 = (   2.4979231864,  -2.4979231864,   5.5962246877)
 A2 = (  -2.4979231864,   2.4979231864,   5.5962246877)
 A3 = (  -2.4979231864,  -2.4979231864,  -5.5962246877)
 
   2 primitive cells build up your supercell.
 

 Routine SETGRP: Setting up the symmetry group for a 
 simple tetragonal supercell.


 Subroutine GETGRP returns: Found  8 space group operations
 (whereof  4 operations were pure point group operations)
 out of a pool of 16 trial point group operations.


The dynamic configuration has the point symmetry S_4 .
 The point group associated with its full space group is D_2d.


Analysis of structural, dynamic, and magnetic symmetry:
=====================================================================
 Subroutine PRICEL returns following result:
 
  LATTYP: Found a body centered tetragonal cell.
 ALAT       =     4.9958463727
 C/A-ratio  =     2.2403509917
  
  Lattice vectors:
  
 A1 = (   2.4979231864,  -2.4979231864,   5.5962246877)
 A2 = (  -2.4979231864,   2.4979231864,   5.5962246877)
 A3 = (  -2.4979231864,  -2.4979231864,  -5.5962246877)
 
   2 primitive cells build up your supercell.
 

 Routine SETGRP: Setting up the symmetry group for a 
 simple tetragonal supercell.


 Subroutine GETGRP returns: Found  8 space group operations
 (whereof  4 operations were pure point group operations)
 out of a pool of 16 trial point group operations.


The (compounded) configuration has the point symmetry S_4 .
 The point group associated with its full space group is D_2d.


 Subroutine INISYM returns: Found  8 space group operations
 (whereof  4 operations are pure point group operations),
 and found     2 'primitive' translations

 
 
 KPOINTS: Automatic mesh                          

Automatic generation of k-mesh.
Space group operators:
 irot       det(A)        alpha          n_x          n_y          n_z        tau_x        tau_y        tau_z
    1     1.000000     0.000001     1.000000     0.000000     0.000000     0.000000     0.000000     0.000000
    2    -1.000000    90.000000     0.000000     0.000000    -1.000000     0.000000     0.000000     0.000000
    3     1.000000   180.000000     0.000000     0.000000     1.000000     0.000000     0.000000     0.000000
    4    -1.000000    90.000000     0.000000     0.000000     1.000000     0.000000     0.000000     0.000000
    5     1.000000   180.000000     0.000000     1.000000     0.000000     0.000000    -0.500000     0.250000
    6    -1.000000   180.000000     0.707107     0.707107     0.000000     0.000000    -0.500000     0.250000
    7     1.000000   180.000000     1.000000     0.000000     0.000000     0.000000    -0.500000     0.250000
    8    -1.000000   180.000000     0.707107    -0.707107     0.000000     0.000000    -0.500000     0.250000
 
 Subroutine IBZKPT returns following result:
 ===========================================
 
 Found     23 irreducible k-points:
 
 Following reciprocal coordinates:
            Coordinates               Weight
  0.000000  0.000000  0.000000      1.000000
  0.166667  0.000000  0.000000      4.000000
  0.333333  0.000000  0.000000      4.000000
  0.500000  0.000000  0.000000      2.000000
  0.166667  0.166667  0.000000      4.000000
  0.333333  0.166667  0.000000      8.000000
  0.500000  0.166667  0.000000      4.000000
  0.333333  0.333333  0.000000      4.000000
  0.500000  0.333333  0.000000      4.000000
  0.500000  0.500000  0.000000      1.000000
  0.000000  0.000000  0.333333      2.000000
  0.166667  0.000000  0.333333      8.000000
  0.333333  0.000000  0.333333      8.000000
  0.500000  0.000000  0.333333      4.000000
  0.166667  0.166667  0.333333      4.000000
  0.333333  0.166667  0.333333      8.000000
  0.500000  0.166667  0.333333      8.000000
 -0.333333  0.166667  0.333333      8.000000
 -0.166667  0.166667  0.333333      4.000000
  0.333333  0.333333  0.333333      4.000000
  0.500000  0.333333  0.333333      8.000000
 -0.333333  0.333333  0.333333      4.000000
  0.500000  0.500000  0.333333      2.000000
 
 Following cartesian coordinates:
            Coordinates               Weight
  0.000000  0.000000  0.000000      1.000000
  0.033361  0.000000  0.000000      4.000000
  0.066722  0.000000  0.000000      4.000000
  0.100083  0.000000  0.000000      2.000000
  0.033361  0.033361  0.000000      4.000000
  0.066722  0.033361  0.000000      8.000000
  0.100083  0.033361  0.000000      4.000000
  0.066722  0.066722  0.000000      4.000000
  0.100083  0.066722  0.000000      4.000000
  0.100083  0.100083  0.000000      1.000000
  0.000000  0.000000  0.029782      2.000000
  0.033361  0.000000  0.029782      8.000000
  0.066722  0.000000  0.029782      8.000000
  0.100083  0.000000  0.029782      4.000000
  0.033361  0.033361  0.029782      4.000000
  0.066722  0.033361  0.029782      8.000000
  0.100083  0.033361  0.029782      8.000000
 -0.066722  0.033361  0.029782      8.000000
 -0.033361  0.033361  0.029782      4.000000
  0.066722  0.066722  0.029782      4.000000
  0.100083  0.066722  0.029782      8.000000
 -0.066722  0.066722  0.029782      4.000000
  0.100083  0.100083  0.029782      2.000000
 
 TETIRR: Found    274 inequivalent tetrahedra from      648


--------------------------------------------------------------------------------------------------------




 Dimension of arrays:
   k-points           NKPTS =     23   k-points in BZ     NKDIM =     23   number of bands    NBANDS=    208
   number of dos      NEDOS =    301   number of ions     NIONS =     16
   non local maximal  LDIM  =      6   non local SUM 2l+1 LMDIM =     18
   total plane-waves  NPLWV = 225792
   max r-space proj   IRMAX =      1   max aug-charges    IRDMAX=  25662
   dimension x,y,z NGX =    48 NGY =   48 NGZ =   98
   dimension x,y,z NGXF=    96 NGYF=   96 NGZF=  196
   support grid    NGXF=    96 NGYF=   96 NGZF=  196
   ions per type =               8   4   4
   NGX,Y,Z   is equivalent  to a cutoff of  15.97, 15.97, 14.56 a.u.
   NGXF,Y,Z  is equivalent  to a cutoff of  31.95, 31.95, 29.11 a.u.

 SYSTEM =  CuFeS2                                  
 POSCAR =  sm_isp_SD0310437-standardized_unitcell  

 Startparameter for this run:
   NWRITE =      2    write-flag & timer
   PREC   = accura    normal or accurate (medium, high low for compatibility)
   ISTART =      1    job   : 0-new  1-cont  2-samecut
   ICHARG =      1    charge: 1-file 2-atom 10-const
   ISPIN  =      1    spin polarized calculation?
   LNONCOLLINEAR =      T non collinear calculations
   LSORBIT =      F    spin-orbit coupling
   INIWAV =      1    electr: 0-lowe 1-rand  2-diag
   LASPH  =      T    aspherical Exc in radial PAW
   METAGGA=      F    non-selfconsistent MetaGGA calc.

 Electronic Relaxation 1
   ENCUT  =  700.0 eV  51.45 Ry    7.17 a.u.  10.78 10.78 24.15*2*pi/ulx,y,z
   ENINI  =  700.0     initial cutoff
   ENAUG  =  758.2 eV  augmentation charge cutoff
   NELM   =    200;   NELMIN=  2; NELMDL=  0     # of ELM steps 
   EDIFF  = 0.1E-07   stopping-criterion for ELM
   LREAL  =      F    real-space projection
   NLSPLINE    = F    spline interpolate recip. space projectors
   LCOMPAT=      F    compatible to vasp.4.4
   GGA_COMPAT  = T    GGA compatible to vasp.4.4-vasp.4.6
   LMAXPAW     = -100 max onsite density
   LMAXMIX     =    4 max onsite mixed and CHGCAR
   VOSKOWN=      0    Vosko Wilk Nusair interpolation
   ROPT   =    0.00000   0.00000   0.00000
 Ionic relaxation
   EDIFFG = -.1E-04   stopping-criterion for IOM
   NSW    =      0    number of steps for IOM
   NBLOCK =      1;   KBLOCK =      1    inner block; outer block 
   IBRION =     -1    ionic relax: 0-MD 1-quasi-New 2-CG
   NFREE  =      0    steps in history (QN), initial steepest desc. (CG)
   ISIF   =      2    stress and relaxation
   IWAVPR =     10    prediction:  0-non 1-charg 2-wave 3-comb
   ISYM   =      1    0-nonsym 1-usesym 2-fastsym
   LCORR  =      T    Harris-Foulkes like correction to forces

   POTIM  = 0.1000    time-step for ionic-motion
   TEIN   =    0.0    initial temperature
   TEBEG  =    0.0;   TEEND  =   0.0 temperature during run
   SMASS  =  -3.00    Nose mass-parameter (am)
   estimated Nose-frequenzy (Omega)   =  0.10E-29 period in steps =****** mass=  -0.570E-27a.u.
   SCALEE = 1.0000    scale energy and forces
   NPACO  =    256;   APACO  = 16.0  distance and # of slots for P.C.
   PSTRESS=    0.0 pullay stress

  Mass of Ions in am
   POMASS =  32.07 63.55 55.85
  Ionic Valenz
   ZVAL   =   6.00 17.00 14.00
  Atomic Wigner-Seitz radii
   RWIGS  =  -1.00 -1.00 -1.00
  virtual crystal weights 
   VCA    =   1.00  1.00  1.00
   NELECT =     172.0000    total number of electrons
   NUPDOWN=      -1.0000    fix difference up-down

 DOS related values:
   EMIN   =  10.00;   EMAX   =-10.00  energy-range for DOS
   EFERMI =   0.00
   ISMEAR =    -5;   SIGMA  =   0.03  broadening in eV -4-tet -1-fermi 0-gaus

 Electronic relaxation 2 (details)
   IALGO  =     58    algorithm
   LDIAG  =      T    sub-space diagonalisation (order eigenvalues)
   LSUBROT=      F    optimize rotation matrix (better conditioning)
   TURBO    =      0    0=normal 1=particle mesh
   IRESTART =      0    0=no restart 2=restart with 2 vectors
   NREBOOT  =      0    no. of reboots
   NMIN     =      0    reboot dimension
   EREF     =   0.00    reference energy to select bands
   IMIX   =      4    mixing-type and parameters
     AMIX     =   0.40;   BMIX     =  1.00
     AMIX_MAG =   1.60;   BMIX_MAG =  1.00
     AMIN     =   0.10
     WC   =   100.;   INIMIX=   1;  MIXPRE=   1;  MAXMIX= -45

 Intra band minimization:
   WEIMIN = 0.0000     energy-eigenvalue tresh-hold
   EBREAK =  0.12E-10  absolut break condition
   DEPER  =   0.30     relativ break condition  

   TIME   =   0.40     timestep for ELM

  volume/ion in A,a.u.               =      17.46       117.82
  Fermi-wavevector in a.u.,A,eV,Ry     =   1.392739  2.631896 26.391537  1.939723
  Thomas-Fermi vector in A             =   2.516453
 
 Write flags
   LWAVE        =      T    write WAVECAR
   LDOWNSAMPLE  =      F    k-point downsampling of WAVECAR
   LCHARG       =      T    write CHGCAR
   LVTOT        =      F    write LOCPOT, total local potential
   LVHAR        =      F    write LOCPOT, Hartree potential only
   LELF         =      F    write electronic localiz. function (ELF)
   LORBIT       =     11    0 simple, 1 ext, 2 COOP (PROOUT), +10 PAW based schemes


 Dipole corrections
   LMONO  =      F    monopole corrections only (constant potential shift)
   LDIPOL =      F    correct potential (dipole corrections)
   IDIPOL =      0    1-x, 2-y, 3-z, 4-all directions 
   EPSILON=  1.0000000 bulk dielectric constant

 LDA+U is selected, type is set to LDAUTYPE =  2
   angular momentum for each species LDAUL =     2    2    2
   U (eV)           for each species LDAUU =   0.0  0.1  4.7
   J (eV)           for each species LDAUJ =   0.0  0.0  0.0
 Exchange correlation treatment:
   GGA     =    PS    GGA type
   LEXCH   =    14    internal setting for exchange type
   VOSKOWN=      0    Vosko Wilk Nusair interpolation
   LHFCALC =     F    Hartree Fock is set to
   LHFONE  =     F    Hartree Fock one center treatment
   AEXX    =    0.0000 exact exchange contribution

 Linear response parameters
   LEPSILON=     F    determine dielectric tensor
   LRPA    =     F    only Hartree local field effects (RPA)
   LNABLA  =     F    use nabla operator in PAW spheres
   LVEL    =     F    velocity operator in full k-point grid
   LINTERFAST=   F  fast interpolation
   KINTER  =     0    interpolate to denser k-point grid
   CSHIFT  =0.1000    complex shift for real part using Kramers Kronig
   OMEGAMAX=  -1.0    maximum frequency
   DEG_THRESHOLD= 0.2000000E-02 threshold for treating states as degnerate
   RTIME   =   -0.100 relaxation time in fs
  (WPLASMAI=    0.000 imaginary part of plasma frequency in eV, 0.658/RTIME)
   DFIELD  = 0.0000000 0.0000000 0.0000000 field for delta impulse in time
 
 Orbital magnetization related:
   ORBITALMAG=     F  switch on orbital magnetization
   LCHIMAG   =     F  perturbation theory with respect to B field
   DQ        =  0.001000  dq finite difference perturbation B field
   LLRAUG    =     F  two centre corrections for induced B field



--------------------------------------------------------------------------------------------------------


 Static calculation
 charge density and potential will be updated during run
 non collinear spin polarized calculation
 Conjugate gradient for all bands (Freysoldt, et al. PRB 79, 241103 (2009))
 preconditioned conjugated gradient                                        
 perform sub-space diagonalisation
    before iterative eigenvector-optimisation
 modified Broyden-mixing scheme, WC =      100.0
 initial mixing is a Kerker type mixing with AMIX =  0.4000 and BMIX =      1.0000
 Hartree-type preconditioning will be used
 using additional bands          122
 reciprocal scheme for non local part
 use partial core corrections
 no Harris-corrections to forces 
 use gradient corrections 
 use of overlap-Matrix (Vanderbilt PP)
 Fermi weights with tetrahedron method with Bloechl corrections


--------------------------------------------------------------------------------------------------------


  energy-cutoff  :      700.00
  volume of cell :      279.35
      direct lattice vectors                 reciprocal lattice vectors
     4.995846373  0.000000000  0.000000000     0.200166283  0.000000000  0.000000000
     0.000000000  4.995846373  0.000000000     0.000000000  0.200166283  0.000000000
     0.000000000  0.000000000 11.192449375     0.000000000  0.000000000  0.089345948

  length of vectors
     4.995846373  4.995846373 11.192449375     0.200166283  0.200166283  0.089345948


 
 old parameters found on file WAVECAR:
  energy-cutoff  :      700.00
  volume of cell :      279.39
      direct lattice vectors                 reciprocal lattice vectors
     4.995846373  0.000000000  0.000000000     0.200166283  0.000000000  0.000000000
     0.000000000  4.995846373  0.000000000     0.000000000  0.200166283  0.000000000
     0.000000000  0.000000000 11.194356568     0.000000000  0.000000000  0.089330726

  length of vectors

 
 k-points in units of 2pi/SCALE and weight: Automatic mesh                          
   0.00000000  0.00000000  0.00000000       0.009
   0.03336105  0.00000000  0.00000000       0.037
   0.06672209  0.00000000  0.00000000       0.037
   0.10008314  0.00000000  0.00000000       0.019
   0.03336105  0.03336105  0.00000000       0.037
   0.06672209  0.03336105  0.00000000       0.074
   0.10008314  0.03336105  0.00000000       0.037
   0.06672209  0.06672209  0.00000000       0.037
   0.10008314  0.06672209  0.00000000       0.037
   0.10008314  0.10008314  0.00000000       0.009
   0.00000000  0.00000000  0.02978198       0.019
   0.03336105  0.00000000  0.02978198       0.074
   0.06672209  0.00000000  0.02978198       0.074
   0.10008314  0.00000000  0.02978198       0.037
   0.03336105  0.03336105  0.02978198       0.037
   0.06672209  0.03336105  0.02978198       0.074
   0.10008314  0.03336105  0.02978198       0.074
  -0.06672209  0.03336105  0.02978198       0.074
  -0.03336105  0.03336105  0.02978198       0.037
   0.06672209  0.06672209  0.02978198       0.037
   0.10008314  0.06672209  0.02978198       0.074
  -0.06672209  0.06672209  0.02978198       0.037
   0.10008314  0.10008314  0.02978198       0.019
 
 k-points in reciprocal lattice and weights: Automatic mesh                          
   0.00000000  0.00000000  0.00000000       0.009
   0.16666667  0.00000000  0.00000000       0.037
   0.33333333  0.00000000  0.00000000       0.037
   0.50000000  0.00000000  0.00000000       0.019
   0.16666667  0.16666667  0.00000000       0.037
   0.33333333  0.16666667  0.00000000       0.074
   0.50000000  0.16666667  0.00000000       0.037
   0.33333333  0.33333333  0.00000000       0.037
   0.50000000  0.33333333  0.00000000       0.037
   0.50000000  0.50000000  0.00000000       0.009
   0.00000000  0.00000000  0.33333333       0.019
   0.16666667  0.00000000  0.33333333       0.074
   0.33333333  0.00000000  0.33333333       0.074
   0.50000000  0.00000000  0.33333333       0.037
   0.16666667  0.16666667  0.33333333       0.037
   0.33333333  0.16666667  0.33333333       0.074
   0.50000000  0.16666667  0.33333333       0.074
  -0.33333333  0.16666667  0.33333333       0.074
  -0.16666667  0.16666667  0.33333333       0.037
   0.33333333  0.33333333  0.33333333       0.037
   0.50000000  0.33333333  0.33333333       0.074
  -0.33333333  0.33333333  0.33333333       0.037
   0.50000000  0.50000000  0.33333333       0.019
 
 position of ions in fractional coordinates (direct lattice) 
   0.25344983  0.25000000  0.12500000
   0.74655020  0.75000000  0.12500000
   0.25000000  0.74655020  0.87500000
   0.75000000  0.25344983  0.87500000
   0.24655017  0.25000000  0.62500000
   0.75344980  0.75000000  0.62500000
   0.75000000  0.24655017  0.37500000
   0.25000000  0.75344980  0.37500000
   0.00000000  0.00000000  0.50000000
   0.50000000  0.00000000  0.25000000
   0.50000000  0.50000000  0.00000000
   0.00000000  0.50000000  0.75000000
   0.00000000  0.00000000  0.00000000
   0.50000000  0.00000000  0.75000000
   0.50000000  0.50000000  0.50000000
   0.00000000  0.50000000  0.25000000
 
 position of ions in cartesian coordinates  (Angst):
   1.26619639  1.24896159  1.39905617
   3.72965013  3.74688478  1.39905617
   1.24896159  3.72965013  9.79339320
   3.74688478  1.26619639  9.79339320
   1.23172680  1.24896159  6.99528086
   3.76411943  3.74688478  6.99528086
   3.74688478  1.23172680  4.19716852
   1.24896159  3.76411943  4.19716852
   0.00000000  0.00000000  5.59622469
   2.49792319  0.00000000  2.79811234
   2.49792319  2.49792319  0.00000000
   0.00000000  2.49792319  8.39433703
   0.00000000  0.00000000  0.00000000
   2.49792319  0.00000000  8.39433703
   2.49792319  2.49792319  5.59622469
   0.00000000  2.49792319  2.79811234
 
 Euler angles ALPHA=     0.0000000  BETA=     0.0000000

 transformation matrix from SAXIS to cartesian coordinates
 ---------------------------------------------------------
     1.0000000 m_x     0.0000000 m_y     0.0000000 m_z
     0.0000000 m_x     1.0000000 m_y     0.0000000 m_z
     0.0000000 m_x     0.0000000 m_y     1.0000000 m_z

 transformation matrix from cartesian coordinates to SAXIS
 ---------------------------------------------------------
     1.0000000 m_x     0.0000000 m_y     0.0000000 m_z
     0.0000000 m_x     1.0000000 m_y     0.0000000 m_z
     0.0000000 m_x     0.0000000 m_y     1.0000000 m_z




--------------------------------------------------------------------------------------------------------


 k-point  1 :   0.0000 0.0000 0.0000  plane waves:   23450
 k-point  2 :   0.1667 0.0000 0.0000  plane waves:   23530
 k-point  3 :   0.3333 0.0000 0.0000  plane waves:   23524
 k-point  4 :   0.5000 0.0000 0.0000  plane waves:   23572
 k-point  5 :   0.1667 0.1667 0.0000  plane waves:   23494
 k-point  6 :   0.3333 0.1667 0.0000  plane waves:   23450
 k-point  7 :   0.5000 0.1667 0.0000  plane waves:   23504
 k-point  8 :   0.3333 0.3333 0.0000  plane waves:   23502
 k-point  9 :   0.5000 0.3333 0.0000  plane waves:   23488
 k-point 10 :   0.5000 0.5000 0.0000  plane waves:   23504
 k-point 11 :   0.0000 0.0000 0.3333  plane waves:   23464
 k-point 12 :   0.1667 0.0000 0.3333  plane waves:   23476
 k-point 13 :   0.3333 0.0000 0.3333  plane waves:   23524
 k-point 14 :   0.5000 0.0000 0.3333  plane waves:   23552
 k-point 15 :   0.1667 0.1667 0.3333  plane waves:   23494
 k-point 16 :   0.3333 0.1667 0.3333  plane waves:   23498
 k-point 17 :   0.5000 0.1667 0.3333  plane waves:   23488
 k-point 18 :  -0.3333 0.1667 0.3333  plane waves:   23498
 k-point 19 :  -0.1667 0.1667 0.3333  plane waves:   23494
 k-point 20 :   0.3333 0.3333 0.3333  plane waves:   23516
 k-point 21 :   0.5000 0.3333 0.3333  plane waves:   23508
 k-point 22 :  -0.3333 0.3333 0.3333  plane waves:   23516
 k-point 23 :   0.5000 0.5000 0.3333  plane waves:   23496

 maximum and minimum number of plane-waves per node :       776      700

 maximum number of plane-waves:     23572
 maximum index in each direction: 
   IXMAX=   11   IYMAX=   10   IZMAX=   24
   IXMIN=  -11   IYMIN=  -11   IZMIN=  -24


 parallel 3D FFT for wavefunctions:
    minimum data exchange during FFTs selected (reduces bandwidth)
 parallel 3D FFT for charge:
    minimum data exchange during FFTs selected (reduces bandwidth)


 total amount of memory used by VASP MPI-rank0    63815. kBytes
=======================================================================

   base      :      30000. kBytes
   nonl-proj :       3750. kBytes
   fftplans  :       1479. kBytes
   grid      :       6021. kBytes
   one-center:         62. kBytes
   wavefun   :      22503. kBytes
 
     INWAV:  cpu time    5.4833: real time    5.5904
 Broyden mixing: mesh for mixing (old mesh)
   NGX = 21   NGY = 21   NGZ = 49
  (NGX  = 96   NGY  = 96   NGZ  =196)
  gives a total of  21609 points

 initial charge density was supplied:
 number of electron     171.9999939 magnetization       0.0000000     -0.0000000      0.0000000
 charge density for first step will be calculated from the start-wavefunctions


--------------------------------------------------------------------------------------------------------


 BZINTS: Fermi energy:  5.379846;172.000000 electrons
         Band energy:***********;  BLOECHL correction:  0.000000
 Maximum index for augmentation-charges          957 (set IRDMAX)


--------------------------------------------------------------------------------------------------------


 initial charge from wavefunction
 First call to EWALD:  gamma=   0.271
 Maximum number of real-space cells 3x 3x 2
 Maximum number of reciprocal cells 2x 2x 4

    FEWALD:  cpu time    0.0212: real time    0.0212

 ----------------------------------------------------------------------------- 
|                                                                             |
|           W    W    AA    RRRRR   N    N  II  N    N   GGGG   !!!           |
|           W    W   A  A   R    R  NN   N  II  NN   N  G    G  !!!           |
|           W    W  A    A  R    R  N N  N  II  N N  N  G       !!!           |
|           W WW W  AAAAAA  RRRRR   N  N N  II  N  N N  G  GGG   !            |
|           WW  WW  A    A  R   R   N   NN  II  N   NN  G    G                |
|           W    W  A    A  R    R  N    N  II  N    N   GGGG   !!!           |
|                                                                             |
|      ALGO=A and IALGO=5X tend to fail with the tetrahedron method           |
|      (e.g. Bloechls method ISMEAR=-5 is not variational)                    |
|      please switch to IMSEAR=0-n, except for DOS calculations               |
|      For DOS calculations use IALGO=53 after preconverging with ISMEAR>=0   |
|          I HOPE YOU KNOW, WHAT YOU ARE  DOING                               |
|                                                                             |
 ----------------------------------------------------------------------------- 



--------------------------------------- Iteration      1(   1)  ---------------------------------------


    POTLOK:  cpu time    0.1045: real time    0.1046
    SETDIJ:  cpu time    0.6393: real time    0.6395
    TRIAL :  cpu time    3.8952: real time    3.9191
 BZINTS: Fermi energy:  5.379845;172.000000 electrons
         Band energy:***********;  BLOECHL correction:  0.000000
 BZINTS: Fermi energy:  5.379846;172.000000 electrons
         Band energy:***********;  BLOECHL correction:  0.000000
    CORREC:  cpu time    3.1537: real time    3.1565
    CHARGE:  cpu time    1.0550: real time    1.0552
    --------------------------------------------
      LOOP:  cpu time    8.8559: real time    8.9155

 eigenvalue-minimisations  :     0
 total energy-change (2. order) :-0.8173723E+02  (-0.1546146E-08)
 number of electron     171.9999939 magnetization       0.0000000      0.0000000      0.0000000
 augmentation part       70.5393328 magnetization       0.0000003     -0.0000002     -0.0003818

 Free energy of the ion-electron system (eV)
  ---------------------------------------------------
  alpha Z        PSCENC =       606.58317865
  Ewald energy   TEWEN  =    -15790.66309732
  -Hartree energ DENC   =    -10624.97300585
  -exchange      EXHF   =         0.00000000
  -V(xc)+E(xc)   XCENC  =       822.45972884
  PAW double counting   =     28315.18178759   -29239.52549810
  entropy T*S    EENTRO =         0.00000000
  eigenvalues    EBANDS =     -2675.81660194
  atomic energy  EATOM  =     28505.01627691
  ---------------------------------------------------
  free energy    TOTEN  =       -81.73723123 eV

  energy without entropy =      -81.73723123  energy(sigma->0) =      -81.73723123


--------------------------------------------------------------------------------------------------------




--------------------------------------- Iteration      1(   2)  ---------------------------------------


    POTLOK:  cpu time    0.0987: real time    0.0987
    SETDIJ:  cpu time    0.6388: real time    0.6390
    TRIAL :  cpu time    2.5197: real time    2.5221
 BZINTS: Fermi energy:  5.379845;172.000000 electrons
         Band energy:***********;  BLOECHL correction:  0.000000
 BZINTS: Fermi energy:  5.379846;172.000000 electrons
         Band energy:***********;  BLOECHL correction:  0.000000
    CORREC:  cpu time    3.1688: real time    3.1710
    CHARGE:  cpu time    1.0493: real time    1.0496
    --------------------------------------------
      LOOP:  cpu time    7.4961: real time    7.5030

 eigenvalue-minimisations  :     0
 total energy-change (2. order) :-0.1097251E-06  (-0.1430314E-08)
 number of electron     171.9999939 magnetization       0.0000000      0.0000000     -0.0000000
 augmentation part       70.5393328 magnetization       0.0000003     -0.0000002     -0.0003818

 Free energy of the ion-electron system (eV)
  ---------------------------------------------------
  alpha Z        PSCENC =       606.58317865
  Ewald energy   TEWEN  =    -15790.66309732
  -Hartree energ DENC   =    -10624.97300257
  -exchange      EXHF   =         0.00000000
  -V(xc)+E(xc)   XCENC  =       822.45972852
  PAW double counting   =     28315.18177533   -29239.52548570
  entropy T*S    EENTRO =         0.00000000
  eigenvalues    EBANDS =     -2675.81660516
  atomic energy  EATOM  =     28505.01627691
  ---------------------------------------------------
  free energy    TOTEN  =       -81.73723134 eV

  energy without entropy =      -81.73723134  energy(sigma->0) =      -81.73723134


--------------------------------------------------------------------------------------------------------




--------------------------------------- Iteration      1(   3)  ---------------------------------------


    POTLOK:  cpu time    0.1012: real time    0.1012
    SETDIJ:  cpu time    0.6382: real time    0.6384
    TRIAL :  cpu time    2.5310: real time    2.5335
 BZINTS: Fermi energy:  5.379845;172.000000 electrons
         Band energy:***********;  BLOECHL correction:  0.000000
 BZINTS: Fermi energy:  5.379846;172.000000 electrons
         Band energy:***********;  BLOECHL correction:  0.000000
    CORREC:  cpu time    3.1465: real time    3.1488
    CHARGE:  cpu time    1.0612: real time    1.0617
    --------------------------------------------
      LOOP:  cpu time    7.4981: real time    7.5072

 eigenvalue-minimisations  :     0
 total energy-change (2. order) :-0.9755604E-07  (-0.1345780E-08)
 number of electron     171.9999939 magnetization       0.0000000      0.0000000      0.0000000
 augmentation part       70.5393328 magnetization       0.0000002     -0.0000002     -0.0003818

 Free energy of the ion-electron system (eV)
  ---------------------------------------------------
  alpha Z        PSCENC =       606.58317865
  Ewald energy   TEWEN  =    -15790.66309732
  -Hartree energ DENC   =    -10624.97299925
  -exchange      EXHF   =         0.00000000
  -V(xc)+E(xc)   XCENC  =       822.45972821
  PAW double counting   =     28315.18176320   -29239.52547339
  entropy T*S    EENTRO =         0.00000000
  eigenvalues    EBANDS =     -2675.81660846
  atomic energy  EATOM  =     28505.01627691
  ---------------------------------------------------
  free energy    TOTEN  =       -81.73723144 eV

  energy without entropy =      -81.73723144  energy(sigma->0) =      -81.73723144


--------------------------------------------------------------------------------------------------------




--------------------------------------- Iteration      1(   4)  ---------------------------------------


    POTLOK:  cpu time    0.1024: real time    0.1024
    SETDIJ:  cpu time    0.6366: real time    0.6366
    TRIAL :  cpu time    2.5288: real time    2.5313
 BZINTS: Fermi energy:  5.379845;172.000000 electrons
         Band energy:***********;  BLOECHL correction:  0.000000
 BZINTS: Fermi energy:  5.379846;172.000000 electrons
         Band energy:***********;  BLOECHL correction:  0.000000
    CORREC:  cpu time    3.1451: real time    3.1477
    CHARGE:  cpu time    1.0503: real time    1.0505
    --------------------------------------------
      LOOP:  cpu time    7.4845: real time    7.4901

 eigenvalue-minimisations  :     0
 total energy-change (2. order) :-0.8797178E-07  (-0.1289493E-08)
 number of electron     171.9999939 magnetization       0.0000000      0.0000000      0.0000000
 augmentation part       70.5393328 magnetization       0.0000002     -0.0000002     -0.0003818

 Free energy of the ion-electron system (eV)
  ---------------------------------------------------
  alpha Z        PSCENC =       606.58317865
  Ewald energy   TEWEN  =    -15790.66309732
  -Hartree energ DENC   =    -10624.97299587
  -exchange      EXHF   =         0.00000000
  -V(xc)+E(xc)   XCENC  =       822.45972793
  PAW double counting   =     28315.18175102   -29239.52546100
  entropy T*S    EENTRO =         0.00000000
  eigenvalues    EBANDS =     -2675.81661185
  atomic energy  EATOM  =     28505.01627691
  ---------------------------------------------------
  free energy    TOTEN  =       -81.73723153 eV

  energy without entropy =      -81.73723153  energy(sigma->0) =      -81.73723153


--------------------------------------------------------------------------------------------------------




--------------------------------------- Iteration      1(   5)  ---------------------------------------


    POTLOK:  cpu time    0.1001: real time    0.1001
    SETDIJ:  cpu time    0.6374: real time    0.6376
    TRIAL :  cpu time    2.5241: real time    2.5263
 BZINTS: Fermi energy:  5.379845;172.000000 electrons
         Band energy:***********;  BLOECHL correction:  0.000000
 BZINTS: Fermi energy:  5.379846;172.000000 electrons
         Band energy:***********;  BLOECHL correction:  0.000000
    CORREC:  cpu time    3.1436: real time    3.1462
    CHARGE:  cpu time    1.0511: real time    1.0514
    --------------------------------------------
      LOOP:  cpu time    7.4765: real time    7.4850

 eigenvalue-minimisations  :     0
 total energy-change (2. order) :-0.8070856E-07  (-0.1259939E-08)
 number of electron     171.9999939 magnetization       0.0000000      0.0000000      0.0000000
 augmentation part       70.5393328 magnetization       0.0000002     -0.0000002     -0.0003818

 Free energy of the ion-electron system (eV)
  ---------------------------------------------------
  alpha Z        PSCENC =       606.58317865
  Ewald energy   TEWEN  =    -15790.66309732
  -Hartree energ DENC   =    -10624.97299239
  -exchange      EXHF   =         0.00000000
  -V(xc)+E(xc)   XCENC  =       822.45972766
  PAW double counting   =     28315.18173862   -29239.52544836
  entropy T*S    EENTRO =         0.00000000
  eigenvalues    EBANDS =     -2675.81661538
  atomic energy  EATOM  =     28505.01627691
  ---------------------------------------------------
  free energy    TOTEN  =       -81.73723161 eV

  energy without entropy =      -81.73723161  energy(sigma->0) =      -81.73723161


--------------------------------------------------------------------------------------------------------




--------------------------------------- Iteration      1(   6)  ---------------------------------------


    POTLOK:  cpu time    0.0989: real time    0.0989
    SETDIJ:  cpu time    0.6370: real time    0.6372
    TRIAL :  cpu time    2.5222: real time    2.5247
 BZINTS: Fermi energy:  5.379845;172.000000 electrons
         Band energy:***********;  BLOECHL correction:  0.000000
 BZINTS: Fermi energy:  5.379846;172.000000 electrons
         Band energy:***********;  BLOECHL correction:  0.000000
    CORREC:  cpu time    3.1686: real time    3.1710
    CHARGE:  cpu time    1.0481: real time    1.0484
    --------------------------------------------
      LOOP:  cpu time    7.4937: real time    7.5021

 eigenvalue-minimisations  :     0
 total energy-change (2. order) :-0.7527160E-07  (-0.1257165E-08)
 number of electron     171.9999939 magnetization       0.0000000      0.0000000     -0.0000000
 augmentation part       70.5393328 magnetization       0.0000002     -0.0000002     -0.0003818

 Free energy of the ion-electron system (eV)
  ---------------------------------------------------
  alpha Z        PSCENC =       606.58317865
  Ewald energy   TEWEN  =    -15790.66309732
  -Hartree energ DENC   =    -10624.97298875
  -exchange      EXHF   =         0.00000000
  -V(xc)+E(xc)   XCENC  =       822.45972740
  PAW double counting   =     28315.18172576   -29239.52543523
  entropy T*S    EENTRO =         0.00000000
  eigenvalues    EBANDS =     -2675.81661910
  atomic energy  EATOM  =     28505.01627691
  ---------------------------------------------------
  free energy    TOTEN  =       -81.73723169 eV

  energy without entropy =      -81.73723169  energy(sigma->0) =      -81.73723169


--------------------------------------------------------------------------------------------------------




--------------------------------------- Iteration      1(   7)  ---------------------------------------


    POTLOK:  cpu time    0.1004: real time    0.1006
    SETDIJ:  cpu time    0.6376: real time    0.6376
    TRIAL :  cpu time    2.5341: real time    2.5366
 BZINTS: Fermi energy:  5.379845;172.000000 electrons
         Band energy:***********;  BLOECHL correction:  0.000000
 BZINTS: Fermi energy:  5.379846;172.000000 electrons
         Band energy:***********;  BLOECHL correction:  0.000000
    CORREC:  cpu time    3.1350: real time    3.1376
    CHARGE:  cpu time    1.0582: real time    1.0584
    --------------------------------------------
      LOOP:  cpu time    7.4845: real time    7.4936

 eigenvalue-minimisations  :     0
 total energy-change (2. order) :-0.7152994E-07  (-0.1282331E-08)
 number of electron     171.9999939 magnetization       0.0000000      0.0000000     -0.0000000
 augmentation part       70.5393328 magnetization       0.0000002     -0.0000002     -0.0003818

 Free energy of the ion-electron system (eV)
  ---------------------------------------------------
  alpha Z        PSCENC =       606.58317865
  Ewald energy   TEWEN  =    -15790.66309732
  -Hartree energ DENC   =    -10624.97298488
  -exchange      EXHF   =         0.00000000
  -V(xc)+E(xc)   XCENC  =       822.45972713
  PAW double counting   =     28315.18171215   -29239.52542132
  entropy T*S    EENTRO =         0.00000000
  eigenvalues    EBANDS =     -2675.81662307
  atomic energy  EATOM  =     28505.01627691
  ---------------------------------------------------
  free energy    TOTEN  =       -81.73723176 eV

  energy without entropy =      -81.73723176  energy(sigma->0) =      -81.73723176


--------------------------------------------------------------------------------------------------------




--------------------------------------- Iteration      1(   8)  ---------------------------------------


    POTLOK:  cpu time    0.1005: real time    0.1005
    SETDIJ:  cpu time    0.6375: real time    0.6376
    TRIAL :  cpu time    2.5287: real time    2.5312
 BZINTS: Fermi energy:  5.379845;172.000000 electrons
         Band energy:***********;  BLOECHL correction:  0.000000
 BZINTS: Fermi energy:  5.379846;172.000000 electrons
         Band energy:***********;  BLOECHL correction:  0.000000
    CORREC:  cpu time    3.1488: real time    3.1514
    CHARGE:  cpu time    1.0501: real time    1.0503
    --------------------------------------------
      LOOP:  cpu time    7.4848: real time    7.4934

 eigenvalue-minimisations  :     0
 total energy-change (2. order) :-0.6910886E-07  (-0.1338148E-08)
 number of electron     171.9999939 magnetization       0.0000000      0.0000000      0.0000000
 augmentation part       70.5393328 magnetization       0.0000002     -0.0000002     -0.0003818

 Free energy of the ion-electron system (eV)
  ---------------------------------------------------
  alpha Z        PSCENC =       606.58317865
  Ewald energy   TEWEN  =    -15790.66309732
  -Hartree energ DENC   =    -10624.97298070
  -exchange      EXHF   =         0.00000000
  -V(xc)+E(xc)   XCENC  =       822.45972687
  PAW double counting   =     28315.18169742   -29239.52540625
  entropy T*S    EENTRO =         0.00000000
  eigenvalues    EBANDS =     -2675.81662740
  atomic energy  EATOM  =     28505.01627691
  ---------------------------------------------------
  free energy    TOTEN  =       -81.73723183 eV

  energy without entropy =      -81.73723183  energy(sigma->0) =      -81.73723183


--------------------------------------------------------------------------------------------------------




--------------------------------------- Iteration      1(   9)  ---------------------------------------


    POTLOK:  cpu time    0.1024: real time    0.1024
    SETDIJ:  cpu time    0.6386: real time    0.6388
    TRIAL :  cpu time    2.5201: real time    2.5224
 BZINTS: Fermi energy:  5.379845;172.000000 electrons
         Band energy:***********;  BLOECHL correction:  0.000000
 BZINTS: Fermi energy:  5.379846;172.000000 electrons
         Band energy:***********;  BLOECHL correction:  0.000000
    CORREC:  cpu time    3.1399: real time    3.1423
    CHARGE:  cpu time    1.0498: real time    1.0501
    --------------------------------------------
      LOOP:  cpu time    7.4707: real time    7.4791

 eigenvalue-minimisations  :     0
 total energy-change (2. order) :-0.6798837E-07  (-0.1428244E-08)
 number of electron     171.9999939 magnetization       0.0000000      0.0000000     -0.0000000
 augmentation part       70.5393328 magnetization       0.0000002     -0.0000002     -0.0003818

 Free energy of the ion-electron system (eV)
  ---------------------------------------------------
  alpha Z        PSCENC =       606.58317865
  Ewald energy   TEWEN  =    -15790.66309732
  -Hartree energ DENC   =    -10624.97297607
  -exchange      EXHF   =         0.00000000
  -V(xc)+E(xc)   XCENC  =       822.45972659
  PAW double counting   =     28315.18168108   -29239.52538953
  entropy T*S    EENTRO =         0.00000000
  eigenvalues    EBANDS =     -2675.81663221
  atomic energy  EATOM  =     28505.01627691
  ---------------------------------------------------
  free energy    TOTEN  =       -81.73723189 eV

  energy without entropy =      -81.73723189  energy(sigma->0) =      -81.73723189


--------------------------------------------------------------------------------------------------------




--------------------------------------- Iteration      1(  10)  ---------------------------------------


    POTLOK:  cpu time    0.0972: real time    0.0974
    SETDIJ:  cpu time    0.6400: real time    0.6400
    TRIAL :  cpu time    2.5266: real time    2.5295
 BZINTS: Fermi energy:  5.379845;172.000000 electrons
         Band energy:***********;  BLOECHL correction:  0.000000
 BZINTS: Fermi energy:  5.379846;172.000000 electrons
         Band energy:***********;  BLOECHL correction:  0.000000
    CORREC:  cpu time    3.1596: real time    3.1626
    CHARGE:  cpu time    1.0567: real time    1.0569
    --------------------------------------------
      LOOP:  cpu time    7.5018: real time    7.5091

 eigenvalue-minimisations  :     0
 total energy-change (2. order) :-0.6801747E-07  (-0.1556278E-08)
 number of electron     171.9999939 magnetization       0.0000000      0.0000000     -0.0000000
 augmentation part       70.5393328 magnetization       0.0000002     -0.0000001     -0.0003818

 Free energy of the ion-electron system (eV)
  ---------------------------------------------------
  alpha Z        PSCENC =       606.58317865
  Ewald energy   TEWEN  =    -15790.66309732
  -Hartree energ DENC   =    -10624.97297084
  -exchange      EXHF   =         0.00000000
  -V(xc)+E(xc)   XCENC  =       822.45972630
  PAW double counting   =     28315.18166248   -29239.52537048
  entropy T*S    EENTRO =         0.00000000
  eigenvalues    EBANDS =     -2675.81663765
  atomic energy  EATOM  =     28505.01627691
  ---------------------------------------------------
  free energy    TOTEN  =       -81.73723196 eV

  energy without entropy =      -81.73723196  energy(sigma->0) =      -81.73723196


--------------------------------------------------------------------------------------------------------




--------------------------------------- Iteration      1(  11)  ---------------------------------------


    POTLOK:  cpu time    0.0993: real time    0.0993
    SETDIJ:  cpu time    0.6377: real time    0.6379
    TRIAL :  cpu time    2.5312: real time    2.5340
 BZINTS: Fermi energy:  5.379845;172.000000 electrons
         Band energy:***********;  BLOECHL correction:  0.000000
 BZINTS: Fermi energy:  5.379846;172.000000 electrons
         Band energy:***********;  BLOECHL correction:  0.000000
    CORREC:  cpu time    3.1455: real time    3.1485
    CHARGE:  cpu time    1.0554: real time    1.0556
    --------------------------------------------
      LOOP:  cpu time    7.4881: real time    7.4981

 eigenvalue-minimisations  :     0
 total energy-change (2. order) :-0.6863957E-07  (-0.1719465E-08)
 number of electron     171.9999939 magnetization      -0.0000000      0.0000000      0.0000000
 augmentation part       70.5393328 magnetization       0.0000002     -0.0000001     -0.0003818

 Free energy of the ion-electron system (eV)
  ---------------------------------------------------
  alpha Z        PSCENC =       606.58317865
  Ewald energy   TEWEN  =    -15790.66309732
  -Hartree energ DENC   =    -10624.97296481
  -exchange      EXHF   =         0.00000000
  -V(xc)+E(xc)   XCENC  =       822.45972598
  PAW double counting   =     28315.18164073   -29239.52534822
  entropy T*S    EENTRO =         0.00000000
  eigenvalues    EBANDS =     -2675.81664395
  atomic energy  EATOM  =     28505.01627691
  ---------------------------------------------------
  free energy    TOTEN  =       -81.73723203 eV

  energy without entropy =      -81.73723203  energy(sigma->0) =      -81.73723203


--------------------------------------------------------------------------------------------------------




--------------------------------------- Iteration      1(  12)  ---------------------------------------


    POTLOK:  cpu time    0.0986: real time    0.0986
    SETDIJ:  cpu time    0.6377: real time    0.6379
    TRIAL :  cpu time    2.5268: real time    2.5297
 BZINTS: Fermi energy:  5.379845;172.000000 electrons
         Band energy:***********;  BLOECHL correction:  0.000000
 BZINTS: Fermi energy:  5.379846;172.000000 electrons
         Band energy:***********;  BLOECHL correction:  0.000000
    CORREC:  cpu time    3.1488: real time    3.1516
    CHARGE:  cpu time    1.0538: real time    1.0541
    --------------------------------------------
      LOOP:  cpu time    7.4851: real time    7.4945

 eigenvalue-minimisations  :     0
 total energy-change (2. order) :-0.7033850E-07  (-0.1886997E-08)
 number of electron     171.9999939 magnetization      -0.0000000      0.0000000      0.0000000
 augmentation part       70.5393327 magnetization       0.0000002     -0.0000001     -0.0003818

 Free energy of the ion-electron system (eV)
  ---------------------------------------------------
  alpha Z        PSCENC =       606.58317865
  Ewald energy   TEWEN  =    -15790.66309732
  -Hartree energ DENC   =    -10624.97295776
  -exchange      EXHF   =         0.00000000
  -V(xc)+E(xc)   XCENC  =       822.45972563
  PAW double counting   =     28315.18161475   -29239.52532164
  entropy T*S    EENTRO =         0.00000000
  eigenvalues    EBANDS =     -2675.81665132
  atomic energy  EATOM  =     28505.01627691
  ---------------------------------------------------
  free energy    TOTEN  =       -81.73723210 eV

  energy without entropy =      -81.73723210  energy(sigma->0) =      -81.73723210


--------------------------------------------------------------------------------------------------------




--------------------------------------- Iteration      1(  13)  ---------------------------------------


    POTLOK:  cpu time    0.0979: real time    0.0981
    SETDIJ:  cpu time    0.6388: real time    0.6388
    TRIAL :  cpu time    2.5729: real time    2.5758
 BZINTS: Fermi energy:  5.379845;172.000000 electrons
         Band energy:***********;  BLOECHL correction:  0.000000
 BZINTS: Fermi energy:  5.379845;172.000000 electrons
         Band energy:***********;  BLOECHL correction:  0.000000
    CORREC:  cpu time    3.1428: real time    3.1458
    CHARGE:  cpu time    1.0520: real time    1.0522
    --------------------------------------------
      LOOP:  cpu time    7.5237: real time    7.5333

 eigenvalue-minimisations  :     0
 total energy-change (2. order) :-0.7317431E-07  (-0.1948260E-08)
 number of electron     171.9999939 magnetization       0.0000000      0.0000000      0.0000000
 augmentation part       70.5393327 magnetization       0.0000002     -0.0000001     -0.0003818

 Free energy of the ion-electron system (eV)
  ---------------------------------------------------
  alpha Z        PSCENC =       606.58317865
  Ewald energy   TEWEN  =    -15790.66309732
  -Hartree energ DENC   =    -10624.97294956
  -exchange      EXHF   =         0.00000000
  -V(xc)+E(xc)   XCENC  =       822.45972524
  PAW double counting   =     28315.18158358   -29239.52528979
  entropy T*S    EENTRO =         0.00000000
  eigenvalues    EBANDS =     -2675.81665988
  atomic energy  EATOM  =     28505.01627691
  ---------------------------------------------------
  free energy    TOTEN  =       -81.73723217 eV

  energy without entropy =      -81.73723217  energy(sigma->0) =      -81.73723217


--------------------------------------------------------------------------------------------------------




--------------------------------------- Iteration      1(  14)  ---------------------------------------


    POTLOK:  cpu time    0.0991: real time    0.0991
    SETDIJ:  cpu time    0.6387: real time    0.6389
    TRIAL :  cpu time    2.5226: real time    2.5252
 BZINTS: Fermi energy:  5.379845;172.000000 electrons
         Band energy:***********;  BLOECHL correction:  0.000000
 BZINTS: Fermi energy:  5.379845;172.000000 electrons
         Band energy:***********;  BLOECHL correction:  0.000000
    CORREC:  cpu time    3.1798: real time    3.1827
    CHARGE:  cpu time    1.0466: real time    1.0468
    --------------------------------------------
      LOOP:  cpu time    7.5062: real time    7.5153

 eigenvalue-minimisations  :     0
 total energy-change (2. order) :-0.8113966E-07  (-0.1592548E-08)
 number of electron     171.9999939 magnetization      -0.0000000      0.0000000      0.0000000
 augmentation part       70.5393327 magnetization       0.0000001     -0.0000001     -0.0003818

 Free energy of the ion-electron system (eV)
  ---------------------------------------------------
  alpha Z        PSCENC =       606.58317865
  Ewald energy   TEWEN  =    -15790.66309732
  -Hartree energ DENC   =    -10624.97294061
  -exchange      EXHF   =         0.00000000
  -V(xc)+E(xc)   XCENC  =       822.45972482
  PAW double counting   =     28315.18154792   -29239.52525343
  entropy T*S    EENTRO =         0.00000000
  eigenvalues    EBANDS =     -2675.81666920
  atomic energy  EATOM  =     28505.01627691
  ---------------------------------------------------
  free energy    TOTEN  =       -81.73723226 eV

  energy without entropy =      -81.73723226  energy(sigma->0) =      -81.73723226


--------------------------------------------------------------------------------------------------------




--------------------------------------- Iteration      1(  15)  ---------------------------------------


    POTLOK:  cpu time    0.1003: real time    0.1003
    SETDIJ:  cpu time    0.6374: real time    0.6376
    TRIAL :  cpu time    2.5124: real time    2.5154
 BZINTS: Fermi energy:  5.379845;172.000000 electrons
         Band energy:***********;  BLOECHL correction:  0.000000
 BZINTS: Fermi energy:  5.379845;172.000000 electrons
         Band energy:***********;  BLOECHL correction:  0.000000
    CORREC:  cpu time    3.1593: real time    3.1621
    CHARGE:  cpu time    1.0524: real time    1.0525
    --------------------------------------------
      LOOP:  cpu time    7.4822: real time    7.4922

 eigenvalue-minimisations  :     0
 total energy-change (2. order) :-0.1013577E-06  (-0.8127136E-09)
 number of electron     171.9999939 magnetization       0.0000000      0.0000000      0.0000000
 augmentation part       70.5393327 magnetization       0.0000001     -0.0000001     -0.0003818

 Free energy of the ion-electron system (eV)
  ---------------------------------------------------
  alpha Z        PSCENC =       606.58317865
  Ewald energy   TEWEN  =    -15790.66309732
  -Hartree energ DENC   =    -10624.97293290
  -exchange      EXHF   =         0.00000000
  -V(xc)+E(xc)   XCENC  =       822.45972438
  PAW double counting   =     28315.18151526   -29239.52522022
  entropy T*S    EENTRO =         0.00000000
  eigenvalues    EBANDS =     -2675.81667711
  atomic energy  EATOM  =     28505.01627691
  ---------------------------------------------------
  free energy    TOTEN  =       -81.73723236 eV

  energy without entropy =      -81.73723236  energy(sigma->0) =      -81.73723236


--------------------------------------------------------------------------------------------------------




--------------------------------------- Iteration      1(  16)  ---------------------------------------


    POTLOK:  cpu time    0.0994: real time    0.0996
    SETDIJ:  cpu time    0.6374: real time    0.6374
    TRIAL :  cpu time    2.5193: real time    2.5221
 BZINTS: Fermi energy:  5.379845;172.000000 electrons
         Band energy:***********;  BLOECHL correction:  0.000000
 BZINTS: Fermi energy:  5.379845;172.000000 electrons
         Band energy:***********;  BLOECHL correction:  0.000000
    CORREC:  cpu time    3.1496: real time    3.1525
    CHARGE:  cpu time    1.0614: real time    1.0616
    --------------------------------------------
      LOOP:  cpu time    7.4864: real time    7.4960

 eigenvalue-minimisations  :     0
 total energy-change (2. order) :-0.1138360E-06  (-0.3844544E-09)
 number of electron     171.9999939 magnetization       0.0000000      0.0000000     -0.0000000
 augmentation part       70.5393327 magnetization       0.0000001     -0.0000001     -0.0003818

 Free energy of the ion-electron system (eV)
  ---------------------------------------------------
  alpha Z        PSCENC =       606.58317865
  Ewald energy   TEWEN  =    -15790.66309732
  -Hartree energ DENC   =    -10624.97292879
  -exchange      EXHF   =         0.00000000
  -V(xc)+E(xc)   XCENC  =       822.45972400
  PAW double counting   =     28315.18149670   -29239.52520140
  entropy T*S    EENTRO =         0.00000000
  eigenvalues    EBANDS =     -2675.81668121
  atomic energy  EATOM  =     28505.01627691
  ---------------------------------------------------
  free energy    TOTEN  =       -81.73723247 eV

  energy without entropy =      -81.73723247  energy(sigma->0) =      -81.73723247


--------------------------------------------------------------------------------------------------------




--------------------------------------- Iteration      1(  17)  ---------------------------------------


    POTLOK:  cpu time    0.0998: real time    0.0998
    SETDIJ:  cpu time    0.6380: real time    0.6382
    TRIAL :  cpu time    2.5237: real time    2.5264
 BZINTS: Fermi energy:  5.379845;172.000000 electrons
         Band energy:***********;  BLOECHL correction:  0.000000
 BZINTS: Fermi energy:  5.379845;172.000000 electrons
         Band energy:***********;  BLOECHL correction:  0.000000
    CORREC:  cpu time    3.1317: real time    3.1346
    CHARGE:  cpu time    1.0490: real time    1.0492
    --------------------------------------------
      LOOP:  cpu time    7.4619: real time    7.4711

 eigenvalue-minimisations  :     0
 total energy-change (2. order) :-0.1102999E-06  (-0.2201116E-09)
 number of electron     171.9999939 magnetization       0.0000000      0.0000000      0.0000000
 augmentation part       70.5393327 magnetization       0.0000001     -0.0000001     -0.0003818

 Free energy of the ion-electron system (eV)
  ---------------------------------------------------
  alpha Z        PSCENC =       606.58317865
  Ewald energy   TEWEN  =    -15790.66309732
  -Hartree energ DENC   =    -10624.97292679
  -exchange      EXHF   =         0.00000000
  -V(xc)+E(xc)   XCENC  =       822.45972370
  PAW double counting   =     28315.18148727   -29239.52519186
  entropy T*S    EENTRO =         0.00000000
  eigenvalues    EBANDS =     -2675.81668313
  atomic energy  EATOM  =     28505.01627691
  ---------------------------------------------------
  free energy    TOTEN  =       -81.73723258 eV

  energy without entropy =      -81.73723258  energy(sigma->0) =      -81.73723258


--------------------------------------------------------------------------------------------------------




--------------------------------------- Iteration      1(  18)  ---------------------------------------


    POTLOK:  cpu time    0.1032: real time    0.1032
    SETDIJ:  cpu time    0.6368: real time    0.6370
    TRIAL :  cpu time    2.5292: real time    2.5320
 BZINTS: Fermi energy:  5.379845;172.000000 electrons
         Band energy:***********;  BLOECHL correction:  0.000000
 BZINTS: Fermi energy:  5.379845;172.000000 electrons
         Band energy:***********;  BLOECHL correction:  0.000000
    CORREC:  cpu time    3.1547: real time    3.1574
    CHARGE:  cpu time    1.0569: real time    1.0571
    --------------------------------------------
      LOOP:  cpu time    7.5003: real time    7.5094

 eigenvalue-minimisations  :     0
 total energy-change (2. order) :-0.1039225E-06  (-0.1432351E-09)
 number of electron     171.9999939 magnetization      -0.0000000      0.0000000     -0.0000000
 augmentation part       70.5393327 magnetization       0.0000001     -0.0000001     -0.0003818

 Free energy of the ion-electron system (eV)
  ---------------------------------------------------
  alpha Z        PSCENC =       606.58317865
  Ewald energy   TEWEN  =    -15790.66309732
  -Hartree energ DENC   =    -10624.97292561
  -exchange      EXHF   =         0.00000000
  -V(xc)+E(xc)   XCENC  =       822.45972343
  PAW double counting   =     28315.18148160   -29239.52518613
  entropy T*S    EENTRO =         0.00000000
  eigenvalues    EBANDS =     -2675.81668421
  atomic energy  EATOM  =     28505.01627691
  ---------------------------------------------------
  free energy    TOTEN  =       -81.73723268 eV

  energy without entropy =      -81.73723268  energy(sigma->0) =      -81.73723268


--------------------------------------------------------------------------------------------------------




--------------------------------------- Iteration      1(  19)  ---------------------------------------


    POTLOK:  cpu time    0.1014: real time    0.1014
    SETDIJ:  cpu time    0.6389: real time    0.6391
    TRIAL :  cpu time    2.5258: real time    2.5287
 BZINTS: Fermi energy:  5.379845;172.000000 electrons
         Band energy:***********;  BLOECHL correction:  0.000000
 BZINTS: Fermi energy:  5.379845;172.000000 electrons
         Band energy:***********;  BLOECHL correction:  0.000000
    CORREC:  cpu time    3.1505: real time    3.1533
    CHARGE:  cpu time    1.0589: real time    1.0592
    --------------------------------------------
      LOOP:  cpu time    7.4945: real time    7.5042

 eigenvalue-minimisations  :     0
 total energy-change (2. order) :-0.9598989E-07  (-0.1036458E-09)
 number of electron     171.9999939 magnetization      -0.0000000      0.0000000      0.0000000
 augmentation part       70.5393327 magnetization       0.0000001     -0.0000001     -0.0003818

 Free energy of the ion-electron system (eV)
  ---------------------------------------------------
  alpha Z        PSCENC =       606.58317865
  Ewald energy   TEWEN  =    -15790.66309732
  -Hartree energ DENC   =    -10624.97292482
  -exchange      EXHF   =         0.00000000
  -V(xc)+E(xc)   XCENC  =       822.45972319
  PAW double counting   =     28315.18147777   -29239.52518226
  entropy T*S    EENTRO =         0.00000000
  eigenvalues    EBANDS =     -2675.81668489
  atomic energy  EATOM  =     28505.01627691
  ---------------------------------------------------
  free energy    TOTEN  =       -81.73723278 eV

  energy without entropy =      -81.73723278  energy(sigma->0) =      -81.73723278


--------------------------------------------------------------------------------------------------------




--------------------------------------- Iteration      1(  20)  ---------------------------------------


    POTLOK:  cpu time    0.0993: real time    0.0993
    SETDIJ:  cpu time    0.6397: real time    0.6397
    TRIAL :  cpu time    2.5233: real time    2.5263
 BZINTS: Fermi energy:  5.379845;172.000000 electrons
         Band energy:***********;  BLOECHL correction:  0.000000
 BZINTS: Fermi energy:  5.379845;172.000000 electrons
         Band energy:***********;  BLOECHL correction:  0.000000
    CORREC:  cpu time    3.1412: real time    3.1442
    CHARGE:  cpu time    1.0488: real time    1.0490
    --------------------------------------------
      LOOP:  cpu time    7.4721: real time    7.4816

 eigenvalue-minimisations  :     0
 total energy-change (2. order) :-0.8993266E-07  (-0.6823934E-10)
 number of electron     171.9999939 magnetization       0.0000000      0.0000000      0.0000000
 augmentation part       70.5393327 magnetization       0.0000001     -0.0000001     -0.0003818

 Free energy of the ion-electron system (eV)
  ---------------------------------------------------
  alpha Z        PSCENC =       606.58317865
  Ewald energy   TEWEN  =    -15790.66309732
  -Hartree energ DENC   =    -10624.97292424
  -exchange      EXHF   =         0.00000000
  -V(xc)+E(xc)   XCENC  =       822.45972297
  PAW double counting   =     28315.18147489   -29239.52517936
  entropy T*S    EENTRO =         0.00000000
  eigenvalues    EBANDS =     -2675.81668537
  atomic energy  EATOM  =     28505.01627691
  ---------------------------------------------------
  free energy    TOTEN  =       -81.73723287 eV

  energy without entropy =      -81.73723287  energy(sigma->0) =      -81.73723287


--------------------------------------------------------------------------------------------------------




--------------------------------------- Iteration      1(  21)  ---------------------------------------


    POTLOK:  cpu time    0.0979: real time    0.0979
    SETDIJ:  cpu time    0.6368: real time    0.6370
    TRIAL :  cpu time    2.5169: real time    2.5198
 BZINTS: Fermi energy:  5.379845;172.000000 electrons
         Band energy:***********;  BLOECHL correction:  0.000000
 BZINTS: Fermi energy:  5.379845;172.000000 electrons
         Band energy:***********;  BLOECHL correction:  0.000000
    CORREC:  cpu time    3.1412: real time    3.1440
    CHARGE:  cpu time    1.0491: real time    1.0493
    --------------------------------------------
      LOOP:  cpu time    7.4618: real time    7.4711

 eigenvalue-minimisations  :     0
 total energy-change (2. order) :-0.7143899E-07  (-0.4806750E-10)
 number of electron     171.9999939 magnetization       0.0000000      0.0000000      0.0000000
 augmentation part       70.5393327 magnetization       0.0000001     -0.0000001     -0.0003818

 Free energy of the ion-electron system (eV)
  ---------------------------------------------------
  alpha Z        PSCENC =       606.58317865
  Ewald energy   TEWEN  =    -15790.66309732
  -Hartree energ DENC   =    -10624.97292385
  -exchange      EXHF   =         0.00000000
  -V(xc)+E(xc)   XCENC  =       822.45972280
  PAW double counting   =     28315.18147294   -29239.52517738
  entropy T*S    EENTRO =         0.00000000
  eigenvalues    EBANDS =     -2675.81668568
  atomic energy  EATOM  =     28505.01627691
  ---------------------------------------------------
  free energy    TOTEN  =       -81.73723294 eV

  energy without entropy =      -81.73723294  energy(sigma->0) =      -81.73723294


--------------------------------------------------------------------------------------------------------




--------------------------------------- Iteration      1(  22)  ---------------------------------------


    POTLOK:  cpu time    0.1011: real time    0.1011
    SETDIJ:  cpu time    0.6363: real time    0.6365
    TRIAL :  cpu time    2.5234: real time    2.5263
 BZINTS: Fermi energy:  5.379845;172.000000 electrons
         Band energy:***********;  BLOECHL correction:  0.000000
[...]
 -0.000  -0.000  -0.000  -0.000   0.000  -0.000   0.000  -0.000  -0.000   0.000   0.000  -0.000   0.000  -0.000  -0.000   0.000
 pseudopotential strength for first ion, spin component:           3
 -0.000   0.000  -0.000   0.000   0.000  -0.000  -0.000   0.000  -0.000   0.000   0.000  -0.000  -0.000   0.000  -0.000   0.000
 -0.000   0.000  -0.000   0.000   0.000  -0.000  -0.000   0.000  -0.000   0.000   0.000  -0.000  -0.000   0.000  -0.000   0.000
  0.000  -0.000   0.000  -0.000  -0.000   0.000   0.000  -0.000   0.000   0.000  -0.000   0.000   0.000  -0.000   0.000   0.000
 -0.000   0.000  -0.000   0.000   0.000  -0.000  -0.000   0.000   0.000   0.000   0.000  -0.000  -0.000   0.000   0.000   0.000
 -0.000   0.000  -0.000   0.000   0.000   0.000   0.000   0.000  -0.000  -0.000   0.000   0.000   0.000   0.000  -0.000  -0.000
  0.000  -0.000   0.000  -0.000  -0.000   0.000   0.000  -0.000   0.000   0.000  -0.000   0.000   0.000  -0.000   0.000   0.000
 -0.000   0.000  -0.000   0.000   0.000  -0.000  -0.000   0.000   0.000   0.000   0.000  -0.000  -0.000   0.000   0.000   0.000
 -0.000   0.000  -0.000   0.000   0.000   0.000   0.000   0.000  -0.000  -0.000   0.000   0.000   0.000   0.000  -0.000  -0.000
 pseudopotential strength for first ion, spin component:           4
 39.427   0.000  45.280   0.000  -0.001   0.000  -0.002   0.000  -0.002   0.000  -0.001   0.000  -0.002   0.000  -0.003   0.000
 45.280   0.000  52.003   0.000  -0.001   0.000  -0.002   0.000  -0.003   0.000  -0.001   0.000  -0.002   0.000  -0.004   0.000
 -0.001   0.000  -0.001   0.000   8.191   0.000   0.002   0.000  -0.001   0.000  11.103   0.000   0.002   0.000  -0.001   0.000
 -0.002   0.000  -0.002   0.000   0.002   0.000   8.193   0.000  -0.000   0.000   0.002   0.000  11.106   0.000  -0.000   0.000
 -0.002   0.000  -0.003   0.000  -0.001   0.000  -0.000   0.000   8.191   0.000  -0.001   0.000  -0.000   0.000  11.103   0.000
 -0.001   0.000  -0.001   0.000  11.103   0.000   0.002   0.000  -0.001   0.000  15.069   0.000   0.003   0.000  -0.002   0.000
 -0.002   0.000  -0.002   0.000   0.002   0.000  11.106   0.000  -0.000   0.000   0.003   0.000  15.073   0.000  -0.000   0.000
 -0.003   0.000  -0.004   0.000  -0.001   0.000  -0.000   0.000  11.103   0.000  -0.002   0.000  -0.000   0.000  15.069   0.000
 total augmentation occupancy for first ion, spin component:           1
 11.325  -7.096   0.000   0.000  -0.492   0.000   0.000   0.125
 -7.096   5.156   0.000   0.000   0.402   0.000   0.000  -0.074
  0.000   0.000   3.604   0.076   0.000  -1.011  -0.038   0.000
  0.000   0.000   0.076   3.869   0.000  -0.038  -1.152   0.000
 -0.492   0.402   0.000   0.000   3.604   0.000   0.000  -1.013
  0.000   0.000  -1.011  -0.038   0.000   0.344   0.014   0.000
  0.000   0.000  -0.038  -1.152   0.000   0.014   0.397   0.000
  0.125  -0.074   0.000   0.000  -1.013   0.000   0.000   0.345
 total augmentation occupancy for first ion, spin component:           2
 -0.000   0.000   0.000   0.000   0.000   0.000   0.000  -0.000
  0.000  -0.000  -0.000   0.000  -0.000   0.000   0.000   0.000
  0.000   0.000   0.000   0.000   0.000  -0.000   0.000   0.000
  0.000   0.000   0.000   0.000  -0.000  -0.000  -0.000   0.000
  0.000  -0.000   0.000   0.000  -0.000   0.000   0.000   0.000
  0.000  -0.000  -0.000  -0.000   0.000   0.000  -0.000   0.000
 -0.000   0.000   0.000  -0.000   0.000  -0.000   0.000   0.000
 -0.000   0.000   0.000   0.000   0.000   0.000   0.000  -0.000
 total augmentation occupancy for first ion, spin component:           3
  0.000  -0.000  -0.000   0.000   0.000   0.000  -0.000   0.000
  0.000   0.000   0.000  -0.000   0.000  -0.000   0.000   0.000
 -0.000   0.000  -0.000   0.000   0.000  -0.000  -0.000  -0.000
  0.000  -0.000   0.000  -0.000  -0.000  -0.000   0.000   0.000
  0.000   0.000   0.000  -0.000  -0.000  -0.000   0.000  -0.000
  0.000  -0.000   0.000  -0.000  -0.000   0.000   0.000   0.000
 -0.000   0.000   0.000   0.000   0.000   0.000  -0.000  -0.000
  0.000   0.000  -0.000   0.000   0.000   0.000  -0.000   0.000
 total augmentation occupancy for first ion, spin component:           4
  0.000   0.000   0.099   0.092   0.000   0.082   0.088   0.000
  0.000   0.000  -0.078  -0.070   0.000  -0.089  -0.095   0.000
  0.099  -0.078  -0.000   0.000   0.005   0.000   0.000   0.001
  0.092  -0.070   0.000  -0.000   0.009   0.000   0.000  -0.008
  0.000   0.000   0.005   0.009   0.000   0.001  -0.008   0.000
  0.082  -0.089   0.000   0.000   0.001  -0.000   0.000   0.015
  0.088  -0.095   0.000   0.000  -0.008   0.000   0.000   0.016
  0.000   0.000   0.001  -0.008   0.000   0.015   0.016  -0.000


------------------------ aborting loop because EDIFF is reached ----------------------------------------


 


 total charge     
 
# of ion       s       p       d       tot
------------------------------------------
    1        1.314   2.421   0.000   3.735
    2        1.314   2.421   0.000   3.735
    3        1.314   2.420   0.000   3.734
    4        1.314   2.419   0.000   3.733
    5        1.314   2.421   0.000   3.735
    6        1.314   2.421   0.000   3.735
    7        1.314   2.420   0.000   3.734
    8        1.314   2.419   0.000   3.733
    9        0.267   6.215   8.911  15.393
   10        0.267   6.215   8.911  15.393
   11        0.267   6.215   8.911  15.393
   12        0.267   6.215   8.911  15.393
   13        0.353   6.359   5.836  12.548
   14        0.353   6.359   5.835  12.548
   15        0.353   6.359   5.836  12.548
   16        0.353   6.359   5.835  12.548
--------------------------------------------------
tot         12.989  69.662  58.986 141.636
 


 magnetization (x)
 
# of ion       s       p       d       tot
------------------------------------------
    1       -0.000  -0.000   0.000  -0.000
    2        0.000   0.000   0.000   0.000
    3       -0.000  -0.000   0.000  -0.000
    4       -0.000  -0.000   0.000  -0.000
    5        0.000   0.000   0.000   0.000
    6       -0.000  -0.000   0.000  -0.000
    7       -0.000  -0.000   0.000  -0.000
    8       -0.000  -0.000   0.000  -0.000
    9       -0.000   0.000   0.000   0.000
   10        0.000  -0.000  -0.000  -0.000
   11       -0.000   0.000   0.000   0.000
   12        0.000  -0.000  -0.000  -0.000
   13       -0.000  -0.000  -0.000  -0.000
   14        0.000  -0.000  -0.000  -0.000
   15       -0.000  -0.000  -0.000  -0.000
   16        0.000  -0.000  -0.000  -0.000
--------------------------------------------------
tot         -0.000  -0.000  -0.000  -0.000
 


 magnetization (y)
 
# of ion       s       p       d       tot
------------------------------------------
    1       -0.000   0.000   0.000   0.000
    2       -0.000   0.000   0.000   0.000
    3       -0.000  -0.000   0.000  -0.000
    4        0.000   0.000   0.000   0.000
    5       -0.000   0.000   0.000   0.000
    6       -0.000   0.000   0.000   0.000
    7       -0.000  -0.000   0.000  -0.000
    8        0.000   0.000   0.000   0.000
    9       -0.000   0.000   0.000   0.000
   10       -0.000   0.000  -0.000  -0.000
   11       -0.000   0.000   0.000   0.000
   12       -0.000   0.000  -0.000  -0.000
   13       -0.000   0.000   0.000   0.000
   14       -0.000   0.000   0.000   0.000
   15       -0.000   0.000   0.000   0.000
   16       -0.000   0.000   0.000   0.000
--------------------------------------------------
tot         -0.000   0.000   0.000   0.000
 


 magnetization (z)
 
# of ion       s       p       d       tot
------------------------------------------
    1        0.000  -0.003   0.000  -0.002
    2        0.000  -0.004   0.000  -0.003
    3       -0.000   0.004   0.000   0.003
    4       -0.000   0.003   0.000   0.003
    5        0.000  -0.004   0.000  -0.003
    6        0.000  -0.003   0.000  -0.002
    7       -0.000   0.004   0.000   0.003
    8       -0.000   0.003   0.000   0.003
    9        0.001  -0.002   0.019   0.018
   10       -0.001   0.003  -0.019  -0.017
   11        0.001  -0.002   0.019   0.018
   12       -0.001   0.003  -0.019  -0.017
   13        0.020   0.053   3.651   3.724
   14       -0.020  -0.053  -3.651  -3.724
   15        0.020   0.053   3.651   3.724
   16       -0.020  -0.053  -3.651  -3.724
--------------------------------------------------
tot         -0.000   0.001  -0.001  -0.000
 
    FORLOC:  cpu time    0.0050: real time    0.0050
    FORNL :  cpu time    0.7243: real time    0.7245
    STRESS:  cpu time    0.6416: real time    0.6419
    FORCOR:  cpu time    0.0905: real time    0.0905
    OFIELD:  cpu time    0.0007: real time    0.0007

  FORCE on cell =-STRESS in cart. coord.  units (eV):
  Direction    XX          YY          ZZ          XY          YZ          ZX
  --------------------------------------------------------------------------------------
  Alpha Z   606.58318   606.58318   606.58318
  Ewald   -5445.64490 -5445.64490 -4899.40958     0.00000     0.00000     0.00000
  Hartree  3450.35470  3450.35470  3724.26353    -0.00000     0.00000     0.00000
  E(xc)   -1051.54492 -1051.54492 -1051.25262    -0.00000    -0.00000    -0.00000
  Local    -907.17161  -907.17161 -1724.62920    -0.00000    -0.00000    -0.00000
  n-local   121.53315   123.11737   129.99732    -0.30267     0.04402    -0.01285
  augment  1179.74494  1179.74494  1183.59566    -0.00000    -0.00000    -0.00000
  Kinetic  2043.13557  2059.70778  2030.85139    -0.87292     0.12094     0.02808
  Fock        0.00000     0.00000     0.00000     0.00000     0.00000     0.00000
  -------------------------------------------------------------------------------------
  Total       6.06831     6.06831    -0.00032     0.00000     0.00000     0.00000
  in kB      34.80448    34.80448    -0.00181     0.00000     0.00000     0.00000
  external pressure =       23.20 kB  Pullay stress =        0.00 kB


 VOLUME and BASIS-vectors are now :
 -----------------------------------------------------------------------------
  energy-cutoff  :      700.00
  volume of cell :      279.35
      direct lattice vectors                 reciprocal lattice vectors
     4.995846373  0.000000000  0.000000000     0.200166283  0.000000000  0.000000000
     0.000000000  4.995846373  0.000000000     0.000000000  0.200166283  0.000000000
     0.000000000  0.000000000 11.192449375     0.000000000  0.000000000  0.089345948

  length of vectors
     4.995846373  4.995846373 11.192449375     0.200166283  0.200166283  0.089345948


 FORCES acting on ions:
    Electron-Ion                     Ewald-Force                    Non-Local-Force
 -----------------------------------------------------------------------------------------------
   0.413E+02 -.400E-12 -.163E-12   -.421E+02 0.469E-12 -.142E-12   0.846E+00 -.354E-18 -.251E-18
   -.413E+02 -.383E-13 0.803E-12   0.421E+02 -.824E-12 -.568E-13   -.846E+00 0.244E-18 -.216E-17
   0.365E-12 -.413E+02 -.229E-13   0.500E-12 0.421E+02 0.000E+00   -.769E-19 -.846E+00 0.458E-18
   0.961E-12 0.413E+02 -.533E-13   -.880E-12 -.421E+02 0.142E-13   -.164E-18 0.846E+00 0.168E-17
   -.413E+02 -.312E-13 -.275E-12   0.421E+02 0.531E-12 -.426E-13   -.846E+00 -.501E-19 0.129E-17
   0.413E+02 0.279E-12 -.787E-14   -.421E+02 -.831E-12 -.568E-13   0.846E+00 0.616E-19 0.160E-17
   0.649E-12 -.413E+02 -.523E-12   -.753E-12 0.421E+02 -.568E-13   -.815E-19 -.846E+00 -.448E-18
   0.110E-12 0.413E+02 0.556E-12   0.469E-12 -.421E+02 -.284E-13   -.209E-18 0.846E+00 -.317E-18
   0.202E-12 0.165E-12 0.404E-11   0.970E-05 -.198E-04 0.000E+00   -.267E-18 0.108E-18 0.174E-17
   0.169E-11 -.239E-12 -.742E-11   -.970E-05 -.198E-04 -.824E-11   -.299E-18 -.553E-18 0.168E-17
   0.170E-11 -.498E-11 0.730E-12   -.970E-05 0.198E-04 0.171E-12   0.317E-18 -.540E-18 -.183E-17
   0.236E-12 0.129E-11 0.431E-11   0.970E-05 0.198E-04 0.826E-11   0.256E-18 0.958E-19 -.113E-17
   0.161E-12 -.512E-13 0.687E-12   -.701E-05 0.167E-04 0.114E-12   -.127E-18 0.231E-18 0.138E-17
   0.767E-12 0.131E-12 -.299E-10   0.701E-05 0.167E-04 -.652E-11   0.180E-18 -.399E-19 -.144E-17
   0.799E-12 -.467E-11 -.859E-11   0.701E-05 -.167E-04 0.000E+00   -.279E-18 0.862E-19 0.128E-17
   0.138E-12 0.745E-12 0.762E-14   -.701E-05 -.167E-04 0.659E-11   0.262E-18 0.897E-19 -.121E-17
 -----------------------------------------------------------------------------------------------
   0.168E-10 -.158E-11 -.360E-10   0.364E-13 -.732E-13 0.104E-13   -.111E-15 -.445E-15 0.232E-17
 
 
 POSITION                                       TOTAL-FORCE (eV/Angst)
 -----------------------------------------------------------------------------------
      1.26620      1.24896      1.39906         0.000002      0.000000     -0.000000
      3.72965      3.74688      1.39906        -0.000002      0.000000      0.000000
      1.24896      3.72965      9.79339        -0.000000     -0.000002     -0.000000
      3.74688      1.26620      9.79339        -0.000000      0.000002     -0.000000
      1.23173      1.24896      6.99528        -0.000002      0.000000      0.000000
      3.76412      3.74688      6.99528         0.000002      0.000000     -0.000000
      3.74688      1.23173      4.19717        -0.000000     -0.000002      0.000000
      1.24896      3.76412      4.19717        -0.000000      0.000002     -0.000000
      0.00000      0.00000      5.59622        -0.000000      0.000000      0.000000
      2.49792      0.00000      2.79811         0.000000     -0.000000     -0.000000
      2.49792      2.49792      0.00000        -0.000000      0.000000      0.000000
      0.00000      2.49792      8.39434         0.000000      0.000000     -0.000000
      0.00000      0.00000      0.00000         0.000000      0.000000     -0.000000
      2.49792      0.00000      8.39434        -0.000000     -0.000000      0.000000
      2.49792      2.49792      5.59622         0.000000      0.000000      0.000000
      0.00000      2.49792      2.79811        -0.000000      0.000000      0.000000
 -----------------------------------------------------------------------------------
    total drift:                                0.000000     -0.000000     -0.000000


--------------------------------------------------------------------------------------------------------



  FREE ENERGIE OF THE ION-ELECTRON SYSTEM (eV)
  ---------------------------------------------------
  free  energy   TOTEN  =       -81.73723337 eV

  energy  without entropy=      -81.73723337  energy(sigma->0) =      -81.73723337
 


--------------------------------------------------------------------------------------------------------


    POTLOK:  cpu time    0.7340: real time    0.7342


--------------------------------------------------------------------------------------------------------


 writing wavefunctions
     LOOP+:  cpu time  321.8339: real time  327.6011
    4ORBIT:  cpu time    0.0000: real time    0.0000
 


 total charge     
 
# of ion       s       p       d       tot
------------------------------------------
    1        1.314   2.421   0.000   3.735
    2        1.314   2.421   0.000   3.735
    3        1.314   2.420   0.000   3.734
    4        1.314   2.419   0.000   3.733
    5        1.314   2.421   0.000   3.735
    6        1.314   2.421   0.000   3.735
    7        1.314   2.420   0.000   3.734
    8        1.314   2.419   0.000   3.733
    9        0.267   6.215   8.911  15.393
   10        0.267   6.215   8.911  15.393
   11        0.267   6.215   8.911  15.393
   12        0.267   6.215   8.911  15.393
   13        0.353   6.359   5.836  12.548
   14        0.353   6.359   5.835  12.548
   15        0.353   6.359   5.836  12.548
   16        0.353   6.359   5.835  12.548
--------------------------------------------------
tot         12.989  69.662  58.986 141.636
 


 magnetization (x)
 
# of ion       s       p       d       tot
------------------------------------------
    1       -0.000  -0.000   0.000  -0.000
    2        0.000   0.000   0.000   0.000
    3       -0.000  -0.000   0.000  -0.000
    4       -0.000  -0.000   0.000  -0.000
    5        0.000   0.000   0.000   0.000
    6       -0.000  -0.000   0.000  -0.000
    7       -0.000  -0.000   0.000  -0.000
    8       -0.000  -0.000   0.000  -0.000
    9       -0.000   0.000   0.000   0.000
   10        0.000  -0.000  -0.000  -0.000
   11       -0.000   0.000   0.000   0.000
   12        0.000  -0.000  -0.000  -0.000
   13       -0.000  -0.000  -0.000  -0.000
   14        0.000  -0.000  -0.000  -0.000
   15       -0.000  -0.000  -0.000  -0.000
   16        0.000  -0.000  -0.000  -0.000
--------------------------------------------------
tot         -0.000  -0.000  -0.000  -0.000
 


 magnetization (y)
 
# of ion       s       p       d       tot
------------------------------------------
    1       -0.000   0.000   0.000   0.000
    2       -0.000   0.000   0.000   0.000
    3       -0.000  -0.000   0.000  -0.000
    4        0.000   0.000   0.000   0.000
    5       -0.000   0.000   0.000   0.000
    6       -0.000   0.000   0.000   0.000
    7       -0.000  -0.000   0.000  -0.000
    8        0.000   0.000   0.000   0.000
    9       -0.000   0.000   0.000   0.000
   10       -0.000   0.000  -0.000  -0.000
   11       -0.000   0.000   0.000   0.000
   12       -0.000   0.000  -0.000  -0.000
   13       -0.000   0.000   0.000   0.000
   14       -0.000   0.000   0.000   0.000
   15       -0.000   0.000   0.000   0.000
   16       -0.000   0.000   0.000   0.000
--------------------------------------------------
tot         -0.000   0.000   0.000   0.000
 


 magnetization (z)
 
# of ion       s       p       d       tot
------------------------------------------
    1        0.000  -0.003   0.000  -0.002
    2        0.000  -0.004   0.000  -0.003
    3       -0.000   0.004   0.000   0.003
    4       -0.000   0.003   0.000   0.003
    5        0.000  -0.004   0.000  -0.003
    6        0.000  -0.003   0.000  -0.002
    7       -0.000   0.004   0.000   0.003
    8       -0.000   0.003   0.000   0.003
    9        0.001  -0.002   0.019   0.018
   10       -0.001   0.003  -0.019  -0.017
   11        0.001  -0.002   0.019   0.018
   12       -0.001   0.003  -0.019  -0.017
   13        0.020   0.053   3.651   3.724
   14       -0.020  -0.053  -3.651  -3.724
   15        0.020   0.053   3.651   3.724
   16       -0.020  -0.053  -3.651  -3.724
--------------------------------------------------
tot         -0.000   0.001  -0.001  -0.000
 
 BZINTS: Fermi energy:  5.379847;172.000000 electrons
         Band energy:***********;  BLOECHL correction:  0.000000
 BZINTS: Fermi energy:  5.379847;172.000000 electrons
         Band energy:***********;  BLOECHL correction:  0.000000
 BZINTS: Fermi energy:  5.379847;172.000000 electrons
         Band energy:***********;  BLOECHL correction:  0.000000
 BZINTS: Fermi energy:  5.379847;172.000000 electrons
         Band energy:***********;  BLOECHL correction:  0.000000

 total amount of memory used by VASP MPI-rank0    63815. kBytes
=======================================================================

   base      :      30000. kBytes
   nonl-proj :       3750. kBytes
   fftplans  :       1479. kBytes
   grid      :       6021. kBytes
   one-center:         62. kBytes
   wavefun   :      22503. kBytes
 
  
  
 General timing and accounting informations for this job:
 ========================================================
  
                  Total CPU time used (sec):      349.020
                            User time (sec):      329.823
                          System time (sec):       19.198
                         Elapsed time (sec):      357.062
  
                   Maximum memory used (kb):      354440.
                   Average memory used (kb):           0.
  
                          Minor page faults:       299629
                          Major page faults:           90
                 Voluntary context switches:        61005
