 vasp.5.4.4.18Apr17-6-g9f103f2a35 (build Oct 30 2023 17:30:16) complex          
  
 executed on             LinuxIFC date 2024.06.29  01:09:53
 running on  256 total cores
 distrk:  each k-point on  256 cores,    1 groups
 distr:  one band on NCORES_PER_BAND=   1 cores,  256 groups


--------------------------------------------------------------------------------------------------------


 INCAR:
 POTCAR:    PAW_PBE S 06Sep2000                   
 POTCAR:     PAW_PBE Cu_pv 06Sep2000              
 POTCAR:     PAW_PBE Fe_pv 02Aug2007              

 ----------------------------------------------------------------------------- 
|                                                                             |
|           W    W    AA    RRRRR   N    N  II  N    N   GGGG   !!!           |
|           W    W   A  A   R    R  NN   N  II  NN   N  G    G  !!!           |
|           W    W  A    A  R    R  N N  N  II  N N  N  G       !!!           |
|           W WW W  AAAAAA  RRRRR   N  N N  II  N  N N  G  GGG   !            |
|           WW  WW  A    A  R   R   N   NN  II  N   NN  G    G                |
|           W    W  A    A  R    R  N    N  II  N    N   GGGG   !!!           |
|                                                                             |
|      For optimal performance we recommend to set                            |
|        NCORE= 4 - approx SQRT( number of cores)                             |
|      NCORE specifies how many cores store one orbital (NPAR=cpu/NCORE).     |
|      This setting can  greatly improve the performance of VASP for DFT.     |
|      The default,   NCORE=1            might be grossly inefficient         |
|      on modern multi-core architectures or massively parallel machines.     |
|      Do your own testing !!!!                                               |
|      Unfortunately you need to use the default for GW and RPA calculations. |
|      (for HF NCORE is supported but not extensively tested yet)             |
|                                                                             |
 ----------------------------------------------------------------------------- 

 POTCAR:    PAW_PBE S 06Sep2000                   
   SHA256 =  0fc7481fb0695f01bdc6462160264c5c84044ae9ec85a907d398b887a2bc3132 S/
   COPYR  = (c) Copyright 06Sep2000 Georg Kresse                                
   COPYR  = This file is part of the software VASP. Any use, copying, and all ot
   COPYR  = If you do not have a valid VASP license, you may not use, copy or di
   VRHFIN =S : s2p4                                                             
   LEXCH  = PE                                                                  
   EATOM  =   276.8230 eV,   20.3459 Ry                                         
                                                                                
   TITEL  = PAW_PBE S 06Sep2000                                                 
   LULTRA =        F    use ultrasoft PP ?                                      
   IUNSCR =        1    unscreen: 0-lin 1-nonlin 2-no                           
   RPACOR =    1.500    partial core radius                                     
   POMASS =   32.066; ZVAL   =    6.000    mass and valenz                      
   RCORE  =    1.900    outmost cutoff radius                                   
   RWIGS  =    2.200; RWIGS  =    1.164    wigner-seitz radius (au A)           
   ENMAX  =  258.689; ENMIN  =  194.016 eV                                      
   ICORE  =        2    local potential                                         
   LCOR   =        T    correct aug charges                                     
   LPAW   =        T    paw PP                                                  
   EAUG   =  335.092                                                            
   DEXC   =    0.000                                                            
   RMAX   =    1.942    core radius for proj-oper                               
   RAUG   =    1.300    factor for augmentation sphere                          
   RDEP   =    1.954    radius for radial grids                                 
   RDEPT  =    1.744    core radius for aug-charge                              
                                                                                
   Atomic configuration                                                         
    6 entries                                                                   
     n  l   j            E        occ.                                          
     1  0  0.50     -2405.8406   2.0000                                         
     2  0  0.50      -211.7007   2.0000                                         
     2  1  1.50      -156.4958   6.0000                                         
     3  0  0.50       -17.2562   2.0000                                         
     3  1  0.50        -7.0085   4.0000                                         
     3  2  1.50        -6.8029   0.0000                                         
   Description                                                                  
     l       E           TYP  RCUT    TYP  RCUT                                 
     0    -17.2561641     23  1.900                                             
     0    -15.8743224     23  1.900                                             
     1     -7.0085400     23  1.900                                             
     1     -2.7779785     23  1.900                                             
     2     -6.8029130     23  1.900                                             
  local pseudopotential read in
  partial core-charges read in
  partial kinetic energy density read in
  atomic valenz-charges read in
  non local Contribution for L=           0  read in
    real space projection operators read in
  non local Contribution for L=           0  read in
    real space projection operators read in
  non local Contribution for L=           1  read in
    real space projection operators read in
  non local Contribution for L=           1  read in
    real space projection operators read in
    PAW grid and wavefunctions read in
 
   number of l-projection  operators is LMAX  =           4
   number of lm-projection operators is LMMAX =           8
 
 POTCAR:     PAW_PBE Cu_pv 06Sep2000              
   SHA256 =  cb7b504e2ea725fe1f25c85a9ac77d4012ce94cd394135b722c4e25ec297f1cb Cu
   COPYR  = (c) Copyright 06Sep2000 Georg Kresse                                
   COPYR  = This file is part of the software VASP. Any use, copying, and all ot
   COPYR  = If you do not have a valid VASP license, you may not use, copy or di
   VRHFIN =Cu: d10 p1                                                           
   LEXCH  = PE                                                                  
   EATOM  =  4120.1201 eV,  302.8203 Ry                                         
                                                                                
   TITEL  = PAW_PBE Cu_pv 06Sep2000                                             
   LULTRA =        F    use ultrasoft PP ?                                      
   IUNSCR =        1    unscreen: 0-lin 1-nonlin 2-no                           
   RPACOR =    1.500    partial core radius                                     
   POMASS =   63.546; ZVAL   =   17.000    mass and valenz                      
   RCORE  =    2.000    outmost cutoff radius                                   
   RWIGS  =    2.000; RWIGS  =    1.058    wigner-seitz radius (au A)           
   ENMAX  =  368.648; ENMIN  =  276.486 eV                                      
   RCLOC  =    1.304    cutoff for local pot                                    
   LCOR   =        T    correct aug charges                                     
   LPAW   =        T    paw PP                                                  
   EAUG   =  758.233                                                            
   DEXC   =    0.000                                                            
   RMAX   =    2.046    core radius for proj-oper                               
   RAUG   =    1.300    factor for augmentation sphere                          
   RDEP   =    2.025    radius for radial grids                                 
   RDEPT  =    1.558    core radius for aug-charge                              
                                                                                
   Atomic configuration                                                         
    8 entries                                                                   
     n  l   j            E        occ.                                          
     1  0  0.50     -8850.2467   2.0000                                         
     2  0  0.50     -1062.3498   2.0000                                         
     2  1  1.50      -916.8226   6.0000                                         
     3  0  0.50      -114.6929   2.0000                                         
     3  1  1.50       -72.1325   6.0000                                         
     3  2  2.50        -5.0394  10.0000                                         
     4  0  0.50        -4.6097   1.0000                                         
     4  3  2.50        -1.3606   0.0000                                         
   Description                                                                  
     l       E           TYP  RCUT    TYP  RCUT                                 
     1    -72.1324777     23  1.700                                             
     1     -1.3605826     23  1.700                                             
     2     -5.0393776     23  2.000                                             
     2     -6.3999602     23  2.000                                             
     0     -4.6097062     23  1.800                                             
     0     14.1620818     23  1.800                                             
  local pseudopotential read in
  partial core-charges read in
  partial kinetic energy density read in
  atomic valenz-charges read in
  non local Contribution for L=           1  read in
    real space projection operators read in
  non local Contribution for L=           1  read in
    real space projection operators read in
  non local Contribution for L=           2  read in
    real space projection operators read in
  non local Contribution for L=           2  read in
    real space projection operators read in
  non local Contribution for L=           0  read in
    real space projection operators read in
  non local Contribution for L=           0  read in
    real space projection operators read in
    PAW grid and wavefunctions read in
 
   number of l-projection  operators is LMAX  =           6
   number of lm-projection operators is LMMAX =          18
 
 POTCAR:     PAW_PBE Fe_pv 02Aug2007              
   SHA256 =  5d22e414b1f82158bf2c7ecb8b97b28fd0923e48cadc1c3bf74d524558f5dd32 Fe
   COPYR  = (c) Copyright 02Aug2007 Georg Kresse                                
   COPYR  = This file is part of the software VASP. Any use, copying, and all ot
   COPYR  = If you do not have a valid VASP license, you may not use, copy or di
   VRHFIN =Fe:  3pd7s1                                                          
   LEXCH  = PE                                                                  
   EATOM  =  2457.4239 eV,  180.6156 Ry                                         
                                                                                
   TITEL  = PAW_PBE Fe_pv 02Aug2007                                             
   LULTRA =        F    use ultrasoft PP ?                                      
   IUNSCR =        1    unscreen: 0-lin 1-nonlin 2-no                           
   RPACOR =    1.750    partial core radius                                     
   POMASS =   55.847; ZVAL   =   14.000    mass and valenz                      
   RCORE  =    2.200    outmost cutoff radius                                   
   RWIGS  =    2.200; RWIGS  =    1.164    wigner-seitz radius (au A)           
   ENMAX  =  293.238; ENMIN  =  219.928 eV                                      
   ICORE  =        3    local potential                                         
   LCOR   =        T    correct aug charges                                     
   LPAW   =        T    paw PP                                                  
   EAUG   =  578.342                                                            
   DEXC   =    0.000                                                            
   RMAX   =    2.249    core radius for proj-oper                               
   RAUG   =    1.300    factor for augmentation sphere                          
   RDEP   =    2.296    radius for radial grids                                 
   RDEPT  =    1.766    core radius for aug-charge                              
                                                                                
   Atomic configuration                                                         
    8 entries                                                                   
     n  l   j            E        occ.                                          
     1  0  0.50     -6993.8440   2.0000                                         
     2  0  0.50      -814.6047   2.0000                                         
     2  1  1.50      -693.3689   6.0000                                         
     3  0  0.50       -89.4732   2.0000                                         
     3  1  1.50       -55.6373   6.0000                                         
     3  2  2.50        -3.8151   7.0000                                         
     4  0  0.50        -4.2551   1.0000                                         
     4  3  2.50        -1.3606   0.0000                                         
   Description                                                                  
     l       E           TYP  RCUT    TYP  RCUT                                 
     1    -55.6372668     23  2.000                                             
     1     -5.4423304     23  2.000                                             
     2     -3.8151096     23  2.200                                             
     2     -5.1756922     23  2.200                                             
     0     -4.2550951     23  2.200                                             
     0     27.2116520     23  2.200                                             
     3     -1.3605826     23  2.200                                             
  local pseudopotential read in
  partial core-charges read in
  partial kinetic energy density read in
  atomic valenz-charges read in
  non local Contribution for L=           1  read in
    real space projection operators read in
  non local Contribution for L=           1  read in
    real space projection operators read in
  non local Contribution for L=           2  read in
    real space projection operators read in
  non local Contribution for L=           2  read in
    real space projection operators read in
  non local Contribution for L=           0  read in
    real space projection operators read in
  non local Contribution for L=           0  read in
    real space projection operators read in
    PAW grid and wavefunctions read in
 
   number of l-projection  operators is LMAX  =           6
   number of lm-projection operators is LMMAX =          18
 

 ----------------------------------------------------------------------------- 
|                                                                             |
|  ADVICE TO THIS USER RUNNING 'VASP/VAMP'   (HEAR YOUR MASTER'S VOICE ...):  |
|                                                                             |
|      You have a (more or less) 'large supercell' and for larger cells       |
|      it might be more efficient to use real space projection opertators     |
|      So try LREAL= Auto  in the INCAR   file.                               |
|      Mind:          For very  accurate calculation you might also keep the  |
|      reciprocal projection scheme          (i.e. LREAL=.FALSE.)             |
|                                                                             |
 ----------------------------------------------------------------------------- 


 ----------------------------------------------------------------------------- 
|                                                                             |
|  ADVICE TO THIS USER RUNNING 'VASP/VAMP'   (HEAR YOUR MASTER'S VOICE ...):  |
|                                                                             |
|      You enforced a specific xc-type in the INCAR file,                     |
|      a different type was found on the POTCAR file                          |
|          I HOPE YOU KNOW, WHAT YOU ARE  DOING                               |
|                                                                             |
 ----------------------------------------------------------------------------- 

  PAW_PBE S 06Sep2000                   :
 energy of atom  1       EATOM= -276.8230
 kinetic energy error for atom=    0.0007 (will be added to EATOM!!)
   PAW_PBE Cu_pv 06Sep2000              :
 energy of atom  2       EATOM=-4120.1201
 kinetic energy error for atom=    0.0094 (will be added to EATOM!!)
   PAW_PBE Fe_pv 02Aug2007              :
 energy of atom  3       EATOM=-2457.4239
 kinetic energy error for atom=    0.0025 (will be added to EATOM!!)
 
 
 POSCAR: Fe16 Cu16 S32                           
  positions in direct lattice
  No initial velocities read in
 exchange correlation table for  LEXCH =       14
   RHO(1)=    0.500       N(1)  =     2000
   RHO(2)=  100.500       N(2)  =     4000
 


--------------------------------------------------------------------------------------------------------


 ion  position               nearest neighbor table
   1  0.126  0.126  0.118-  37 2.25  61 2.27  41 2.28  49 2.29
   2  0.626  0.126  0.118-  38 2.25  62 2.27  42 2.28  50 2.29
   3  0.126  0.626  0.118-  39 2.25  63 2.27  43 2.28  51 2.29
   4  0.626  0.626  0.118-  40 2.25  64 2.27  44 2.28  52 2.29
   5  0.374  0.374  0.118-  39 2.25  62 2.27  41 2.28  52 2.29
   6  0.874  0.374  0.118-  40 2.25  61 2.27  42 2.28  51 2.29
   7  0.374  0.874  0.118-  37 2.25  64 2.27  43 2.28  50 2.29
   8  0.874  0.874  0.118-  38 2.25  63 2.27  44 2.28  49 2.29
   9  0.124  0.374  0.868-  41 2.25  51 2.27  45 2.28  55 2.29
  10  0.624  0.374  0.868-  42 2.25  52 2.27  46 2.28  56 2.29
  11  0.124  0.874  0.868-  43 2.25  49 2.27  47 2.28  53 2.29
  12  0.624  0.874  0.868-  44 2.25  50 2.27  48 2.28  54 2.29
  13  0.376  0.126  0.868-  41 2.25  50 2.27  46 2.28  53 2.29
  14  0.876  0.126  0.868-  42 2.25  49 2.27  45 2.28  54 2.29
  15  0.376  0.626  0.868-  43 2.25  52 2.27  48 2.28  55 2.29
  16  0.876  0.626  0.868-  44 2.25  51 2.27  47 2.28  56 2.29
  17  0.124  0.124  0.618-  45 2.25  53 2.27  33 2.28  57 2.29
  18  0.624  0.124  0.618-  46 2.25  54 2.27  34 2.28  58 2.29
  19  0.124  0.624  0.618-  47 2.25  55 2.27  35 2.28  59 2.29
  20  0.624  0.624  0.618-  48 2.25  56 2.27  36 2.28  60 2.29
  21  0.376  0.376  0.618-  46 2.25  55 2.27  36 2.28  57 2.29
  22  0.876  0.376  0.618-  45 2.25  56 2.27  35 2.28  58 2.29
  23  0.376  0.876  0.618-  48 2.25  53 2.27  34 2.28  59 2.29
  24  0.876  0.876  0.618-  47 2.25  54 2.27  33 2.28  60 2.29
  25  0.374  0.124  0.368-  34 2.25  57 2.27  37 2.28  62 2.29
  26  0.874  0.124  0.368-  33 2.25  58 2.27  38 2.28  61 2.29
  27  0.374  0.624  0.368-  36 2.25  59 2.27  39 2.28  64 2.29
  28  0.874  0.624  0.368-  35 2.25  60 2.27  40 2.28  63 2.29
  29  0.126  0.376  0.368-  35 2.25  57 2.27  39 2.28  61 2.29
  30  0.626  0.376  0.368-  36 2.25  58 2.27  40 2.28  62 2.29
  31  0.126  0.876  0.368-  33 2.25  59 2.27  37 2.28  63 2.29
  32  0.626  0.876  0.368-  34 2.25  60 2.27  38 2.28  64 2.29
  33  0.000  0.000  0.506-  26 2.25  31 2.25  17 2.28  24 2.28
  34  0.500  0.000  0.506-  25 2.25  32 2.25  18 2.28  23 2.28
  35  0.000  0.500  0.506-  28 2.25  29 2.25  19 2.28  22 2.28
  36  0.500  0.500  0.506-  27 2.25  30 2.25  20 2.28  21 2.28
  37  0.250  0.000  0.256-   1 2.25   7 2.25  25 2.28  31 2.28
  38  0.750  0.000  0.256-   2 2.25   8 2.25  26 2.28  32 2.28
  39  0.250  0.500  0.256-   3 2.25   5 2.25  27 2.28  29 2.28
  40  0.750  0.500  0.256-   4 2.25   6 2.25  28 2.28  30 2.28
  41  0.250  0.250  0.006-   9 2.25  13 2.25   1 2.28   5 2.28
  42  0.750  0.250  0.006-  10 2.25  14 2.25   2 2.28   6 2.28
  43  0.250  0.750  0.006-  11 2.25  15 2.25   3 2.28   7 2.28
  44  0.750  0.750  0.006-  12 2.25  16 2.25   4 2.28   8 2.28
  45  0.000  0.250  0.756-  17 2.25  22 2.25   9 2.28  14 2.28
  46  0.500  0.250  0.756-  18 2.25  21 2.25  10 2.28  13 2.28
  47  0.000  0.750  0.756-  19 2.25  24 2.25  11 2.28  16 2.28
  48  0.500  0.750  0.756-  20 2.25  23 2.25  12 2.28  15 2.28
  49  0.000  0.000  0.008-  11 2.27  14 2.27   1 2.29   8 2.29
  50  0.500  0.000  0.008-  12 2.27  13 2.27   2 2.29   7 2.29
  51  0.000  0.500  0.008-   9 2.27  16 2.27   3 2.29   6 2.29
  52  0.500  0.500  0.008-  10 2.27  15 2.27   4 2.29   5 2.29
  53  0.250  0.000  0.758-  17 2.27  23 2.27  11 2.29  13 2.29
  54  0.750  0.000  0.758-  18 2.27  24 2.27  12 2.29  14 2.29
  55  0.250  0.500  0.758-  19 2.27  21 2.27   9 2.29  15 2.29
  56  0.750  0.500  0.758-  20 2.27  22 2.27  10 2.29  16 2.29
  57  0.250  0.250  0.508-  25 2.27  29 2.27  17 2.29  21 2.29
  58  0.750  0.250  0.508-  26 2.27  30 2.27  18 2.29  22 2.29
  59  0.250  0.750  0.508-  27 2.27  31 2.27  19 2.29  23 2.29
  60  0.750  0.750  0.508-  28 2.27  32 2.27  20 2.29  24 2.29
  61  0.000  0.250  0.258-   1 2.27   6 2.27  26 2.29  29 2.29
  62  0.500  0.250  0.258-   2 2.27   5 2.27  25 2.29  30 2.29
  63  0.000  0.750  0.258-   3 2.27   8 2.27  28 2.29  31 2.29
  64  0.500  0.750  0.258-   4 2.27   7 2.27  27 2.29  32 2.29
 
  LATTYP: Found a base centered orthorhombic cell.
 ALAT       =    13.8977962897
 B/A-ratio  =     1.1342997505
 C/A-ratio  =     0.7512852961
  
  Lattice vectors:
  
 A1 = (  10.4871230000,   0.6598970000,   0.0000000000)
 A2 = (  -0.6598970000, -10.4871230000,   0.0000000000)
 A3 = (   0.0000000000,   0.0000000000, -10.4412100000)


Analysis of symmetry for initial positions (statically):
=====================================================================
 Subroutine PRICEL returns following result:
 
  LATTYP: Found a face centered orthorhombic cell.
 ALAT       =     6.9488981449
 B/A-ratio  =     1.1342997505
 C/A-ratio  =     1.5025705921
  
  Lattice vectors:
  
 A1 = (  -2.7867550000,  -2.7867550000,   5.2206050000)
 A2 = (  -2.4568065000,   2.4568065000,   5.2206050000)
 A3 = (  -5.2435615000,  -0.3299485000,   0.0000000000)
 
   8 primitive cells build up your supercell.
 

 Routine SETGRP: Setting up the symmetry group for a 
 base centered orthorhombic supercell.


 Subroutine GETGRP returns: Found  4 space group operations
 (whereof  2 operations were pure point group operations)
 out of a pool of  8 trial point group operations.


The static configuration has the point symmetry C_2 .
 The point group associated with its full space group is C_2v.


Analysis of symmetry for dynamics (positions and initial velocities):
=====================================================================
 Subroutine PRICEL returns following result:
 
  LATTYP: Found a face centered orthorhombic cell.
 ALAT       =     6.9488981449
 B/A-ratio  =     1.1342997505
 C/A-ratio  =     1.5025705921
  
  Lattice vectors:
  
 A1 = (  -2.7867550000,  -2.7867550000,   5.2206050000)
 A2 = (  -2.4568065000,   2.4568065000,   5.2206050000)
 A3 = (  -5.2435615000,  -0.3299485000,   0.0000000000)
 
   8 primitive cells build up your supercell.
 

 Routine SETGRP: Setting up the symmetry group for a 
 base centered orthorhombic supercell.


 Subroutine GETGRP returns: Found  4 space group operations
 (whereof  2 operations were pure point group operations)
 out of a pool of  8 trial point group operations.


The dynamic configuration has the point symmetry C_2 .
 The point group associated with its full space group is C_2v.


Analysis of structural, dynamic, and magnetic symmetry:
=====================================================================
 Subroutine PRICEL returns following result:
 
  LATTYP: Found a face centered orthorhombic cell.
 ALAT       =     6.9488981449
 B/A-ratio  =     1.1342997505
 C/A-ratio  =     1.5025705921
  
  Lattice vectors:
  
 A1 = (  -2.7867550000,  -2.7867550000,   5.2206050000)
 A2 = (  -2.4568065000,   2.4568065000,   5.2206050000)
 A3 = (  -5.2435615000,  -0.3299485000,   0.0000000000)
 
   8 primitive cells build up your supercell.
 

 Routine SETGRP: Setting up the symmetry group for a 
 base centered orthorhombic supercell.


 Subroutine GETGRP returns: Found  4 space group operations
 (whereof  2 operations were pure point group operations)
 out of a pool of  8 trial point group operations.


The magnetic configuration has the point symmetry C_2 .
 The point group associated with its full space group is C_2v.


 Subroutine INISYM returns: Found  4 space group operations
 (whereof  2 operations are pure point group operations),
 and found     8 'primitive' translations

 
 
 KPOINTS: Automatic mesh                          

Automatic generation of k-mesh.
Space group operators:
 irot       det(A)        alpha          n_x          n_y          n_z        tau_x        tau_y        tau_z
    1     1.000000     0.000000     1.000000     0.000000     0.000000     0.000000     0.000000     0.000000
    2     1.000000   180.000000     0.000000     0.000000     1.000000     0.000000     0.000000     0.000000
    3    -1.000000   180.000000     0.707107     0.707107     0.000000    -0.750000    -0.000000     0.750000
    4    -1.000000   180.000000     0.707107    -0.707107     0.000000    -0.750000    -0.000000     0.750000
 
 Subroutine IBZKPT returns following result:
 ===========================================
 
 Found      6 irreducible k-points:
 
 Following reciprocal coordinates:
            Coordinates               Weight
  0.000000  0.000000  0.000000      1.000000
  0.500000 -0.000000  0.000000      2.000000
  0.500000  0.500000  0.000000      1.000000
  0.000000  0.000000  0.500000      1.000000
  0.500000 -0.000000  0.500000      2.000000
  0.500000  0.500000  0.500000      1.000000
 
 Following cartesian coordinates:
            Coordinates               Weight
  0.000000  0.000000  0.000000      1.000000
  0.047867 -0.003012  0.000000      2.000000
  0.044855  0.044855  0.000000      1.000000
  0.000000  0.000000  0.047887      1.000000
  0.047867 -0.003012  0.047887      2.000000
  0.044855  0.044855  0.047887      1.000000
 
 TETIRR: Found     12 inequivalent tetrahedra from       48
 
 Subroutine IBZKPT_HF returns following result:
 ==============================================
 
 Found      8 k-points in 1st BZ
 the following      8 k-points will be used (e.g. in the exchange kernel)
 Following reciprocal coordinates:   # in IRBZ
  0.000000  0.000000  0.000000    0.12500000   1 t-inv F
  0.500000 -0.000000  0.000000    0.12500000   2 t-inv F
  0.500000  0.500000  0.000000    0.12500000   3 t-inv F
  0.000000  0.000000  0.500000    0.12500000   4 t-inv F
  0.500000 -0.000000  0.500000    0.12500000   5 t-inv F
  0.500000  0.500000  0.500000    0.12500000   6 t-inv F
  0.000000 -0.500000  0.000000    0.12500000   2 t-inv F spinflp
  0.000000 -0.500000  0.500000    0.12500000   5 t-inv F spinflp


--------------------------------------------------------------------------------------------------------




 Dimension of arrays:
   k-points           NKPTS =      6   k-points in BZ     NKDIM =      6   number of bands    NBANDS=    512
   number of dos      NEDOS =    301   number of ions     NIONS =     64
   non local maximal  LDIM  =      6   non local SUM 2l+1 LMDIM =     18
   total plane-waves  NPLWV = 829440
   max r-space proj   IRMAX =      1   max aug-charges    IRDMAX=  23044
   dimension x,y,z NGX =    96 NGY =   96 NGZ =   90
   dimension x,y,z NGXF=   192 NGYF=  192 NGZF=  180
   support grid    NGXF=   192 NGYF=  192 NGZF=  180
   ions per type =              32  16  16
   NGX,Y,Z   is equivalent  to a cutoff of  15.19, 15.19, 14.33 a.u.
   NGXF,Y,Z  is equivalent  to a cutoff of  30.38, 30.38, 28.66 a.u.

 SYSTEM =  CuFeS2                                  
 POSCAR =  Fe16 Cu16 S32                           

 Startparameter for this run:
   NWRITE =      2    write-flag & timer
   PREC   = accura    normal or accurate (medium, high low for compatibility)
   ISTART =      0    job   : 0-new  1-cont  2-samecut
   ICHARG =      1    charge: 1-file 2-atom 10-const
   ISPIN  =      2    spin polarized calculation?
   LNONCOLLINEAR =      F non collinear calculations
   LSORBIT =      F    spin-orbit coupling
   INIWAV =      1    electr: 0-lowe 1-rand  2-diag
   LASPH  =      F    aspherical Exc in radial PAW
   METAGGA=      F    non-selfconsistent MetaGGA calc.

 Electronic Relaxation 1
   ENCUT  =  700.0 eV  51.45 Ry    7.17 a.u.  22.67 22.67 22.52*2*pi/ulx,y,z
   ENINI  =  700.0     initial cutoff
   ENAUG  =  758.2 eV  augmentation charge cutoff
   NELM   =    500;   NELMIN=  2; NELMDL=  0     # of ELM steps 
   EDIFF  = 0.1E-07   stopping-criterion for ELM
   LREAL  =      F    real-space projection
   NLSPLINE    = F    spline interpolate recip. space projectors
   LCOMPAT=      F    compatible to vasp.4.4
   GGA_COMPAT  = T    GGA compatible to vasp.4.4-vasp.4.6
   LMAXPAW     = -100 max onsite density
   LMAXMIX     =    4 max onsite mixed and CHGCAR
   VOSKOWN=      0    Vosko Wilk Nusair interpolation
   ROPT   =    0.00000   0.00000   0.00000
 Ionic relaxation
   EDIFFG = -.1E-04   stopping-criterion for IOM
   NSW    =      0    number of steps for IOM
   NBLOCK =      1;   KBLOCK =      1    inner block; outer block 
   IBRION =     -1    ionic relax: 0-MD 1-quasi-New 2-CG
   NFREE  =      0    steps in history (QN), initial steepest desc. (CG)
   ISIF   =      2    stress and relaxation
   IWAVPR =     10    prediction:  0-non 1-charg 2-wave 3-comb
   ISYM   =      2    0-nonsym 1-usesym 2-fastsym
   LCORR  =      T    Harris-Foulkes like correction to forces

   POTIM  = 0.5000    time-step for ionic-motion
   TEIN   =    0.0    initial temperature
   TEBEG  =    0.0;   TEEND  =   0.0 temperature during run
   SMASS  =  -3.00    Nose mass-parameter (am)
   estimated Nose-frequenzy (Omega)   =  0.10E-29 period in steps =****** mass=  -0.252E-26a.u.
   SCALEE = 1.0000    scale energy and forces
   NPACO  =    256;   APACO  = 16.0  distance and # of slots for P.C.
   PSTRESS=    0.0 pullay stress

  Mass of Ions in am
   POMASS =  32.07 63.55 55.85
  Ionic Valenz
   ZVAL   =   6.00 17.00 14.00
  Atomic Wigner-Seitz radii
   RWIGS  =  -1.00 -1.00 -1.00
  virtual crystal weights 
   VCA    =   1.00  1.00  1.00
   NELECT =     688.0000    total number of electrons
   NUPDOWN=      -1.0000    fix difference up-down

 DOS related values:
   EMIN   =  10.00;   EMAX   =-10.00  energy-range for DOS
   EFERMI =   0.00
   ISMEAR =    -5;   SIGMA  =   0.03  broadening in eV -4-tet -1-fermi 0-gaus

 Electronic relaxation 2 (details)
   IALGO  =     38    algorithm
   LDIAG  =      T    sub-space diagonalisation (order eigenvalues)
   LSUBROT=      F    optimize rotation matrix (better conditioning)
   TURBO    =      0    0=normal 1=particle mesh
   IRESTART =      0    0=no restart 2=restart with 2 vectors
   NREBOOT  =      0    no. of reboots
   NMIN     =      0    reboot dimension
   EREF     =   0.00    reference energy to select bands
   IMIX   =      4    mixing-type and parameters
     AMIX     =   0.40;   BMIX     =  1.00
     AMIX_MAG =   1.60;   BMIX_MAG =  1.00
     AMIN     =   0.10
     WC   =   100.;   INIMIX=   1;  MIXPRE=   1;  MAXMIX= -45

 Intra band minimization:
   WEIMIN = 0.0000     energy-eigenvalue tresh-hold
   EBREAK =  0.49E-11  absolut break condition
   DEPER  =   0.30     relativ break condition  

   TIME   =   0.40     timestep for ELM

  volume/ion in A,a.u.               =      17.87       120.60
  Fermi-wavevector in a.u.,A,eV,Ry     =   1.381945  2.611498 25.984029  1.909772
  Thomas-Fermi vector in A             =   2.506682
 
 Write flags
   LWAVE        =      T    write WAVECAR
   LDOWNSAMPLE  =      F    k-point downsampling of WAVECAR
   LCHARG       =      T    write CHGCAR
   LVTOT        =      F    write LOCPOT, total local potential
   LVHAR        =      F    write LOCPOT, Hartree potential only
   LELF         =      F    write electronic localiz. function (ELF)
   LORBIT       =     11    0 simple, 1 ext, 2 COOP (PROOUT), +10 PAW based schemes


 Dipole corrections
   LMONO  =      F    monopole corrections only (constant potential shift)
   LDIPOL =      F    correct potential (dipole corrections)
   IDIPOL =      0    1-x, 2-y, 3-z, 4-all directions 
   EPSILON=  1.0000000 bulk dielectric constant

 LDA+U is selected, type is set to LDAUTYPE =  2
   angular momentum for each species LDAUL =     2    2    2
   U (eV)           for each species LDAUU =   0.0  0.1  4.7
   J (eV)           for each species LDAUJ =   0.0  0.0  0.0
 Exchange correlation treatment:
   GGA     =    PS    GGA type
   LEXCH   =    14    internal setting for exchange type
   VOSKOWN=      0    Vosko Wilk Nusair interpolation
   LHFCALC =     F    Hartree Fock is set to
   LHFONE  =     F    Hartree Fock one center treatment
   AEXX    =    0.0000 exact exchange contribution

 Linear response parameters
   LEPSILON=     F    determine dielectric tensor
   LRPA    =     F    only Hartree local field effects (RPA)
   LNABLA  =     F    use nabla operator in PAW spheres
   LVEL    =     F    velocity operator in full k-point grid
   LINTERFAST=   F  fast interpolation
   KINTER  =     0    interpolate to denser k-point grid
   CSHIFT  =0.1000    complex shift for real part using Kramers Kronig
   OMEGAMAX=  -1.0    maximum frequency
   DEG_THRESHOLD= 0.2000000E-02 threshold for treating states as degnerate
   RTIME   =   -0.100 relaxation time in fs
  (WPLASMAI=    0.000 imaginary part of plasma frequency in eV, 0.658/RTIME)
   DFIELD  = 0.0000000 0.0000000 0.0000000 field for delta impulse in time
 
 Orbital magnetization related:
   ORBITALMAG=     F  switch on orbital magnetization
   LCHIMAG   =     F  perturbation theory with respect to B field
   DQ        =  0.001000  dq finite difference perturbation B field
   LLRAUG    =     F  two centre corrections for induced B field

 PEAD related settings:
   LPEAD      =     T    switch on PEAD
   IPEAD      =     4    finite difference order for dpsi/dk
   LCALCPOL   =     T    calculate macroscopic polarization
   LCALCEPS   =     F    calculate dielectric tensor
   EFIELD_PEAD=    0.0000    0.0000    0.0000
   SKIP_EDOTP =     F
   LRPA       =     F
   SKIP_SCF   =     F


--------------------------------------------------------------------------------------------------------


 Static calculation
 charge density and potential will be updated during run
 spin polarized calculation
 Variant of blocked Davidson
 Davidson routine will perform the subspace rotation
 perform sub-space diagonalisation
    after iterative eigenvector-optimisation
 modified Broyden-mixing scheme, WC =      100.0
 initial mixing is a Kerker type mixing with AMIX =  0.4000 and BMIX =      1.0000
 Hartree-type preconditioning will be used
 using additional bands          168
 reciprocal scheme for non local part
 use partial core corrections
 calculate Harris-corrections to forces 
   (improved forces if not selfconsistent)
 use gradient corrections 
 use of overlap-Matrix (Vanderbilt PP)
 Fermi weights with tetrahedron method with Bloechl corrections


--------------------------------------------------------------------------------------------------------


  energy-cutoff  :      700.00
  volume of cell :     1143.77
      direct lattice vectors                 reciprocal lattice vectors
    10.487123000  0.659897000  0.000000000     0.095734095 -0.006024020  0.000000000
     0.659897000 10.487123000  0.000000000    -0.006024020  0.095734095  0.000000000
     0.000000000  0.000000000 10.441210000     0.000000000  0.000000000  0.095774340

  length of vectors
    10.507864334 10.507864334 10.441210000     0.095923437  0.095923437  0.095774340


 
 k-points in units of 2pi/SCALE and weight: Automatic mesh                          
   0.00000000  0.00000000  0.00000000       0.125
   0.04786705 -0.00301201  0.00000000       0.250
   0.04485504  0.04485504  0.00000000       0.125
   0.00000000  0.00000000  0.04788717       0.125
   0.04786705 -0.00301201  0.04788717       0.250
   0.04485504  0.04485504  0.04788717       0.125
 
 k-points in reciprocal lattice and weights: Automatic mesh                          
   0.00000000  0.00000000  0.00000000       0.125
   0.50000000 -0.00000000  0.00000000       0.250
   0.50000000  0.50000000  0.00000000       0.125
   0.00000000  0.00000000  0.50000000       0.125
   0.50000000 -0.00000000  0.50000000       0.250
   0.50000000  0.50000000  0.50000000       0.125
 
 position of ions in fractional coordinates (direct lattice) 
   0.12603300  0.12571800  0.11816500
   0.62603300  0.12571800  0.11816500
   0.12603300  0.62571800  0.11816500
   0.62603300  0.62571800  0.11816500
   0.37396700  0.37428200  0.11816500
   0.87396700  0.37428200  0.11816500
   0.37396700  0.87428200  0.11816500
   0.87396700  0.87428200  0.11816500
   0.12428200  0.37396700  0.86816500
   0.62428200  0.37396700  0.86816500
   0.12428200  0.87396700  0.86816500
   0.62428200  0.87396700  0.86816500
   0.37571800  0.12603300  0.86816500
   0.87571800  0.12603300  0.86816500
   0.37571800  0.62603300  0.86816500
   0.87571800  0.62603300  0.86816500
   0.12396700  0.12428200  0.61816500
   0.62396700  0.12428200  0.61816500
   0.12396700  0.62428200  0.61816500
   0.62396700  0.62428200  0.61816500
   0.37603300  0.37571800  0.61816500
   0.87603300  0.37571800  0.61816500
   0.37603300  0.87571800  0.61816500
   0.87603300  0.87571800  0.61816500
   0.37428200  0.12396700  0.36816500
   0.87428200  0.12396700  0.36816500
   0.37428200  0.62396700  0.36816500
   0.87428200  0.62396700  0.36816500
   0.12571800  0.37603300  0.36816500
   0.62571800  0.37603300  0.36816500
   0.12571800  0.87603300  0.36816500
   0.62571800  0.87603300  0.36816500
   0.00000000  0.00000000  0.50590200
   0.50000000  0.00000000  0.50590200
   0.00000000  0.50000000  0.50590200
   0.50000000  0.50000000  0.50590200
   0.25000000  0.00000000  0.25590200
   0.75000000  0.00000000  0.25590200
   0.25000000  0.50000000  0.25590200
   0.75000000  0.50000000  0.25590200
   0.25000000  0.25000000  0.00590200
   0.75000000  0.25000000  0.00590200
   0.25000000  0.75000000  0.00590200
   0.75000000  0.75000000  0.00590200
   0.00000000  0.25000000  0.75590200
   0.50000000  0.25000000  0.75590200
   0.00000000  0.75000000  0.75590200
   0.50000000  0.75000000  0.75590200
   0.00000000  0.00000000  0.00776800
   0.50000000  0.00000000  0.00776800
   0.00000000  0.50000000  0.00776800
   0.50000000  0.50000000  0.00776800
   0.25000000  0.00000000  0.75776800
   0.75000000  0.00000000  0.75776800
   0.25000000  0.50000000  0.75776800
   0.75000000  0.50000000  0.75776800
   0.25000000  0.25000000  0.50776800
   0.75000000  0.25000000  0.50776800
   0.25000000  0.75000000  0.50776800
   0.75000000  0.75000000  0.50776800
   0.00000000  0.25000000  0.25776800
   0.50000000  0.25000000  0.25776800
   0.00000000  0.75000000  0.25776800
   0.50000000  0.75000000  0.25776800
 
 position of ions in cartesian coordinates  (Angst):
   1.40468450  1.40158893  1.23378558
   6.64824600  1.73153743  1.23378558
   1.73463300  6.64515043  1.23378558
   6.97819450  6.97509893  1.23378558
   4.16882550  4.17192107  1.23378558
   9.41238700  4.50186957  1.23378558
   4.49877400  9.41548257  1.23378558
   9.74233550  9.74543107  1.23378558
   1.55014032  4.00385125  9.06469308
   6.79370182  4.33379975  9.06469308
   1.88008882  9.24741275  9.06469308
   7.12365032  9.57736125  9.06469308
   4.02336968  1.56965875  9.06469308
   9.26693118  1.89960725  9.06469308
   4.35331818  6.81322025  9.06469308
   9.59687968  7.14316875  9.06469308
   1.38207050  1.38516607  6.45439058
   6.62563200  1.71511457  6.45439058
   1.71201900  6.62872757  6.45439058
   6.95558050  6.95867607  6.45439058
   4.19143950  4.18834393  6.45439058
   9.43500100  4.51829243  6.45439058
   4.52138800  9.43190543  6.45439058
   9.76494950  9.76185393  6.45439058
   4.00694682  1.54704475  3.84408808
   9.25050832  1.87699325  3.84408808
   4.33689532  6.79060625  3.84408808
   9.58045682  7.12055475  3.84408808
   1.56656318  4.02646525  3.84408808
   6.81012468  4.35641375  3.84408808
   1.89651168  9.27002675  3.84408808
   7.14007318  9.59997525  3.84408808
   0.00000000  0.00000000  5.28222902
   5.24356150  0.32994850  5.28222902
   0.32994850  5.24356150  5.28222902
   5.57351000  5.57351000  5.28222902
   2.62178075  0.16497425  2.67192652
   7.86534225  0.49492275  2.67192652
   2.95172925  5.40853575  2.67192652
   8.19529075  5.73848425  2.67192652
   2.78675500  2.78675500  0.06162402
   8.03031650  3.11670350  0.06162402
   3.11670350  8.03031650  0.06162402
   8.36026500  8.36026500  0.06162402
   0.16497425  2.62178075  7.89253152
   5.40853575  2.95172925  7.89253152
   0.49492275  7.86534225  7.89253152
   5.73848425  8.19529075  7.89253152
   0.00000000  0.00000000  0.08110732
   5.24356150  0.32994850  0.08110732
   0.32994850  5.24356150  0.08110732
   5.57351000  5.57351000  0.08110732
   2.62178075  0.16497425  7.91201482
   7.86534225  0.49492275  7.91201482
   2.95172925  5.40853575  7.91201482
   8.19529075  5.73848425  7.91201482
   2.78675500  2.78675500  5.30171232
   8.03031650  3.11670350  5.30171232
   3.11670350  8.03031650  5.30171232
   8.36026500  8.36026500  5.30171232
   0.16497425  2.62178075  2.69140982
   5.40853575  2.95172925  2.69140982
   0.49492275  7.86534225  2.69140982
   5.73848425  8.19529075  2.69140982
 


--------------------------------------------------------------------------------------------------------


 k-point  1 :   0.0000 0.0000 0.0000  plane waves:   48111
 k-point  2 :   0.5000-0.0000 0.0000  plane waves:   48090
 k-point  3 :   0.5000 0.5000 0.0000  plane waves:   48180
 k-point  4 :   0.0000 0.0000 0.5000  plane waves:   48046
 k-point  5 :   0.5000-0.0000 0.5000  plane waves:   48080
 k-point  6 :   0.5000 0.5000 0.5000  plane waves:   48004

 maximum and minimum number of plane-waves per node :     48180    48004

 maximum number of plane-waves:     48180
 maximum index in each direction: 
   IXMAX=   22   IYMAX=   22   IZMAX=   22
   IXMIN=  -23   IYMIN=  -23   IZMIN=  -23


 serial   3D FFT for wavefunctions
 parallel 3D FFT for charge:
    minimum data exchange during FFTs selected (reduces bandwidth)


 total amount of memory used by VASP MPI-rank0   300225. kBytes
=======================================================================

   base      :      30000. kBytes
   nonl-proj :     174956. kBytes
   fftplans  :       4588. kBytes
   grid      :      69719. kBytes
   one-center:       1990. kBytes
   wavefun   :      18972. kBytes
 
     INWAV:  cpu time    0.0001: real time    0.0002
 Broyden mixing: mesh for mixing (old mesh)
   NGX = 45   NGY = 45   NGZ = 45
  (NGX  =192   NGY  =192   NGZ  =180)
  gives a total of  91125 points

 initial charge density was supplied:
 charge density of overlapping atoms calculated
 number of electron     688.0000000 magnetization       0.0000000
 keeping initial charge density in first step


--------------------------------------------------------------------------------------------------------


 Maximum index for augmentation-charges          890 (set IRDMAX)


--------------------------------------------------------------------------------------------------------


 First call to EWALD:  gamma=   0.169
 Maximum number of real-space cells 3x 3x 3
 Maximum number of reciprocal cells 3x 3x 3

    FEWALD:  cpu time    0.0032: real time    0.0036


--------------------------------------- Iteration      1(   1)  ---------------------------------------


    POTLOK:  cpu time    0.3184: real time    0.3707
    SETDIJ:  cpu time    0.0145: real time    0.0147
     EDDAV:  cpu time   62.6843: real time   63.2606
 BZINTS: Fermi energy: 16.865307;688.000000 electrons
         Band energy:***********;  BLOECHL correction: -0.003005
       DOS:  cpu time    0.0169: real time    0.0169
    --------------------------------------------
      LOOP:  cpu time   63.0341: real time   63.6629

 eigenvalue-minimisations  : 12288
 total energy-change (2. order) : 0.6190342E+04  (-0.5036196E+05)
 number of electron     688.0000000 magnetization       0.0000000
 augmentation part      688.0000000 magnetization       0.0000000

 Free energy of the ion-electron system (eV)
  ---------------------------------------------------
  alpha Z        PSCENC =      2370.35328248
  Ewald energy   TEWEN  =    -62663.78822939
  -Hartree energ DENC   =    -44189.83543996
  -exchange      EXHF   =         0.00000000
  -V(xc)+E(xc)   XCENC  =      3320.00746508
  PAW double counting   =     94592.23312189   -98164.79192727
  entropy T*S    EENTRO =         0.00000000
  eigenvalues    EBANDS =     -3093.90114386
  atomic energy  EATOM  =    114020.06510763
  Solvation  Ediel_sol  =         0.00000000
  ---------------------------------------------------
  free energy    TOTEN  =      6190.34223660 eV

  energy without entropy =     6190.34223660  energy(sigma->0) =     6190.34223660


--------------------------------------------------------------------------------------------------------




--------------------------------------- Iteration      1(   2)  ---------------------------------------


     EDDAV:  cpu time   74.5427: real time   75.1149
 BZINTS: Fermi energy:  6.847084;688.000000 electrons
         Band energy:***********;  BLOECHL correction:  0.000000
       DOS:  cpu time    0.0038: real time    0.0038
    --------------------------------------------
      LOOP:  cpu time   74.5465: real time   75.1188

 eigenvalue-minimisations  : 13568
 total energy-change (2. order) :-0.6289594E+04  (-0.6157841E+04)
 number of electron     688.0000000 magnetization       0.0000000
 augmentation part      688.0000000 magnetization       0.0000000

 Free energy of the ion-electron system (eV)
  ---------------------------------------------------
  alpha Z        PSCENC =      2370.35328248
  Ewald energy   TEWEN  =    -62663.78822939
  -Hartree energ DENC   =    -44189.83543996
  -exchange      EXHF   =         0.00000000
  -V(xc)+E(xc)   XCENC  =      3320.00746508
  PAW double counting   =     94592.23312189   -98164.79192727
  entropy T*S    EENTRO =         0.00000000
  eigenvalues    EBANDS =     -9383.49557027
  atomic energy  EATOM  =    114020.06510763
  Solvation  Ediel_sol  =         0.00000000
  ---------------------------------------------------
  free energy    TOTEN  =       -99.25218981 eV

  energy without entropy =      -99.25218981  energy(sigma->0) =      -99.25218981


--------------------------------------------------------------------------------------------------------




--------------------------------------- Iteration      1(   3)  ---------------------------------------


     EDDAV:  cpu time  111.9843: real time  112.7712
 BZINTS: Fermi energy:  6.304441;688.000000 electrons
         Band energy:***********;  BLOECHL correction:  0.000000
       DOS:  cpu time    0.0037: real time    0.0037
    --------------------------------------------
      LOOP:  cpu time  111.9880: real time  112.7749

 eigenvalue-minimisations  : 16640
 total energy-change (2. order) :-0.2719182E+03  (-0.2708593E+03)
 number of electron     688.0000000 magnetization       0.0000000
 augmentation part      688.0000000 magnetization       0.0000000

 Free energy of the ion-electron system (eV)
  ---------------------------------------------------
  alpha Z        PSCENC =      2370.35328248
  Ewald energy   TEWEN  =    -62663.78822939
  -Hartree energ DENC   =    -44189.83543996
  -exchange      EXHF   =         0.00000000
  -V(xc)+E(xc)   XCENC  =      3320.00746508
  PAW double counting   =     94592.23312189   -98164.79192727
  entropy T*S    EENTRO =         0.00000000
  eigenvalues    EBANDS =     -9655.41381626
  atomic energy  EATOM  =    114020.06510763
  Solvation  Ediel_sol  =         0.00000000
  ---------------------------------------------------
  free energy    TOTEN  =      -371.17043580 eV

  energy without entropy =     -371.17043580  energy(sigma->0) =     -371.17043580


--------------------------------------------------------------------------------------------------------




--------------------------------------- Iteration      1(   4)  ---------------------------------------


     EDDAV:  cpu time   95.5194: real time   96.2138
 BZINTS: Fermi energy:  6.159665;688.000000 electrons
         Band energy:***********;  BLOECHL correction:  0.000000
       DOS:  cpu time    0.0034: real time    0.0034
    --------------------------------------------
      LOOP:  cpu time   95.5227: real time   96.2172

 eigenvalue-minimisations  : 14848
 total energy-change (2. order) :-0.3861250E+01  (-0.3860963E+01)
 number of electron     688.0000000 magnetization       0.0000000
 augmentation part      688.0000000 magnetization       0.0000000

 Free energy of the ion-electron system (eV)
  ---------------------------------------------------
  alpha Z        PSCENC =      2370.35328248
  Ewald energy   TEWEN  =    -62663.78822939
  -Hartree energ DENC   =    -44189.83543996
  -exchange      EXHF   =         0.00000000
  -V(xc)+E(xc)   XCENC  =      3320.00746508
  PAW double counting   =     94592.23312189   -98164.79192727
  entropy T*S    EENTRO =         0.00000000
  eigenvalues    EBANDS =     -9659.27506667
  atomic energy  EATOM  =    114020.06510763
  Solvation  Ediel_sol  =         0.00000000
  ---------------------------------------------------
  free energy    TOTEN  =      -375.03168622 eV

  energy without entropy =     -375.03168622  energy(sigma->0) =     -375.03168622


--------------------------------------------------------------------------------------------------------




--------------------------------------- Iteration      1(   5)  ---------------------------------------


     EDDAV:  cpu time  107.3514: real time  108.1126
 BZINTS: Fermi energy:  6.282013;688.000000 electrons
         Band energy:***********;  BLOECHL correction:  0.000000
       DOS:  cpu time    0.0037: real time    0.0038
    CHARGE:  cpu time    1.1917: real time    1.1997
    MIXING:  cpu time    0.0079: real time    0.0080
    --------------------------------------------
      LOOP:  cpu time  108.5548: real time  109.3240

 eigenvalue-minimisations  : 15872
 total energy-change (2. order) :-0.1038733E+00  (-0.1038727E+00)
 number of electron     688.0000457 magnetization       0.0000000
 augmentation part      260.9479468 magnetization       0.0000000

 Broyden mixing:
  rms(total) = 0.75169E+01    rms(broyden)= 0.75169E+01
  rms(prec ) = 0.90226E+01
  weight for this iteration     100.00

 Free energy of the ion-electron system (eV)
  ---------------------------------------------------
  alpha Z        PSCENC =      2370.35328248
  Ewald energy   TEWEN  =    -62663.78822939
  -Hartree energ DENC   =    -44189.83543996
  -exchange      EXHF   =         0.00000000
  -V(xc)+E(xc)   XCENC  =      3320.00746508
  PAW double counting   =     94592.23312189   -98164.79192727
  entropy T*S    EENTRO =         0.00000000
  eigenvalues    EBANDS =     -9659.37893998
  atomic energy  EATOM  =    114020.06510763
  Solvation  Ediel_sol  =         0.00000000
  ---------------------------------------------------
  free energy    TOTEN  =      -375.13555952 eV

  energy without entropy =     -375.13555952  energy(sigma->0) =     -375.13555952


--------------------------------------------------------------------------------------------------------




--------------------------------------- Iteration      1(   6)  ---------------------------------------


    POTLOK:  cpu time    0.1171: real time    0.1213
    SETDIJ:  cpu time    0.0127: real time    0.0128
     EDDAV:  cpu time   64.7226: real time   65.2320
 BZINTS: Fermi energy:  4.375456;688.000000 electrons
         Band energy:***********;  BLOECHL correction:  0.000000
       DOS:  cpu time    0.0046: real time    0.0046
    CHARGE:  cpu time    1.4709: real time    1.4790
    MIXING:  cpu time    0.0027: real time    0.0492
    --------------------------------------------
      LOOP:  cpu time   66.3307: real time   66.8990

 eigenvalue-minimisations  : 12288
 total energy-change (2. order) : 0.4135405E+02  (-0.5959864E+02)
 number of electron     688.0000489 magnetization       0.0000000
 augmentation part      296.7793375 magnetization       0.0000000

 Broyden mixing:
  rms(total) = 0.10065E+02    rms(broyden)= 0.10065E+02
  rms(prec ) = 0.10549E+02
  weight for this iteration     100.00

 eigenvalues of (default mixing * dielectric matrix)
  average eigenvalue GAMMA=   0.1713
  0.1713

 Free energy of the ion-electron system (eV)
  ---------------------------------------------------
  alpha Z        PSCENC =      2370.35328248
  Ewald energy   TEWEN  =    -62663.78822939
  -Hartree energ DENC   =    -42224.39014192
  -exchange      EXHF   =         0.00000000
  -V(xc)+E(xc)   XCENC  =      3267.29934657
  PAW double counting   =     96378.46664025   -99736.29582917
  entropy T*S    EENTRO =         0.00000000
  eigenvalues    EBANDS =    -11745.49169078
  atomic energy  EATOM  =    114020.06510763
  Solvation  Ediel_sol  =         0.00000000
  ---------------------------------------------------
  free energy    TOTEN  =      -333.78151433 eV

  energy without entropy =     -333.78151433  energy(sigma->0) =     -333.78151433


--------------------------------------------------------------------------------------------------------




--------------------------------------- Iteration      1(   7)  ---------------------------------------


    POTLOK:  cpu time    0.1333: real time    0.1342
    SETDIJ:  cpu time    0.0166: real time    0.0167
     EDDAV:  cpu time   71.0147: real time   71.5583
 BZINTS: Fermi energy:  4.774483;688.000000 electrons
         Band energy:***********;  BLOECHL correction:  0.000000
       DOS:  cpu time    0.0037: real time    0.0037
    CHARGE:  cpu time    1.1902: real time    1.1984
    MIXING:  cpu time    0.0015: real time    0.0036
    --------------------------------------------
      LOOP:  cpu time   72.3600: real time   72.9150

 eigenvalue-minimisations  : 12800
 total energy-change (2. order) : 0.5686295E+01  (-0.1196994E+02)
 number of electron     688.0000483 magnetization       0.0000000
 augmentation part      285.9840625 magnetization       0.0000000

 Broyden mixing:
  rms(total) = 0.43695E+01    rms(broyden)= 0.43695E+01
  rms(prec ) = 0.44485E+01
  weight for this iteration     100.00

 eigenvalues of (default mixing * dielectric matrix)
  average eigenvalue GAMMA=   0.6154
  0.7701  0.4607

 Free energy of the ion-electron system (eV)
  ---------------------------------------------------
  alpha Z        PSCENC =      2370.35328248
  Ewald energy   TEWEN  =    -62663.78822939
  -Hartree energ DENC   =    -42720.97366047
  -exchange      EXHF   =         0.00000000
  -V(xc)+E(xc)   XCENC  =      3278.83628503
  PAW double counting   =     99811.00159519  -103327.38502953
  entropy T*S    EENTRO =         0.00000000
  eigenvalues    EBANDS =    -11096.20456993
  atomic energy  EATOM  =    114020.06510763
  Solvation  Ediel_sol  =         0.00000000
  ---------------------------------------------------
  free energy    TOTEN  =      -328.09521899 eV

  energy without entropy =     -328.09521899  energy(sigma->0) =     -328.09521899


--------------------------------------------------------------------------------------------------------




--------------------------------------- Iteration      1(   8)  ---------------------------------------


    POTLOK:  cpu time    0.1193: real time    0.1201
    SETDIJ:  cpu time    0.0129: real time    0.0129
     EDDAV:  cpu time   96.7966: real time   97.4895
 BZINTS: Fermi energy:  5.326744;688.000000 electrons
         Band energy:***********;  BLOECHL correction:  0.000000
       DOS:  cpu time    0.0033: real time    0.0033
    CHARGE:  cpu time    1.1901: real time    1.1972
    MIXING:  cpu time    0.0013: real time    0.0013
    --------------------------------------------
      LOOP:  cpu time   98.1234: real time   98.8243

 eigenvalue-minimisations  : 15104
 total energy-change (2. order) :-0.2882189E+00  (-0.4007047E+01)
 number of electron     688.0000475 magnetization       0.0000000
 augmentation part      281.5604157 magnetization       0.0000000

 Broyden mixing:
  rms(total) = 0.33489E+01    rms(broyden)= 0.33488E+01
  rms(prec ) = 0.36611E+01
  weight for this iteration     100.00

 eigenvalues of (default mixing * dielectric matrix)
  average eigenvalue GAMMA=   0.8517
  1.4972  0.6199  0.4378

 Free energy of the ion-electron system (eV)
  ---------------------------------------------------
  alpha Z        PSCENC =      2370.35328248
  Ewald energy   TEWEN  =    -62663.78822939
  -Hartree energ DENC   =    -42979.36112582
  -exchange      EXHF   =         0.00000000
  -V(xc)+E(xc)   XCENC  =      3291.38182252
  PAW double counting   =    105241.58479510  -108856.57493250
  entropy T*S    EENTRO =         0.00000000
  eigenvalues    EBANDS =    -10752.04415791
  atomic energy  EATOM  =    114020.06510763
  Solvation  Ediel_sol  =         0.00000000
  ---------------------------------------------------
  free energy    TOTEN  =      -328.38343789 eV

  energy without entropy =     -328.38343789  energy(sigma->0) =     -328.38343789


--------------------------------------------------------------------------------------------------------




--------------------------------------- Iteration      1(   9)  ---------------------------------------


    POTLOK:  cpu time    0.1184: real time    0.1207
    SETDIJ:  cpu time    0.0130: real time    0.0130
     EDDAV:  cpu time   95.7409: real time   96.4413
 BZINTS: Fermi energy:  4.774955;688.000000 electrons
         Band energy:***********;  BLOECHL correction:  0.000000
       DOS:  cpu time    0.0033: real time    0.0034
    CHARGE:  cpu time    1.1900: real time    1.1982
    MIXING:  cpu time    0.0014: real time    0.0014
    --------------------------------------------
      LOOP:  cpu time   97.0671: real time   97.7781

 eigenvalue-minimisations  : 15616
 total energy-change (2. order) :-0.1588532E+01  (-0.1107111E+02)
 number of electron     688.0000482 magnetization       0.0000000
 augmentation part      282.1717940 magnetization       0.0000000

 Broyden mixing:
  rms(total) = 0.23746E+01    rms(broyden)= 0.23745E+01
  rms(prec ) = 0.28260E+01
  weight for this iteration     100.00

 eigenvalues of (default mixing * dielectric matrix)
  average eigenvalue GAMMA=   0.9762
  2.3829  0.6217  0.5733  0.3270

 Free energy of the ion-electron system (eV)
  ---------------------------------------------------
  alpha Z        PSCENC =      2370.35328248
  Ewald energy   TEWEN  =    -62663.78822939
  -Hartree energ DENC   =    -42763.45758983
  -exchange      EXHF   =         0.00000000
  -V(xc)+E(xc)   XCENC  =      3283.92173755
  PAW double counting   =    109474.97791377  -113124.50527207
  entropy T*S    EENTRO =         0.00000000
  eigenvalues    EBANDS =    -10927.53891961
  atomic energy  EATOM  =    114020.06510763
  Solvation  Ediel_sol  =         0.00000000
  ---------------------------------------------------
  free energy    TOTEN  =      -329.97196947 eV

  energy without entropy =     -329.97196947  energy(sigma->0) =     -329.97196947


--------------------------------------------------------------------------------------------------------




--------------------------------------- Iteration      1(  10)  ---------------------------------------


    POTLOK:  cpu time    0.1215: real time    0.1223
    SETDIJ:  cpu time    0.0127: real time    0.0127
     EDDAV:  cpu time  107.2412: real time  108.0015
 BZINTS: Fermi energy:  5.128621;688.000000 electrons
         Band energy:***********;  BLOECHL correction:  0.000000
       DOS:  cpu time    0.0038: real time    0.0038
    CHARGE:  cpu time    1.1886: real time    1.1962
    MIXING:  cpu time    0.0015: real time    0.0022
    --------------------------------------------
      LOOP:  cpu time  108.5693: real time  109.3387

 eigenvalue-minimisations  : 16384
 total energy-change (2. order) : 0.3686280E+01  (-0.2106486E+01)
 number of electron     688.0000479 magnetization       0.0000000
 augmentation part      282.4510955 magnetization       0.0000000

 Broyden mixing:
  rms(total) = 0.27923E+00    rms(broyden)= 0.27918E+00
  rms(prec ) = 0.31783E+00
  weight for this iteration     100.00

 eigenvalues of (default mixing * dielectric matrix)
  average eigenvalue GAMMA=   0.9218
  2.3504  0.7854  0.5768  0.5768  0.3196

 Free energy of the ion-electron system (eV)
  ---------------------------------------------------
  alpha Z        PSCENC =      2370.35328248
  Ewald energy   TEWEN  =    -62663.78822939
  -Hartree energ DENC   =    -42791.61923608
  -exchange      EXHF   =         0.00000000
  -V(xc)+E(xc)   XCENC  =      3287.15023430
  PAW double counting   =    113131.36721119  -116827.34988198
  entropy T*S    EENTRO =         0.00000000
  eigenvalues    EBANDS =    -10852.46417788
  atomic energy  EATOM  =    114020.06510763
  Solvation  Ediel_sol  =         0.00000000
  ---------------------------------------------------
  free energy    TOTEN  =      -326.28568973 eV

  energy without entropy =     -326.28568973  energy(sigma->0) =     -326.28568973


--------------------------------------------------------------------------------------------------------




--------------------------------------- Iteration      1(  11)  ---------------------------------------


    POTLOK:  cpu time    0.1195: real time    0.1216
    SETDIJ:  cpu time    0.0133: real time    0.0133
     EDDAV:  cpu time  124.1355: real time  125.0017
 BZINTS: Fermi energy:  5.143487;688.000000 electrons
         Band energy:***********;  BLOECHL correction:  0.000000
       DOS:  cpu time    0.0038: real time    0.0038
    CHARGE:  cpu time    1.1866: real time    1.1944
    MIXING:  cpu time    0.0014: real time    0.0014
    --------------------------------------------
      LOOP:  cpu time  125.4601: real time  126.3363

 eigenvalue-minimisations  : 18176
 total energy-change (2. order) :-0.1158135E+00  (-0.1357197E+00)
 number of electron     688.0000478 magnetization       0.0000000
 augmentation part      282.4066149 magnetization       0.0000000

 Broyden mixing:
  rms(total) = 0.35620E+00    rms(broyden)= 0.35618E+00
  rms(prec ) = 0.39174E+00
  weight for this iteration     100.00

 eigenvalues of (default mixing * dielectric matrix)
  average eigenvalue GAMMA=   0.9020
  2.2391  0.8468  0.7143  0.7143  0.5659  0.3318

 Free energy of the ion-electron system (eV)
  ---------------------------------------------------
  alpha Z        PSCENC =      2370.35328248
  Ewald energy   TEWEN  =    -62663.78822939
  -Hartree energ DENC   =    -42811.32002332
  -exchange      EXHF   =         0.00000000
  -V(xc)+E(xc)   XCENC  =      3286.95128783
  PAW double counting   =    112929.58626195  -116625.61401303
  entropy T*S    EENTRO =         0.00000000
  eigenvalues    EBANDS =    -10832.63517739
  atomic energy  EATOM  =    114020.06510763
  Solvation  Ediel_sol  =         0.00000000
  ---------------------------------------------------
  free energy    TOTEN  =      -326.40150324 eV

  energy without entropy =     -326.40150324  energy(sigma->0) =     -326.40150324


--------------------------------------------------------------------------------------------------------




--------------------------------------- Iteration      1(  12)  ---------------------------------------


    POTLOK:  cpu time    0.1175: real time    0.1213
    SETDIJ:  cpu time    0.0129: real time    0.0130
     EDDAV:  cpu time   99.7732: real time  100.4857
 BZINTS: Fermi energy:  5.127721;688.000000 electrons
         Band energy:***********;  BLOECHL correction:  0.000000
       DOS:  cpu time    0.0038: real time    0.0038
    CHARGE:  cpu time    1.1885: real time    1.1960
    MIXING:  cpu time    0.0015: real time    0.0015
    --------------------------------------------
      LOOP:  cpu time  101.0976: real time  101.8213

 eigenvalue-minimisations  : 15360
 total energy-change (2. order) : 0.4836579E-02  (-0.4784567E-01)
 number of electron     688.0000479 magnetization      -0.0000000
 augmentation part      282.2774896 magnetization      -0.0000000

 Broyden mixing:
  rms(total) = 0.13332E+00    rms(broyden)= 0.13332E+00
  rms(prec ) = 0.14780E+00
  weight for this iteration     100.00

 eigenvalues of (default mixing * dielectric matrix)
  average eigenvalue GAMMA=   0.9465
  2.2647  1.1067  1.1067  0.6245  0.6245  0.5673  0.3312

 Free energy of the ion-electron system (eV)
  ---------------------------------------------------
  alpha Z        PSCENC =      2370.35328248
  Ewald energy   TEWEN  =    -62663.78822939
  -Hartree energ DENC   =    -42811.92334869
  -exchange      EXHF   =         0.00000000
  -V(xc)+E(xc)   XCENC  =      3286.44924291
  PAW double counting   =    112537.42662513  -116230.22190913
  entropy T*S    EENTRO =         0.00000000
  eigenvalues    EBANDS =    -10834.75743761
  atomic energy  EATOM  =    114020.06510763
  Solvation  Ediel_sol  =         0.00000000
  ---------------------------------------------------
  free energy    TOTEN  =      -326.39666666 eV

  energy without entropy =     -326.39666666  energy(sigma->0) =     -326.39666666


--------------------------------------------------------------------------------------------------------




--------------------------------------- Iteration      1(  13)  ---------------------------------------


    POTLOK:  cpu time    0.1181: real time    0.1216
    SETDIJ:  cpu time    0.0127: real time    0.0128
     EDDAV:  cpu time  106.7354: real time  107.4851
 BZINTS: Fermi energy:  5.129482;688.000000 electrons
         Band energy:***********;  BLOECHL correction:  0.000000
       DOS:  cpu time    0.0038: real time    0.0038
    CHARGE:  cpu time    1.1897: real time    1.1974
    MIXING:  cpu time    0.0016: real time    0.0016
    --------------------------------------------
      LOOP:  cpu time  108.0612: real time  108.8223

 eigenvalue-minimisations  : 15872
 total energy-change (2. order) :-0.1171311E-01  (-0.4959751E-02)
 number of electron     688.0000479 magnetization       0.0000000
 augmentation part      282.2952643 magnetization       0.0000000

 Broyden mixing:
  rms(total) = 0.90155E-01    rms(broyden)= 0.90154E-01
  rms(prec ) = 0.93903E-01
  weight for this iteration     100.00

 eigenvalues of (default mixing * dielectric matrix)
  average eigenvalue GAMMA=   1.1332
  2.5682  2.5682  0.3312  0.8426  0.8426  0.6742  0.6742  0.5641

 Free energy of the ion-electron system (eV)
  ---------------------------------------------------
  alpha Z        PSCENC =      2370.35328248
  Ewald energy   TEWEN  =    -62663.78822939
  -Hartree energ DENC   =    -42817.04802909
  -exchange      EXHF   =         0.00000000
  -V(xc)+E(xc)   XCENC  =      3286.51338055
  PAW double counting   =    112304.36296364  -115996.99068489
  entropy T*S    EENTRO =         0.00000000
  eigenvalues    EBANDS =    -10829.87617070
  atomic energy  EATOM  =    114020.06510763
  Solvation  Ediel_sol  =         0.00000000
  ---------------------------------------------------
  free energy    TOTEN  =      -326.40837977 eV

  energy without entropy =     -326.40837977  energy(sigma->0) =     -326.40837977


--------------------------------------------------------------------------------------------------------




--------------------------------------- Iteration      1(  14)  ---------------------------------------


    POTLOK:  cpu time    0.1182: real time    0.1207
    SETDIJ:  cpu time    0.0130: real time    0.0131
     EDDAV:  cpu time  119.4231: real time  120.2458
 BZINTS: Fermi energy:  5.132477;688.000000 electrons
         Band energy:***********;  BLOECHL correction:  0.000000
       DOS:  cpu time    0.0038: real time    0.0038
    CHARGE:  cpu time    1.3329: real time    1.3412
    MIXING:  cpu time    0.0017: real time    0.0018
    --------------------------------------------
      LOOP:  cpu time  120.8928: real time  121.7263

 eigenvalue-minimisations  : 16896
 total energy-change (2. order) :-0.1531864E-01  (-0.9408113E-02)
 number of electron     688.0000479 magnetization       0.0000000
 augmentation part      282.2592310 magnetization       0.0000000

 Broyden mixing:
  rms(total) = 0.45411E-01    rms(broyden)= 0.45403E-01
  rms(prec ) = 0.51545E-01
  weight for this iteration     100.00

 eigenvalues of (default mixing * dielectric matrix)
  average eigenvalue GAMMA=   1.0625
  2.4225  2.4225  0.9452  0.9452  0.3311  0.6476  0.6476  0.5614  0.6392

 Free energy of the ion-electron system (eV)
  ---------------------------------------------------
  alpha Z        PSCENC =      2370.35328248
  Ewald energy   TEWEN  =    -62663.78822939
  -Hartree energ DENC   =    -42826.34454021
  -exchange      EXHF   =         0.00000000
  -V(xc)+E(xc)   XCENC  =      3286.35309207
  PAW double counting   =    112033.34812329  -115725.13836783
  entropy T*S    EENTRO =         0.00000000
  eigenvalues    EBANDS =    -10821.27216645
  atomic energy  EATOM  =    114020.06510763
  Solvation  Ediel_sol  =         0.00000000
  ---------------------------------------------------
  free energy    TOTEN  =      -326.42369841 eV

  energy without entropy =     -326.42369841  energy(sigma->0) =     -326.42369841


--------------------------------------------------------------------------------------------------------




--------------------------------------- Iteration      1(  15)  ---------------------------------------


    POTLOK:  cpu time    0.1212: real time    0.1222
    SETDIJ:  cpu time    0.0127: real time    0.0128
     EDDAV:  cpu time   74.5134: real time   75.0691
 BZINTS: Fermi energy:  5.131612;688.000000 electrons
         Band energy:***********;  BLOECHL correction:  0.000000
       DOS:  cpu time    0.0038: real time    0.0038
    CHARGE:  cpu time    1.1896: real time    1.1967
    MIXING:  cpu time    0.0017: real time    0.0017
    --------------------------------------------
      LOOP:  cpu time   75.8424: real time   76.4063

 eigenvalue-minimisations  : 12800
 total energy-change (2. order) :-0.2125099E-04  (-0.6481730E-03)
 number of electron     688.0000479 magnetization      -0.0000000
 augmentation part      282.2535238 magnetization      -0.0000000

 Broyden mixing:
  rms(total) = 0.21268E-01    rms(broyden)= 0.21267E-01
  rms(prec ) = 0.23014E-01
  weight for this iteration     100.00

 eigenvalues of (default mixing * dielectric matrix)
  average eigenvalue GAMMA=   1.0224
  2.3588  2.3588  0.9800  0.9800  0.3311  0.6683  0.6683  0.5633  0.6575  0.6575

 Free energy of the ion-electron system (eV)
  ---------------------------------------------------
  alpha Z        PSCENC =      2370.35328248
  Ewald energy   TEWEN  =    -62663.78822939
  -Hartree energ DENC   =    -42825.60627013
  -exchange      EXHF   =         0.00000000
  -V(xc)+E(xc)   XCENC  =      3286.33463110
  PAW double counting   =    112119.31120785  -115811.42015742
  entropy T*S    EENTRO =         0.00000000
  eigenvalues    EBANDS =    -10821.67329178
  atomic energy  EATOM  =    114020.06510763
  Solvation  Ediel_sol  =         0.00000000
  ---------------------------------------------------
  free energy    TOTEN  =      -326.42371966 eV

  energy without entropy =     -326.42371966  energy(sigma->0) =     -326.42371966


--------------------------------------------------------------------------------------------------------




--------------------------------------- Iteration      1(  16)  ---------------------------------------


    POTLOK:  cpu time    0.1174: real time    0.1212
    SETDIJ:  cpu time    0.0127: real time    0.0128
     EDDAV:  cpu time  137.7619: real time  138.6846
 BZINTS: Fermi energy:  5.131571;688.000000 electrons
         Band energy:***********;  BLOECHL correction:  0.000000
       DOS:  cpu time    0.0038: real time    0.0038
    CHARGE:  cpu time    1.1893: real time    1.1971
    MIXING:  cpu time    0.0019: real time    0.0026
    --------------------------------------------
      LOOP:  cpu time  139.0872: real time  140.0222

 eigenvalue-minimisations  : 17920
 total energy-change (2. order) :-0.5150782E-03  (-0.1054297E-03)
 number of electron     688.0000479 magnetization      -0.0000000
 augmentation part      282.2545942 magnetization      -0.0000000

 Broyden mixing:
  rms(total) = 0.14044E-01    rms(broyden)= 0.14043E-01
  rms(prec ) = 0.14847E-01
  weight for this iteration     100.00

 eigenvalues of (default mixing * dielectric matrix)
  average eigenvalue GAMMA=   1.1979
  3.0653  2.2789  2.1861  0.3311  0.9781  0.9781  0.8251  0.6750  0.6750  0.5614
  0.6233

 Free energy of the ion-electron system (eV)
  ---------------------------------------------------
  alpha Z        PSCENC =      2370.35328248
  Ewald energy   TEWEN  =    -62663.78822939
  -Hartree energ DENC   =    -42825.89332028
  -exchange      EXHF   =         0.00000000
  -V(xc)+E(xc)   XCENC  =      3286.36003755
  PAW double counting   =    112134.01417042  -115826.05691993
  entropy T*S    EENTRO =         0.00000000
  eigenvalues    EBANDS =    -10821.47836322
  atomic energy  EATOM  =    114020.06510763
  Solvation  Ediel_sol  =         0.00000000
  ---------------------------------------------------
  free energy    TOTEN  =      -326.42423474 eV

  energy without entropy =     -326.42423474  energy(sigma->0) =     -326.42423474


--------------------------------------------------------------------------------------------------------




--------------------------------------- Iteration      1(  17)  ---------------------------------------


    POTLOK:  cpu time    0.1210: real time    0.1219
    SETDIJ:  cpu time    0.0128: real time    0.0128
     EDDAV:  cpu time   83.1336: real time   83.7474
 BZINTS: Fermi energy:  5.132090;688.000000 electrons
         Band energy:***********;  BLOECHL correction:  0.000000
       DOS:  cpu time    0.0038: real time    0.0038
    CHARGE:  cpu time    1.1897: real time    1.1973
    MIXING:  cpu time    0.0018: real time    0.0019
    --------------------------------------------
      LOOP:  cpu time   84.4628: real time   85.0851

 eigenvalue-minimisations  : 13824
 total energy-change (2. order) :-0.1101141E-02  (-0.6771664E-03)
 number of electron     688.0000479 magnetization      -0.0000000
 augmentation part      282.2480839 magnetization      -0.0000000

 Broyden mixing:
  rms(total) = 0.75254E-02    rms(broyden)= 0.75228E-02
  rms(prec ) = 0.80800E-02
  weight for this iteration     100.00

 eigenvalues of (default mixing * dielectric matrix)
  average eigenvalue GAMMA=   1.2031
  3.7510  2.0933  2.0933  1.0623  1.0623  0.3311  0.8561  0.6559  0.6559  0.5658
  0.6551  0.6551

 Free energy of the ion-electron system (eV)
  ---------------------------------------------------
  alpha Z        PSCENC =      2370.35328248
  Ewald energy   TEWEN  =    -62663.78822939
  -Hartree energ DENC   =    -42827.84474436
  -exchange      EXHF   =         0.00000000
  -V(xc)+E(xc)   XCENC  =      3286.41926409
  PAW double counting   =    112122.06608294  -115813.78244430
  entropy T*S    EENTRO =         0.00000000
  eigenvalues    EBANDS =    -10819.91365497
  atomic energy  EATOM  =    114020.06510763
  Solvation  Ediel_sol  =         0.00000000
  ---------------------------------------------------
  free energy    TOTEN  =      -326.42533588 eV

  energy without entropy =     -326.42533588  energy(sigma->0) =     -326.42533588


--------------------------------------------------------------------------------------------------------




--------------------------------------- Iteration      1(  18)  ---------------------------------------


    POTLOK:  cpu time    0.1182: real time    0.1213
    SETDIJ:  cpu time    0.0128: real time    0.0128
     EDDAV:  cpu time  110.9856: real time  111.7469
 BZINTS: Fermi energy:  5.131969;688.000000 electrons
         Band energy:***********;  BLOECHL correction:  0.000000
       DOS:  cpu time    0.0038: real time    0.0038
    CHARGE:  cpu time    1.1927: real time    1.2009
    MIXING:  cpu time    0.0020: real time    0.0020
    --------------------------------------------
      LOOP:  cpu time  112.3149: real time  113.0877

 eigenvalue-minimisations  : 15872
 total energy-change (2. order) :-0.7672489E-04  (-0.3256978E-04)
 number of electron     688.0000479 magnetization      -0.0000000
 augmentation part      282.2542939 magnetization      -0.0000000

 Broyden mixing:
  rms(total) = 0.65614E-02    rms(broyden)= 0.65611E-02
  rms(prec ) = 0.77463E-02
  weight for this iteration     100.00

 eigenvalues of (default mixing * dielectric matrix)
  average eigenvalue GAMMA=   1.1691
  3.8542  2.1073  2.1073  1.0521  1.0521  0.3311  0.7126  0.7126  0.7998  0.6626
  0.6626  0.5720  0.5720

 Free energy of the ion-electron system (eV)
  ---------------------------------------------------
  alpha Z        PSCENC =      2370.35328248
  Ewald energy   TEWEN  =    -62663.78822939
  -Hartree energ DENC   =    -42827.67721134
  -exchange      EXHF   =         0.00000000
  -V(xc)+E(xc)   XCENC  =      3286.42244758
  PAW double counting   =    112126.92624311  -115818.64864197
  entropy T*S    EENTRO =         0.00000000
  eigenvalues    EBANDS =    -10820.07841071
  atomic energy  EATOM  =    114020.06510763
  Solvation  Ediel_sol  =         0.00000000
  ---------------------------------------------------
  free energy    TOTEN  =      -326.42541260 eV

  energy without entropy =     -326.42541260  energy(sigma->0) =     -326.42541260


--------------------------------------------------------------------------------------------------------




--------------------------------------- Iteration      1(  19)  ---------------------------------------


    POTLOK:  cpu time    0.1205: real time    0.1213
    SETDIJ:  cpu time    0.0126: real time    0.0127
     EDDAV:  cpu time  130.4344: real time  131.3157
 BZINTS: Fermi energy:  5.131753;688.000000 electrons
         Band energy:***********;  BLOECHL correction:  0.000000
       DOS:  cpu time    0.0038: real time    0.0039
    CHARGE:  cpu time    1.1899: real time    1.1977
    MIXING:  cpu time    0.0022: real time    0.0022
    --------------------------------------------
      LOOP:  cpu time  131.7635: real time  132.6534

 eigenvalue-minimisations  : 17408
 total energy-change (2. order) : 0.3675639E-05  (-0.8824908E-05)
 number of electron     688.0000479 magnetization      -0.0000000
 augmentation part      282.2541580 magnetization      -0.0000000

 Broyden mixing:
  rms(total) = 0.39456E-02    rms(broyden)= 0.39456E-02
  rms(prec ) = 0.43313E-02
  weight for this iteration     100.00

 eigenvalues of (default mixing * dielectric matrix)
  average eigenvalue GAMMA=   1.2619
  3.9744  2.3822  2.3822  1.4123  1.4123  0.9745  0.9745  0.3311  0.6712  0.6712
[...]
   -.416E+02 0.115E+01 0.385E+02   0.424E+02 -.111E+01 -.389E+02   -.825E+00 -.381E-01 0.369E+00   -.221E-03 -.511E-05 -.293E-04
   -.416E+02 0.115E+01 0.385E+02   0.424E+02 -.111E+01 -.389E+02   -.825E+00 -.381E-01 0.369E+00   -.221E-03 -.511E-05 -.293E-04
   -.416E+02 0.115E+01 0.385E+02   0.424E+02 -.111E+01 -.389E+02   -.825E+00 -.381E-01 0.369E+00   -.221E-03 -.511E-05 -.293E-04
   -.416E+02 0.115E+01 0.385E+02   0.424E+02 -.111E+01 -.389E+02   -.825E+00 -.381E-01 0.369E+00   -.221E-03 -.511E-05 -.293E-04
   0.416E+02 -.115E+01 0.385E+02   -.424E+02 0.111E+01 -.389E+02   0.825E+00 0.381E-01 0.369E+00   0.221E-03 0.511E-05 -.293E-04
   0.416E+02 -.115E+01 0.385E+02   -.424E+02 0.111E+01 -.389E+02   0.825E+00 0.381E-01 0.369E+00   0.221E-03 0.511E-05 -.293E-04
   0.416E+02 -.115E+01 0.385E+02   -.424E+02 0.111E+01 -.389E+02   0.825E+00 0.381E-01 0.369E+00   0.221E-03 0.511E-05 -.293E-04
   0.416E+02 -.115E+01 0.385E+02   -.424E+02 0.111E+01 -.389E+02   0.825E+00 0.381E-01 0.369E+00   0.221E-03 0.511E-05 -.293E-04
   0.115E+01 -.416E+02 0.385E+02   -.111E+01 0.424E+02 -.389E+02   -.381E-01 -.825E+00 0.369E+00   -.511E-05 -.221E-03 -.293E-04
   0.115E+01 -.416E+02 0.385E+02   -.111E+01 0.424E+02 -.389E+02   -.381E-01 -.825E+00 0.369E+00   -.511E-05 -.221E-03 -.293E-04
   0.115E+01 -.416E+02 0.385E+02   -.111E+01 0.424E+02 -.389E+02   -.381E-01 -.825E+00 0.369E+00   -.511E-05 -.221E-03 -.293E-04
   0.115E+01 -.416E+02 0.385E+02   -.111E+01 0.424E+02 -.389E+02   -.381E-01 -.825E+00 0.369E+00   -.511E-05 -.221E-03 -.293E-04
   -.115E+01 0.416E+02 0.385E+02   0.111E+01 -.424E+02 -.389E+02   0.381E-01 0.825E+00 0.369E+00   0.511E-05 0.221E-03 -.293E-04
   -.115E+01 0.416E+02 0.385E+02   0.111E+01 -.424E+02 -.389E+02   0.381E-01 0.825E+00 0.369E+00   0.511E-05 0.221E-03 -.293E-04
   -.115E+01 0.416E+02 0.385E+02   0.111E+01 -.424E+02 -.389E+02   0.381E-01 0.825E+00 0.369E+00   0.511E-05 0.221E-03 -.293E-04
   -.115E+01 0.416E+02 0.385E+02   0.111E+01 -.424E+02 -.389E+02   0.381E-01 0.825E+00 0.369E+00   0.511E-05 0.221E-03 -.293E-04
   -.102E-06 -.120E-08 -.452E+02   0.101E-12 0.924E-13 0.434E+02   -.134E-24 0.646E-25 0.182E+01   0.135E-12 0.267E-12 0.252E-03
   -.102E-06 -.120E-08 -.452E+02   0.130E-12 0.853E-13 0.434E+02   0.840E-25 0.388E-25 0.182E+01   -.670E-12 0.555E-12 0.252E-03
   -.102E-06 -.120E-08 -.452E+02   0.728E-13 0.924E-13 0.434E+02   0.969E-26 0.000E+00 0.182E+01   0.323E-12 -.259E-12 0.252E-03
   -.102E-06 -.117E-08 -.452E+02   0.144E-12 0.853E-13 0.434E+02   0.557E-25 -.905E-25 0.182E+01   -.726E-12 -.231E-12 0.252E-03
   -.120E-08 -.102E-06 -.452E+02   -.142E-12 0.114E-12 0.434E+02   -.485E-25 -.517E-25 0.182E+01   -.430E-12 0.177E-12 0.252E-03
   -.119E-08 -.102E-06 -.452E+02   -.199E-12 0.995E-13 0.434E+02   -.107E-24 0.614E-25 0.182E+01   -.137E-12 0.378E-12 0.252E-03
   -.120E-08 -.102E-06 -.452E+02   -.185E-12 0.995E-13 0.434E+02   0.517E-25 0.181E-24 0.182E+01   -.363E-12 -.337E-12 0.252E-03
   -.119E-08 -.102E-06 -.452E+02   -.199E-12 0.114E-12 0.434E+02   -.291E-25 -.258E-25 0.182E+01   -.147E-12 -.358E-12 0.252E-03
   -.102E-06 -.120E-08 -.452E+02   0.497E-13 -.444E-13 0.434E+02   0.727E-26 -.258E-25 0.182E+01   -.360E-12 0.124E-12 0.252E-03
   -.102E-06 -.118E-08 -.452E+02   0.497E-13 -.231E-13 0.434E+02   -.840E-25 -.452E-25 0.182E+01   -.558E-13 -.156E-12 0.252E-03
   -.102E-06 -.118E-08 -.452E+02   0.568E-13 -.711E-13 0.434E+02   -.123E-24 -.775E-25 0.182E+01   -.622E-12 0.885E-13 0.252E-03
   -.102E-06 -.117E-08 -.452E+02   0.568E-13 -.213E-13 0.434E+02   0.848E-25 0.000E+00 0.182E+01   0.756E-13 0.266E-12 0.252E-03
   -.120E-08 -.102E-06 -.452E+02   -.275E-12 -.624E-13 0.434E+02   -.416E-25 0.132E-24 0.182E+01   -.834E-13 -.260E-12 0.252E-03
   -.119E-08 -.102E-06 -.452E+02   -.273E-12 -.767E-13 0.434E+02   -.311E-25 0.646E-26 0.182E+01   -.334E-12 -.200E-12 0.252E-03
   -.120E-08 -.102E-06 -.452E+02   -.232E-12 -.743E-13 0.434E+02   -.198E-25 -.711E-25 0.182E+01   0.184E-13 0.182E-12 0.252E-03
   -.119E-08 -.102E-06 -.452E+02   -.202E-12 -.338E-14 0.434E+02   -.485E-25 0.646E-25 0.182E+01   -.436E-12 0.192E-12 0.252E-03
   0.161E-07 -.182E-09 -.364E+02   -.101E-12 -.675E-13 0.343E+02   -.396E-25 0.775E-25 0.212E+01   -.193E-12 0.213E-12 0.144E-03
   0.161E-07 -.182E-09 -.364E+02   -.143E-12 -.142E-13 0.343E+02   0.218E-25 0.388E-25 0.212E+01   -.262E-12 0.415E-12 0.144E-03
   0.161E-07 -.179E-09 -.364E+02   -.137E-12 -.107E-13 0.343E+02   -.151E-27 -.412E-25 0.212E+01   0.171E-13 -.116E-12 0.144E-03
   0.161E-07 -.186E-09 -.364E+02   -.122E-12 0.142E-13 0.343E+02   -.101E-26 0.775E-25 0.212E+01   -.382E-12 -.224E-12 0.144E-03
   -.180E-09 0.161E-07 -.364E+02   0.117E-12 -.171E-12 0.343E+02   0.118E-24 -.129E-25 0.212E+01   -.412E-12 0.407E-12 0.144E-03
   -.178E-09 0.161E-07 -.364E+02   0.639E-13 -.142E-12 0.343E+02   0.528E-25 0.129E-25 0.212E+01   0.158E-13 0.454E-12 0.144E-03
   -.180E-09 0.161E-07 -.364E+02   0.959E-13 -.160E-12 0.343E+02   0.238E-25 -.194E-25 0.212E+01   -.375E-12 0.184E-13 0.144E-03
   -.178E-09 0.161E-07 -.364E+02   0.114E-12 -.160E-12 0.343E+02   0.275E-25 0.258E-25 0.212E+01   -.872E-14 -.853E-13 0.144E-03
   0.161E-07 -.190E-09 -.364E+02   -.178E-12 -.764E-13 0.343E+02   -.323E-25 -.129E-25 0.212E+01   -.245E-12 0.874E-14 0.144E-03
   0.161E-07 -.170E-09 -.364E+02   -.220E-12 0.142E-13 0.343E+02   0.396E-25 0.129E-24 0.212E+01   -.136E-12 -.989E-13 0.144E-03
   0.161E-07 -.165E-09 -.364E+02   -.156E-12 -.266E-14 0.343E+02   0.646E-26 0.000E+00 0.212E+01   -.394E-12 0.146E-12 0.144E-03
   0.161E-07 -.161E-09 -.364E+02   -.171E-12 0.293E-13 0.343E+02   -.618E-25 -.194E-25 0.212E+01   -.760E-13 0.286E-12 0.144E-03
   -.182E-09 0.161E-07 -.364E+02   0.820E-13 -.172E-12 0.343E+02   -.400E-25 -.194E-25 0.212E+01   0.851E-13 0.744E-13 0.144E-03
   -.180E-09 0.161E-07 -.364E+02   0.747E-13 -.142E-12 0.343E+02   0.963E-25 -.396E-25 0.212E+01   -.453E-12 0.156E-12 0.144E-03
   -.182E-09 0.161E-07 -.364E+02   0.181E-13 -.196E-12 0.343E+02   -.145E-24 0.258E-25 0.212E+01   0.208E-12 0.248E-12 0.144E-03
   -.180E-09 0.161E-07 -.364E+02   0.107E-13 -.168E-12 0.343E+02   -.315E-25 -.388E-25 0.212E+01   -.531E-12 0.308E-12 0.144E-03
 -----------------------------------------------------------------------------------------------
   -.352E-06 -.352E-06 -.748E+02   -.117E-12 -.209E-12 0.568E-13   0.583E-15 0.122E-14 0.748E+02   -.628E-11 0.448E-11 0.539E-02
 
 
 POSITION                                       TOTAL-FORCE (eV/Angst)
 -----------------------------------------------------------------------------------
      1.40468      1.40159      1.23379         0.000564     -0.000848     -0.005368
      6.64825      1.73154      1.23379         0.000564     -0.000848     -0.005368
      1.73463      6.64515      1.23379         0.000564     -0.000848     -0.005368
      6.97819      6.97510      1.23379         0.000564     -0.000848     -0.005368
      4.16883      4.17192      1.23379        -0.000564      0.000848     -0.005368
      9.41239      4.50187      1.23379        -0.000564      0.000848     -0.005368
      4.49877      9.41548      1.23379        -0.000564      0.000848     -0.005368
      9.74234      9.74543      1.23379        -0.000564      0.000848     -0.005368
      1.55014      4.00385      9.06469         0.000848     -0.000564     -0.005368
      6.79370      4.33380      9.06469         0.000848     -0.000564     -0.005368
      1.88009      9.24741      9.06469         0.000848     -0.000564     -0.005368
      7.12365      9.57736      9.06469         0.000848     -0.000564     -0.005368
      4.02337      1.56966      9.06469        -0.000848      0.000564     -0.005368
      9.26693      1.89961      9.06469        -0.000848      0.000564     -0.005368
      4.35332      6.81322      9.06469        -0.000848      0.000564     -0.005368
      9.59688      7.14317      9.06469        -0.000848      0.000564     -0.005368
      1.38207      1.38517      6.45439        -0.000564      0.000848     -0.005368
      6.62563      1.71511      6.45439        -0.000564      0.000848     -0.005368
      1.71202      6.62873      6.45439        -0.000564      0.000848     -0.005368
      6.95558      6.95868      6.45439        -0.000564      0.000848     -0.005368
      4.19144      4.18834      6.45439         0.000564     -0.000848     -0.005368
      9.43500      4.51829      6.45439         0.000564     -0.000848     -0.005368
      4.52139      9.43191      6.45439         0.000564     -0.000848     -0.005368
      9.76495      9.76185      6.45439         0.000564     -0.000848     -0.005368
      4.00695      1.54704      3.84409         0.000848     -0.000564     -0.005368
      9.25051      1.87699      3.84409         0.000848     -0.000564     -0.005368
      4.33690      6.79061      3.84409         0.000848     -0.000564     -0.005368
      9.58046      7.12055      3.84409         0.000848     -0.000564     -0.005368
      1.56656      4.02647      3.84409        -0.000848      0.000564     -0.005368
      6.81012      4.35641      3.84409        -0.000848      0.000564     -0.005368
      1.89651      9.27003      3.84409        -0.000848      0.000564     -0.005368
      7.14007      9.59998      3.84409        -0.000848      0.000564     -0.005368
      0.00000      0.00000      5.28223        -0.000000     -0.000000      0.004719
      5.24356      0.32995      5.28223        -0.000000     -0.000000      0.004719
      0.32995      5.24356      5.28223        -0.000000     -0.000000      0.004719
      5.57351      5.57351      5.28223        -0.000000     -0.000000      0.004719
      2.62178      0.16497      2.67193        -0.000000     -0.000000      0.004719
      7.86534      0.49492      2.67193        -0.000000     -0.000000      0.004719
      2.95173      5.40854      2.67193        -0.000000     -0.000000      0.004719
      8.19529      5.73848      2.67193        -0.000000     -0.000000      0.004719
      2.78676      2.78676      0.06162        -0.000000     -0.000000      0.004719
      8.03032      3.11670      0.06162        -0.000000     -0.000000      0.004719
      3.11670      8.03032      0.06162        -0.000000     -0.000000      0.004719
      8.36027      8.36027      0.06162        -0.000000     -0.000000      0.004719
      0.16497      2.62178      7.89253        -0.000000     -0.000000      0.004719
      5.40854      2.95173      7.89253        -0.000000     -0.000000      0.004719
      0.49492      7.86534      7.89253        -0.000000     -0.000000      0.004719
      5.73848      8.19529      7.89253        -0.000000     -0.000000      0.004719
      0.00000      0.00000      0.08111        -0.000000     -0.000000      0.006017
      5.24356      0.32995      0.08111        -0.000000     -0.000000      0.006017
      0.32995      5.24356      0.08111        -0.000000     -0.000000      0.006017
      5.57351      5.57351      0.08111        -0.000000     -0.000000      0.006017
      2.62178      0.16497      7.91201        -0.000000     -0.000000      0.006017
      7.86534      0.49492      7.91201        -0.000000     -0.000000      0.006017
      2.95173      5.40854      7.91201        -0.000000     -0.000000      0.006017
      8.19529      5.73848      7.91201        -0.000000     -0.000000      0.006017
      2.78676      2.78676      5.30171        -0.000000     -0.000000      0.006017
      8.03032      3.11670      5.30171        -0.000000     -0.000000      0.006017
      3.11670      8.03032      5.30171        -0.000000     -0.000000      0.006017
      8.36027      8.36027      5.30171        -0.000000     -0.000000      0.006017
      0.16497      2.62178      2.69141        -0.000000     -0.000000      0.006017
      5.40854      2.95173      2.69141        -0.000000     -0.000000      0.006017
      0.49492      7.86534      2.69141        -0.000000     -0.000000      0.006017
      5.73848      8.19529      2.69141        -0.000000     -0.000000      0.006017
 -----------------------------------------------------------------------------------
    total drift:                               -0.000000     -0.000000     -0.013386


--------------------------------------------------------------------------------------------------------



  FREE ENERGIE OF THE ION-ELECTRON SYSTEM (eV)
  ---------------------------------------------------
  free  energy   TOTEN  =      -326.42541714 eV

  energy  without entropy=     -326.42541714  energy(sigma->0) =     -326.42541714
 


--------------------------------------------------------------------------------------------------------


    POTLOK:  cpu time    0.1313: real time    0.1320


--------------------------------------------------------------------------------------------------------


 writing wavefunctions
     LOOP+:  cpu time 2840.0516: real time 2860.4794
    4ORBIT:  cpu time    0.0000: real time    0.0000
 


 total charge     
 
# of ion       s       p       d       tot
------------------------------------------
    1        1.315   2.405   0.000   3.720
    2        1.315   2.405   0.000   3.720
    3        1.315   2.405   0.000   3.720
    4        1.315   2.405   0.000   3.720
    5        1.315   2.405   0.000   3.720
    6        1.315   2.405   0.000   3.720
    7        1.315   2.405   0.000   3.720
    8        1.315   2.405   0.000   3.720
    9        1.315   2.405   0.000   3.721
   10        1.315   2.405   0.000   3.721
   11        1.315   2.405   0.000   3.721
   12        1.315   2.405   0.000   3.721
   13        1.315   2.405   0.000   3.721
   14        1.315   2.405   0.000   3.721
   15        1.315   2.405   0.000   3.721
   16        1.315   2.405   0.000   3.721
   17        1.315   2.405   0.000   3.720
   18        1.315   2.405   0.000   3.720
   19        1.315   2.405   0.000   3.720
   20        1.315   2.405   0.000   3.720
   21        1.315   2.405   0.000   3.720
   22        1.315   2.405   0.000   3.720
   23        1.315   2.405   0.000   3.720
   24        1.315   2.405   0.000   3.720
   25        1.315   2.405   0.000   3.721
   26        1.315   2.405   0.000   3.721
   27        1.315   2.405   0.000   3.721
   28        1.315   2.405   0.000   3.721
   29        1.315   2.405   0.000   3.721
   30        1.315   2.405   0.000   3.721
   31        1.315   2.405   0.000   3.721
   32        1.315   2.405   0.000   3.721
   33        0.258   6.200   8.916  15.375
   34        0.258   6.200   8.916  15.375
   35        0.258   6.200   8.916  15.375
   36        0.258   6.200   8.916  15.375
   37        0.258   6.201   8.917  15.375
   38        0.258   6.201   8.917  15.375
   39        0.258   6.201   8.917  15.375
   40        0.258   6.201   8.917  15.375
   41        0.258   6.200   8.916  15.375
   42        0.258   6.200   8.916  15.375
   43        0.258   6.200   8.916  15.375
   44        0.258   6.200   8.916  15.375
   45        0.258   6.201   8.917  15.375
   46        0.258   6.201   8.917  15.375
   47        0.258   6.201   8.917  15.375
   48        0.258   6.201   8.917  15.375
   49        0.346   6.345   5.823  12.514
   50        0.346   6.345   5.823  12.514
   51        0.346   6.345   5.823  12.514
   52        0.346   6.345   5.823  12.514
   53        0.346   6.345   5.824  12.514
   54        0.346   6.345   5.824  12.514
   55        0.346   6.345   5.824  12.514
   56        0.346   6.345   5.824  12.514
   57        0.346   6.345   5.823  12.514
   58        0.346   6.345   5.823  12.514
   59        0.346   6.345   5.823  12.514
   60        0.346   6.345   5.823  12.514
   61        0.346   6.345   5.824  12.514
   62        0.346   6.345   5.824  12.514
   63        0.346   6.345   5.824  12.514
   64        0.346   6.345   5.824  12.514
--------------------------------------------------
tot         51.751 277.687 235.836 565.274
 


 magnetization (x)
 
# of ion       s       p       d       tot
------------------------------------------
    1       -0.002  -0.031   0.000  -0.032
    2       -0.002  -0.031   0.000  -0.032
    3       -0.002  -0.031   0.000  -0.032
    4       -0.002  -0.031   0.000  -0.032
    5       -0.002  -0.031   0.000  -0.032
    6       -0.002  -0.031   0.000  -0.032
    7       -0.002  -0.031   0.000  -0.032
    8       -0.002  -0.031   0.000  -0.032
    9        0.002   0.031   0.000   0.032
   10        0.002   0.031   0.000   0.032
   11        0.002   0.031   0.000   0.032
   12        0.002   0.031   0.000   0.032
   13        0.002   0.031   0.000   0.032
   14        0.002   0.031   0.000   0.032
   15        0.002   0.031   0.000   0.032
   16        0.002   0.031   0.000   0.032
   17       -0.002  -0.031   0.000  -0.032
   18       -0.002  -0.031   0.000  -0.032
   19       -0.002  -0.031   0.000  -0.032
   20       -0.002  -0.031   0.000  -0.032
   21       -0.002  -0.031   0.000  -0.032
   22       -0.002  -0.031   0.000  -0.032
   23       -0.002  -0.031   0.000  -0.032
   24       -0.002  -0.031   0.000  -0.032
   25        0.002   0.031   0.000   0.032
   26        0.002   0.031   0.000   0.032
   27        0.002   0.031   0.000   0.032
   28        0.002   0.031   0.000   0.032
   29        0.002   0.031   0.000   0.032
   30        0.002   0.031   0.000   0.032
   31        0.002   0.031   0.000   0.032
   32        0.002   0.031   0.000   0.032
   33        0.000  -0.001   0.005   0.004
   34        0.000  -0.001   0.005   0.004
   35        0.000  -0.001   0.005   0.004
   36        0.000  -0.001   0.005   0.004
   37        0.000   0.001  -0.005  -0.005
   38        0.000   0.001  -0.005  -0.005
   39        0.000   0.001  -0.005  -0.005
   40        0.000   0.001  -0.005  -0.005
   41        0.000  -0.001   0.005   0.004
   42        0.000  -0.001   0.005   0.004
   43        0.000  -0.001   0.005   0.004
   44        0.000  -0.001   0.005   0.004
   45        0.000   0.001  -0.005  -0.005
   46        0.000   0.001  -0.005  -0.005
   47        0.000   0.001  -0.005  -0.005
   48        0.000   0.001  -0.005  -0.005
   49        0.020   0.053   3.667   3.739
   50        0.020   0.053   3.667   3.739
   51        0.020   0.053   3.667   3.739
   52        0.020   0.053   3.667   3.739
   53       -0.020  -0.053  -3.666  -3.739
   54       -0.020  -0.053  -3.666  -3.739
   55       -0.020  -0.053  -3.666  -3.739
   56       -0.020  -0.053  -3.666  -3.739
   57        0.020   0.053   3.667   3.739
   58        0.020   0.053   3.667   3.739
   59        0.020   0.053   3.667   3.739
   60        0.020   0.053   3.667   3.739
   61       -0.020  -0.053  -3.666  -3.739
   62       -0.020  -0.053  -3.666  -3.739
   63       -0.020  -0.053  -3.666  -3.739
   64       -0.020  -0.053  -3.666  -3.739
--------------------------------------------------
tot         -0.002   0.002  -0.002  -0.002
 
 BZINTS: Fermi energy:  5.131407;688.000000 electrons
         Band energy:***********;  BLOECHL correction:  0.000000

 total amount of memory used by VASP MPI-rank0   300225. kBytes
=======================================================================

   base      :      30000. kBytes
   nonl-proj :     174956. kBytes
   fftplans  :       4588. kBytes
   grid      :      69719. kBytes
   one-center:       1990. kBytes
   wavefun   :      18972. kBytes
 
  
  
 General timing and accounting informations for this job:
 ========================================================
  
                  Total CPU time used (sec):     2883.820
                            User time (sec):     2873.677
                          System time (sec):       10.142
                         Elapsed time (sec):     2905.725
  
                   Maximum memory used (kb):      659216.
                   Average memory used (kb):           0.
  
                          Minor page faults:       546947
                          Major page faults:         5798
                 Voluntary context switches:         7353
