 vasp.5.4.4.18Apr17-6-g9f103f2a35 (build Oct 30 2023 17:30:16) complex          
  
 executed on             LinuxIFC date 2024.06.30  21:44:53
 running on  256 total cores
 distrk:  each k-point on  256 cores,    1 groups
 distr:  one band on NCORES_PER_BAND=   1 cores,  256 groups


--------------------------------------------------------------------------------------------------------


 INCAR:
 POTCAR:    PAW_PBE S 06Sep2000                   
 POTCAR:     PAW_PBE Cu_pv 06Sep2000              
 POTCAR:     PAW_PBE Fe_pv 02Aug2007              

 ----------------------------------------------------------------------------- 
|                                                                             |
|           W    W    AA    RRRRR   N    N  II  N    N   GGGG   !!!           |
|           W    W   A  A   R    R  NN   N  II  NN   N  G    G  !!!           |
|           W    W  A    A  R    R  N N  N  II  N N  N  G       !!!           |
|           W WW W  AAAAAA  RRRRR   N  N N  II  N  N N  G  GGG   !            |
|           WW  WW  A    A  R   R   N   NN  II  N   NN  G    G                |
|           W    W  A    A  R    R  N    N  II  N    N   GGGG   !!!           |
|                                                                             |
|      For optimal performance we recommend to set                            |
|        NCORE= 4 - approx SQRT( number of cores)                             |
|      NCORE specifies how many cores store one orbital (NPAR=cpu/NCORE).     |
|      This setting can  greatly improve the performance of VASP for DFT.     |
|      The default,   NCORE=1            might be grossly inefficient         |
|      on modern multi-core architectures or massively parallel machines.     |
|      Do your own testing !!!!                                               |
|      Unfortunately you need to use the default for GW and RPA calculations. |
|      (for HF NCORE is supported but not extensively tested yet)             |
|                                                                             |
 ----------------------------------------------------------------------------- 

 POTCAR:    PAW_PBE S 06Sep2000                   
   SHA256 =  0fc7481fb0695f01bdc6462160264c5c84044ae9ec85a907d398b887a2bc3132 S/
   COPYR  = (c) Copyright 06Sep2000 Georg Kresse                                
   COPYR  = This file is part of the software VASP. Any use, copying, and all ot
   COPYR  = If you do not have a valid VASP license, you may not use, copy or di
   VRHFIN =S : s2p4                                                             
   LEXCH  = PE                                                                  
   EATOM  =   276.8230 eV,   20.3459 Ry                                         
                                                                                
   TITEL  = PAW_PBE S 06Sep2000                                                 
   LULTRA =        F    use ultrasoft PP ?                                      
   IUNSCR =        1    unscreen: 0-lin 1-nonlin 2-no                           
   RPACOR =    1.500    partial core radius                                     
   POMASS =   32.066; ZVAL   =    6.000    mass and valenz                      
   RCORE  =    1.900    outmost cutoff radius                                   
   RWIGS  =    2.200; RWIGS  =    1.164    wigner-seitz radius (au A)           
   ENMAX  =  258.689; ENMIN  =  194.016 eV                                      
   ICORE  =        2    local potential                                         
   LCOR   =        T    correct aug charges                                     
   LPAW   =        T    paw PP                                                  
   EAUG   =  335.092                                                            
   DEXC   =    0.000                                                            
   RMAX   =    1.942    core radius for proj-oper                               
   RAUG   =    1.300    factor for augmentation sphere                          
   RDEP   =    1.954    radius for radial grids                                 
   RDEPT  =    1.744    core radius for aug-charge                              
                                                                                
   Atomic configuration                                                         
    6 entries                                                                   
     n  l   j            E        occ.                                          
     1  0  0.50     -2405.8406   2.0000                                         
     2  0  0.50      -211.7007   2.0000                                         
     2  1  1.50      -156.4958   6.0000                                         
     3  0  0.50       -17.2562   2.0000                                         
     3  1  0.50        -7.0085   4.0000                                         
     3  2  1.50        -6.8029   0.0000                                         
   Description                                                                  
     l       E           TYP  RCUT    TYP  RCUT                                 
     0    -17.2561641     23  1.900                                             
     0    -15.8743224     23  1.900                                             
     1     -7.0085400     23  1.900                                             
     1     -2.7779785     23  1.900                                             
     2     -6.8029130     23  1.900                                             
  local pseudopotential read in
  partial core-charges read in
  partial kinetic energy density read in
  atomic valenz-charges read in
  non local Contribution for L=           0  read in
    real space projection operators read in
  non local Contribution for L=           0  read in
    real space projection operators read in
  non local Contribution for L=           1  read in
    real space projection operators read in
  non local Contribution for L=           1  read in
    real space projection operators read in
    PAW grid and wavefunctions read in
 
   number of l-projection  operators is LMAX  =           4
   number of lm-projection operators is LMMAX =           8
 
 POTCAR:     PAW_PBE Cu_pv 06Sep2000              
   SHA256 =  cb7b504e2ea725fe1f25c85a9ac77d4012ce94cd394135b722c4e25ec297f1cb Cu
   COPYR  = (c) Copyright 06Sep2000 Georg Kresse                                
   COPYR  = This file is part of the software VASP. Any use, copying, and all ot
   COPYR  = If you do not have a valid VASP license, you may not use, copy or di
   VRHFIN =Cu: d10 p1                                                           
   LEXCH  = PE                                                                  
   EATOM  =  4120.1201 eV,  302.8203 Ry                                         
                                                                                
   TITEL  = PAW_PBE Cu_pv 06Sep2000                                             
   LULTRA =        F    use ultrasoft PP ?                                      
   IUNSCR =        1    unscreen: 0-lin 1-nonlin 2-no                           
   RPACOR =    1.500    partial core radius                                     
   POMASS =   63.546; ZVAL   =   17.000    mass and valenz                      
   RCORE  =    2.000    outmost cutoff radius                                   
   RWIGS  =    2.000; RWIGS  =    1.058    wigner-seitz radius (au A)           
   ENMAX  =  368.648; ENMIN  =  276.486 eV                                      
   RCLOC  =    1.304    cutoff for local pot                                    
   LCOR   =        T    correct aug charges                                     
   LPAW   =        T    paw PP                                                  
   EAUG   =  758.233                                                            
   DEXC   =    0.000                                                            
   RMAX   =    2.046    core radius for proj-oper                               
   RAUG   =    1.300    factor for augmentation sphere                          
   RDEP   =    2.025    radius for radial grids                                 
   RDEPT  =    1.558    core radius for aug-charge                              
                                                                                
   Atomic configuration                                                         
    8 entries                                                                   
     n  l   j            E        occ.                                          
     1  0  0.50     -8850.2467   2.0000                                         
     2  0  0.50     -1062.3498   2.0000                                         
     2  1  1.50      -916.8226   6.0000                                         
     3  0  0.50      -114.6929   2.0000                                         
     3  1  1.50       -72.1325   6.0000                                         
     3  2  2.50        -5.0394  10.0000                                         
     4  0  0.50        -4.6097   1.0000                                         
     4  3  2.50        -1.3606   0.0000                                         
   Description                                                                  
     l       E           TYP  RCUT    TYP  RCUT                                 
     1    -72.1324777     23  1.700                                             
     1     -1.3605826     23  1.700                                             
     2     -5.0393776     23  2.000                                             
     2     -6.3999602     23  2.000                                             
     0     -4.6097062     23  1.800                                             
     0     14.1620818     23  1.800                                             
  local pseudopotential read in
  partial core-charges read in
  partial kinetic energy density read in
  atomic valenz-charges read in
  non local Contribution for L=           1  read in
    real space projection operators read in
  non local Contribution for L=           1  read in
    real space projection operators read in
  non local Contribution for L=           2  read in
    real space projection operators read in
  non local Contribution for L=           2  read in
    real space projection operators read in
  non local Contribution for L=           0  read in
    real space projection operators read in
  non local Contribution for L=           0  read in
    real space projection operators read in
    PAW grid and wavefunctions read in
 
   number of l-projection  operators is LMAX  =           6
   number of lm-projection operators is LMMAX =          18
 
 POTCAR:     PAW_PBE Fe_pv 02Aug2007              
   SHA256 =  5d22e414b1f82158bf2c7ecb8b97b28fd0923e48cadc1c3bf74d524558f5dd32 Fe
   COPYR  = (c) Copyright 02Aug2007 Georg Kresse                                
   COPYR  = This file is part of the software VASP. Any use, copying, and all ot
   COPYR  = If you do not have a valid VASP license, you may not use, copy or di
   VRHFIN =Fe:  3pd7s1                                                          
   LEXCH  = PE                                                                  
   EATOM  =  2457.4239 eV,  180.6156 Ry                                         
                                                                                
   TITEL  = PAW_PBE Fe_pv 02Aug2007                                             
   LULTRA =        F    use ultrasoft PP ?                                      
   IUNSCR =        1    unscreen: 0-lin 1-nonlin 2-no                           
   RPACOR =    1.750    partial core radius                                     
   POMASS =   55.847; ZVAL   =   14.000    mass and valenz                      
   RCORE  =    2.200    outmost cutoff radius                                   
   RWIGS  =    2.200; RWIGS  =    1.164    wigner-seitz radius (au A)           
   ENMAX  =  293.238; ENMIN  =  219.928 eV                                      
   ICORE  =        3    local potential                                         
   LCOR   =        T    correct aug charges                                     
   LPAW   =        T    paw PP                                                  
   EAUG   =  578.342                                                            
   DEXC   =    0.000                                                            
   RMAX   =    2.249    core radius for proj-oper                               
   RAUG   =    1.300    factor for augmentation sphere                          
   RDEP   =    2.296    radius for radial grids                                 
   RDEPT  =    1.766    core radius for aug-charge                              
                                                                                
   Atomic configuration                                                         
    8 entries                                                                   
     n  l   j            E        occ.                                          
     1  0  0.50     -6993.8440   2.0000                                         
     2  0  0.50      -814.6047   2.0000                                         
     2  1  1.50      -693.3689   6.0000                                         
     3  0  0.50       -89.4732   2.0000                                         
     3  1  1.50       -55.6373   6.0000                                         
     3  2  2.50        -3.8151   7.0000                                         
     4  0  0.50        -4.2551   1.0000                                         
     4  3  2.50        -1.3606   0.0000                                         
   Description                                                                  
     l       E           TYP  RCUT    TYP  RCUT                                 
     1    -55.6372668     23  2.000                                             
     1     -5.4423304     23  2.000                                             
     2     -3.8151096     23  2.200                                             
     2     -5.1756922     23  2.200                                             
     0     -4.2550951     23  2.200                                             
     0     27.2116520     23  2.200                                             
     3     -1.3605826     23  2.200                                             
  local pseudopotential read in
  partial core-charges read in
  partial kinetic energy density read in
  atomic valenz-charges read in
  non local Contribution for L=           1  read in
    real space projection operators read in
  non local Contribution for L=           1  read in
    real space projection operators read in
  non local Contribution for L=           2  read in
    real space projection operators read in
  non local Contribution for L=           2  read in
    real space projection operators read in
  non local Contribution for L=           0  read in
    real space projection operators read in
  non local Contribution for L=           0  read in
    real space projection operators read in
    PAW grid and wavefunctions read in
 
   number of l-projection  operators is LMAX  =           6
   number of lm-projection operators is LMMAX =          18
 

 ----------------------------------------------------------------------------- 
|                                                                             |
|  ADVICE TO THIS USER RUNNING 'VASP/VAMP'   (HEAR YOUR MASTER'S VOICE ...):  |
|                                                                             |
|      You have a (more or less) 'large supercell' and for larger cells       |
|      it might be more efficient to use real space projection opertators     |
|      So try LREAL= Auto  in the INCAR   file.                               |
|      Mind:          For very  accurate calculation you might also keep the  |
|      reciprocal projection scheme          (i.e. LREAL=.FALSE.)             |
|                                                                             |
 ----------------------------------------------------------------------------- 


 ----------------------------------------------------------------------------- 
|                                                                             |
|  ADVICE TO THIS USER RUNNING 'VASP/VAMP'   (HEAR YOUR MASTER'S VOICE ...):  |
|                                                                             |
|      You enforced a specific xc-type in the INCAR file,                     |
|      a different type was found on the POTCAR file                          |
|          I HOPE YOU KNOW, WHAT YOU ARE  DOING                               |
|                                                                             |
 ----------------------------------------------------------------------------- 

  PAW_PBE S 06Sep2000                   :
 energy of atom  1       EATOM= -276.8230
 kinetic energy error for atom=    0.0007 (will be added to EATOM!!)
   PAW_PBE Cu_pv 06Sep2000              :
 energy of atom  2       EATOM=-4120.1201
 kinetic energy error for atom=    0.0094 (will be added to EATOM!!)
   PAW_PBE Fe_pv 02Aug2007              :
 energy of atom  3       EATOM=-2457.4239
 kinetic energy error for atom=    0.0025 (will be added to EATOM!!)
 
 
 POSCAR: Fe16 Cu16 S32                           
  positions in direct lattice
  No initial velocities read in
 exchange correlation table for  LEXCH =       14
   RHO(1)=    0.500       N(1)  =     2000
   RHO(2)=  100.500       N(2)  =     4000
 


--------------------------------------------------------------------------------------------------------


 ion  position               nearest neighbor table
   1  0.126  0.122  0.126-  41 2.26  61 2.27  37 2.27  49 2.29
   2  0.626  0.122  0.126-  42 2.26  62 2.27  38 2.27  50 2.29
   3  0.126  0.622  0.126-  43 2.26  63 2.27  39 2.27  51 2.29
   4  0.626  0.622  0.126-  44 2.26  64 2.27  40 2.27  52 2.29
   5  0.374  0.372  0.124-  39 2.26  52 2.27  41 2.27  62 2.29
   6  0.874  0.372  0.124-  40 2.26  51 2.27  42 2.27  61 2.29
   7  0.374  0.872  0.124-  37 2.26  50 2.27  43 2.27  64 2.29
   8  0.874  0.872  0.124-  38 2.26  49 2.27  44 2.27  63 2.29
   9  0.125  0.371  0.875-  41 2.27  45 2.27  51 2.27  55 2.27
  10  0.625  0.371  0.875-  42 2.27  46 2.27  52 2.27  56 2.27
  11  0.125  0.871  0.875-  43 2.27  47 2.27  49 2.27  53 2.27
  12  0.625  0.871  0.875-  44 2.27  48 2.27  50 2.27  54 2.27
  13  0.375  0.124  0.875-  41 2.26  46 2.26  50 2.28  53 2.28
  14  0.875  0.124  0.875-  42 2.26  45 2.26  49 2.28  54 2.28
  15  0.375  0.624  0.875-  43 2.26  48 2.26  52 2.28  55 2.28
  16  0.875  0.624  0.875-  44 2.26  47 2.26  51 2.28  56 2.28
  17  0.124  0.122  0.624-  45 2.26  57 2.27  33 2.27  53 2.29
  18  0.624  0.122  0.624-  46 2.26  58 2.27  34 2.27  54 2.29
  19  0.124  0.622  0.624-  47 2.26  59 2.27  35 2.27  55 2.29
  20  0.624  0.622  0.624-  48 2.26  60 2.27  36 2.27  56 2.29
  21  0.376  0.372  0.626-  36 2.26  55 2.27  46 2.27  57 2.29
  22  0.876  0.372  0.626-  35 2.26  56 2.27  45 2.27  58 2.29
  23  0.376  0.872  0.626-  34 2.26  53 2.27  48 2.27  59 2.29
  24  0.876  0.872  0.626-  33 2.26  54 2.27  47 2.27  60 2.29
  25  0.375  0.121  0.375-  34 2.27  37 2.27  57 2.27  62 2.27
  26  0.875  0.121  0.375-  33 2.27  38 2.27  58 2.27  61 2.27
  27  0.375  0.621  0.375-  36 2.27  39 2.27  59 2.27  64 2.27
  28  0.875  0.621  0.375-  35 2.27  40 2.27  60 2.27  63 2.27
  29  0.125  0.374  0.375-  35 2.26  39 2.26  57 2.28  61 2.28
  30  0.625  0.374  0.375-  36 2.26  40 2.26  58 2.28  62 2.28
  31  0.125  0.874  0.375-  33 2.26  37 2.26  59 2.28  63 2.28
  32  0.625  0.874  0.375-  34 2.26  38 2.26  60 2.28  64 2.28
  33  0.999  0.003  0.500-  24 2.26  31 2.26  26 2.27  17 2.27
  34  0.499  0.003  0.500-  23 2.26  32 2.26  25 2.27  18 2.27
  35  0.999  0.503  0.500-  22 2.26  29 2.26  28 2.27  19 2.27
  36  0.499  0.503  0.500-  21 2.26  30 2.26  27 2.27  20 2.27
  37  0.251  0.003  0.250-   7 2.26  31 2.26  25 2.27   1 2.27
  38  0.751  0.003  0.250-   8 2.26  32 2.26  26 2.27   2 2.27
  39  0.251  0.503  0.250-   5 2.26  29 2.26  27 2.27   3 2.27
  40  0.751  0.503  0.250-   6 2.26  30 2.26  28 2.27   4 2.27
  41  0.249  0.253  0.000-   1 2.26  13 2.26   9 2.27   5 2.27
  42  0.749  0.253  0.000-   2 2.26  14 2.26  10 2.27   6 2.27
  43  0.249  0.753  0.000-   3 2.26  15 2.26  11 2.27   7 2.27
  44  0.749  0.753  0.000-   4 2.26  16 2.26  12 2.27   8 2.27
  45  0.001  0.253  0.750-  17 2.26  14 2.26   9 2.27  22 2.27
  46  0.501  0.253  0.750-  18 2.26  13 2.26  10 2.27  21 2.27
  47  0.001  0.753  0.750-  19 2.26  16 2.26  11 2.27  24 2.27
  48  0.501  0.753  0.750-  20 2.26  15 2.26  12 2.27  23 2.27
  49  0.999  0.003  0.000-   8 2.27  11 2.27  14 2.28   1 2.29
  50  0.499  0.003  0.000-   7 2.27  12 2.27  13 2.28   2 2.29
  51  0.999  0.503  0.000-   6 2.27   9 2.27  16 2.28   3 2.29
  52  0.499  0.503  0.000-   5 2.27  10 2.27  15 2.28   4 2.29
  53  0.251  0.003  0.750-  23 2.27  11 2.27  13 2.28  17 2.29
  54  0.751  0.003  0.750-  24 2.27  12 2.27  14 2.28  18 2.29
  55  0.251  0.503  0.750-  21 2.27   9 2.27  15 2.28  19 2.29
  56  0.751  0.503  0.750-  22 2.27  10 2.27  16 2.28  20 2.29
  57  0.249  0.253  0.500-  17 2.27  25 2.27  29 2.28  21 2.29
  58  0.749  0.253  0.500-  18 2.27  26 2.27  30 2.28  22 2.29
  59  0.249  0.753  0.500-  19 2.27  27 2.27  31 2.28  23 2.29
  60  0.749  0.753  0.500-  20 2.27  28 2.27  32 2.28  24 2.29
  61  0.001  0.253  0.250-   1 2.27  26 2.27  29 2.28   6 2.29
  62  0.501  0.253  0.250-   2 2.27  25 2.27  30 2.28   5 2.29
  63  0.001  0.753  0.250-   3 2.27  28 2.27  31 2.28   8 2.29
  64  0.501  0.753  0.250-   4 2.27  27 2.27  32 2.28   7 2.29
 
  LATTYP: Found a simple monoclinic cell.
 ALAT       =    15.2035689414
 B/A-ratio  =     0.6919268127
 C/A-ratio  =     1.5682150088
 COS(beta)  =    -0.9534689164
  
  Lattice vectors:
  
 A1 = ( -10.8014730000,   0.0000000000, -10.6993780000)
 A2 = (   0.0000000000, -10.5197570000,   0.0000000000)
 A3 = (  11.0921400000,   0.0000000000,  21.1051550000)


Analysis of symmetry for initial positions (statically):
=====================================================================
 Subroutine PRICEL returns following result:
 
  LATTYP: Found a base centered monoclinic cell.
 ALAT       =    11.3971576447
 B/A-ratio  =     0.4615079184
 C/A-ratio  =     0.9133712253
 COS(beta)  =    -0.8059326212
  
  Lattice vectors:
  
 A1 = (  -2.4823680000,  -2.6299392500,   5.1294882500)
 A2 = (  -2.4823680000,   2.6299392500,   5.1294882500)
 A3 = (  -0.2906670000,   0.0000000000, -10.4057770000)
 
   8 primitive cells build up your supercell.
 

 Routine SETGRP: Setting up the symmetry group for a 
 simple monoclinic supercell.


 Subroutine GETGRP returns: Found  2 space group operations
 (whereof  1 operations were pure point group operations)
 out of a pool of  4 trial point group operations.


The static configuration has the point symmetry C_1 .
 The point group associated with its full space group is C_2 .


Analysis of symmetry for dynamics (positions and initial velocities):
=====================================================================
 Subroutine PRICEL returns following result:
 
  LATTYP: Found a base centered monoclinic cell.
 ALAT       =    11.3971576447
 B/A-ratio  =     0.4615079184
 C/A-ratio  =     0.9133712253
 COS(beta)  =    -0.8059326212
  
  Lattice vectors:
  
 A1 = (  -2.4823680000,  -2.6299392500,   5.1294882500)
 A2 = (  -2.4823680000,   2.6299392500,   5.1294882500)
 A3 = (  -0.2906670000,   0.0000000000, -10.4057770000)
 
   8 primitive cells build up your supercell.
 

 Routine SETGRP: Setting up the symmetry group for a 
 simple monoclinic supercell.


 Subroutine GETGRP returns: Found  2 space group operations
 (whereof  1 operations were pure point group operations)
 out of a pool of  4 trial point group operations.


The dynamic configuration has the point symmetry C_1 .
 The point group associated with its full space group is C_2 .


Analysis of structural, dynamic, and magnetic symmetry:
=====================================================================
 Subroutine PRICEL returns following result:
 
  LATTYP: Found a base centered monoclinic cell.
 ALAT       =    11.3971576447
 B/A-ratio  =     0.4615079184
 C/A-ratio  =     0.9133712253
 COS(beta)  =    -0.8059326212
  
  Lattice vectors:
  
 A1 = (  -2.4823680000,  -2.6299392500,   5.1294882500)
 A2 = (  -2.4823680000,   2.6299392500,   5.1294882500)
 A3 = (  -0.2906670000,   0.0000000000, -10.4057770000)
 
   8 primitive cells build up your supercell.
 

 Routine SETGRP: Setting up the symmetry group for a 
 simple monoclinic supercell.


 Subroutine GETGRP returns: Found  2 space group operations
 (whereof  1 operations were pure point group operations)
 out of a pool of  4 trial point group operations.


The magnetic configuration has the point symmetry C_1 .
 The point group associated with its full space group is C_2 .


 Subroutine INISYM returns: Found  2 space group operations
 (whereof  1 operations are pure point group operations),
 and found     8 'primitive' translations

 
 
 KPOINTS: Automatic mesh                          

Automatic generation of k-mesh.
Space group operators:
 irot       det(A)        alpha          n_x          n_y          n_z        tau_x        tau_y        tau_z
    1     1.000000     0.000000     1.000000     0.000000     0.000000     0.000000     0.000000     0.000000
    2     1.000000   179.999999     0.000000     1.000000     0.000000    -0.250000     0.000000    -0.250000
 
 Subroutine IBZKPT returns following result:
 ===========================================
 
 Found      8 irreducible k-points:
 
 Following reciprocal coordinates:
            Coordinates               Weight
  0.000000  0.000000  0.000000      1.000000
  0.500000  0.000000  0.000000      1.000000
  0.000000  0.500000  0.000000      1.000000
  0.500000  0.500000  0.000000      1.000000
  0.000000  0.000000  0.500000      1.000000
  0.500000  0.000000  0.500000      1.000000
  0.000000  0.500000  0.500000      1.000000
  0.500000  0.500000  0.500000      1.000000
 
 Following cartesian coordinates:
            Coordinates               Weight
  0.000000  0.000000  0.000000      1.000000
  0.047607  0.000000 -0.001330      1.000000
  0.000000  0.047530  0.000000      1.000000
  0.047607  0.047530 -0.001330      1.000000
 -0.001343  0.000000  0.048088      1.000000
  0.046264  0.000000  0.046758      1.000000
 -0.001343  0.047530  0.048088      1.000000
  0.046264  0.047530  0.046758      1.000000
 
 TETIRR: Found     24 inequivalent tetrahedra from       48
 
 Subroutine IBZKPT_HF returns following result:
 ==============================================
 
 Found      8 k-points in 1st BZ
 the following      8 k-points will be used (e.g. in the exchange kernel)
 Following reciprocal coordinates:   # in IRBZ
  0.000000  0.000000  0.000000    0.12500000   1 t-inv F
  0.500000  0.000000  0.000000    0.12500000   2 t-inv F
  0.000000  0.500000  0.000000    0.12500000   3 t-inv F
  0.500000  0.500000  0.000000    0.12500000   4 t-inv F
  0.000000  0.000000  0.500000    0.12500000   5 t-inv F
  0.500000  0.000000  0.500000    0.12500000   6 t-inv F
  0.000000  0.500000  0.500000    0.12500000   7 t-inv F
  0.500000  0.500000  0.500000    0.12500000   8 t-inv F


--------------------------------------------------------------------------------------------------------




 Dimension of arrays:
   k-points           NKPTS =      8   k-points in BZ     NKDIM =      8   number of bands    NBANDS=    512
   number of dos      NEDOS =    301   number of ions     NIONS =     64
   non local maximal  LDIM  =      6   non local SUM 2l+1 LMDIM =     18
   total plane-waves  NPLWV = 829440
   max r-space proj   IRMAX =      1   max aug-charges    IRDMAX=  22926
   dimension x,y,z NGX =    96 NGY =   96 NGZ =   90
   dimension x,y,z NGXF=   192 NGYF=  192 NGZF=  180
   support grid    NGXF=   192 NGYF=  192 NGZF=  180
   ions per type =              32  16  16
   NGX,Y,Z   is equivalent  to a cutoff of  15.18, 15.17, 14.37 a.u.
   NGXF,Y,Z  is equivalent  to a cutoff of  30.36, 30.34, 28.75 a.u.

 SYSTEM =  CuFeS2                                  
 POSCAR =  Fe16 Cu16 S32                           

 Startparameter for this run:
   NWRITE =      2    write-flag & timer
   PREC   = accura    normal or accurate (medium, high low for compatibility)
   ISTART =      0    job   : 0-new  1-cont  2-samecut
   ICHARG =      1    charge: 1-file 2-atom 10-const
   ISPIN  =      2    spin polarized calculation?
   LNONCOLLINEAR =      F non collinear calculations
   LSORBIT =      F    spin-orbit coupling
   INIWAV =      1    electr: 0-lowe 1-rand  2-diag
   LASPH  =      F    aspherical Exc in radial PAW
   METAGGA=      F    non-selfconsistent MetaGGA calc.

 Electronic Relaxation 1
   ENCUT  =  700.0 eV  51.45 Ry    7.17 a.u.  22.68 22.69 22.46*2*pi/ulx,y,z
   ENINI  =  700.0     initial cutoff
   ENAUG  =  758.2 eV  augmentation charge cutoff
   NELM   =    500;   NELMIN=  2; NELMDL= -5     # of ELM steps 
   EDIFF  = 0.1E-07   stopping-criterion for ELM
   LREAL  =      F    real-space projection
   NLSPLINE    = F    spline interpolate recip. space projectors
   LCOMPAT=      F    compatible to vasp.4.4
   GGA_COMPAT  = T    GGA compatible to vasp.4.4-vasp.4.6
   LMAXPAW     = -100 max onsite density
   LMAXMIX     =    4 max onsite mixed and CHGCAR
   VOSKOWN=      0    Vosko Wilk Nusair interpolation
   ROPT   =    0.00000   0.00000   0.00000
 Ionic relaxation
   EDIFFG = -.1E-04   stopping-criterion for IOM
   NSW    =      0    number of steps for IOM
   NBLOCK =      1;   KBLOCK =      1    inner block; outer block 
   IBRION =     -1    ionic relax: 0-MD 1-quasi-New 2-CG
   NFREE  =      0    steps in history (QN), initial steepest desc. (CG)
   ISIF   =      2    stress and relaxation
   IWAVPR =     10    prediction:  0-non 1-charg 2-wave 3-comb
   ISYM   =      2    0-nonsym 1-usesym 2-fastsym
   LCORR  =      T    Harris-Foulkes like correction to forces

   POTIM  = 0.5000    time-step for ionic-motion
   TEIN   =    0.0    initial temperature
   TEBEG  =    0.0;   TEEND  =   0.0 temperature during run
   SMASS  =  -3.00    Nose mass-parameter (am)
   estimated Nose-frequenzy (Omega)   =  0.10E-29 period in steps =****** mass=  -0.253E-26a.u.
   SCALEE = 1.0000    scale energy and forces
   NPACO  =    256;   APACO  = 16.0  distance and # of slots for P.C.
   PSTRESS=    0.0 pullay stress

  Mass of Ions in am
   POMASS =  32.07 63.55 55.85
  Ionic Valenz
   ZVAL   =   6.00 17.00 14.00
  Atomic Wigner-Seitz radii
   RWIGS  =  -1.00 -1.00 -1.00
  virtual crystal weights 
   VCA    =   1.00  1.00  1.00
   NELECT =     688.0000    total number of electrons
   NUPDOWN=      -1.0000    fix difference up-down

 DOS related values:
   EMIN   =  10.00;   EMAX   =-10.00  energy-range for DOS
   EFERMI =   0.00
   ISMEAR =    -5;   SIGMA  =   0.03  broadening in eV -4-tet -1-fermi 0-gaus

 Electronic relaxation 2 (details)
   IALGO  =     38    algorithm
   LDIAG  =      T    sub-space diagonalisation (order eigenvalues)
   LSUBROT=      F    optimize rotation matrix (better conditioning)
   TURBO    =      0    0=normal 1=particle mesh
   IRESTART =      0    0=no restart 2=restart with 2 vectors
   NREBOOT  =      0    no. of reboots
   NMIN     =      0    reboot dimension
   EREF     =   0.00    reference energy to select bands
   IMIX   =      4    mixing-type and parameters
     AMIX     =   0.40;   BMIX     =  1.00
     AMIX_MAG =   1.60;   BMIX_MAG =  1.00
     AMIN     =   0.10
     WC   =   100.;   INIMIX=   1;  MIXPRE=   1;  MAXMIX= -45

 Intra band minimization:
   WEIMIN = 0.0000     energy-eigenvalue tresh-hold
   EBREAK =  0.49E-11  absolut break condition
   DEPER  =   0.30     relativ break condition  

   TIME   =   0.40     timestep for ELM

  volume/ion in A,a.u.               =      17.96       121.23
  Fermi-wavevector in a.u.,A,eV,Ry     =   1.379575  2.607018 25.894967  1.903226
  Thomas-Fermi vector in A             =   2.504532
 
 Write flags
   LWAVE        =      T    write WAVECAR
   LDOWNSAMPLE  =      F    k-point downsampling of WAVECAR
   LCHARG       =      T    write CHGCAR
   LVTOT        =      F    write LOCPOT, total local potential
   LVHAR        =      F    write LOCPOT, Hartree potential only
   LELF         =      F    write electronic localiz. function (ELF)
   LORBIT       =     11    0 simple, 1 ext, 2 COOP (PROOUT), +10 PAW based schemes


 Dipole corrections
   LMONO  =      F    monopole corrections only (constant potential shift)
   LDIPOL =      F    correct potential (dipole corrections)
   IDIPOL =      0    1-x, 2-y, 3-z, 4-all directions 
   EPSILON=  1.0000000 bulk dielectric constant

 LDA+U is selected, type is set to LDAUTYPE =  2
   angular momentum for each species LDAUL =     2    2    2
   U (eV)           for each species LDAUU =   0.0  0.1  4.7
   J (eV)           for each species LDAUJ =   0.0  0.0  0.0
 Exchange correlation treatment:
   GGA     =    PS    GGA type
   LEXCH   =    14    internal setting for exchange type
   VOSKOWN=      0    Vosko Wilk Nusair interpolation
   LHFCALC =     F    Hartree Fock is set to
   LHFONE  =     F    Hartree Fock one center treatment
   AEXX    =    0.0000 exact exchange contribution

 Linear response parameters
   LEPSILON=     F    determine dielectric tensor
   LRPA    =     F    only Hartree local field effects (RPA)
   LNABLA  =     F    use nabla operator in PAW spheres
   LVEL    =     F    velocity operator in full k-point grid
   LINTERFAST=   F  fast interpolation
   KINTER  =     0    interpolate to denser k-point grid
   CSHIFT  =0.1000    complex shift for real part using Kramers Kronig
   OMEGAMAX=  -1.0    maximum frequency
   DEG_THRESHOLD= 0.2000000E-02 threshold for treating states as degnerate
   RTIME   =   -0.100 relaxation time in fs
  (WPLASMAI=    0.000 imaginary part of plasma frequency in eV, 0.658/RTIME)
   DFIELD  = 0.0000000 0.0000000 0.0000000 field for delta impulse in time
 
 Orbital magnetization related:
   ORBITALMAG=     F  switch on orbital magnetization
   LCHIMAG   =     F  perturbation theory with respect to B field
   DQ        =  0.001000  dq finite difference perturbation B field
   LLRAUG    =     F  two centre corrections for induced B field

 PEAD related settings:
   LPEAD      =     T    switch on PEAD
   IPEAD      =     4    finite difference order for dpsi/dk
   LCALCPOL   =     T    calculate macroscopic polarization
   LCALCEPS   =     F    calculate dielectric tensor
   EFIELD_PEAD=    0.0000    0.0000    0.0000
   SKIP_EDOTP =     F
   LRPA       =     F
   SKIP_SCF   =     F


--------------------------------------------------------------------------------------------------------


 Static calculation
 charge density and potential will be updated during run
 spin polarized calculation
 Variant of blocked Davidson
 Davidson routine will perform the subspace rotation
 perform sub-space diagonalisation
    after iterative eigenvector-optimisation
 modified Broyden-mixing scheme, WC =      100.0
 initial mixing is a Kerker type mixing with AMIX =  0.4000 and BMIX =      1.0000
 Hartree-type preconditioning will be used
 using additional bands          168
 reciprocal scheme for non local part
 use partial core corrections
 calculate Harris-corrections to forces 
   (improved forces if not selfconsistent)
 use gradient corrections 
 use of overlap-Matrix (Vanderbilt PP)
 Fermi weights with tetrahedron method with Bloechl corrections


--------------------------------------------------------------------------------------------------------


  energy-cutoff  :      700.00
  volume of cell :     1149.68
      direct lattice vectors                 reciprocal lattice vectors
    10.510806000  0.000000000  0.293601000     0.095214475  0.000000000 -0.002659648
     0.000000000 10.519757000  0.000000000     0.000000000  0.095059230  0.000000000
     0.290667000  0.000000000 10.405777000    -0.002686495  0.000000000  0.096175507

  length of vectors
    10.514905816 10.519757000 10.409835843     0.095251614  0.095059230  0.096213021


 
 k-points in units of 2pi/SCALE and weight: Automatic mesh                          
   0.00000000  0.00000000  0.00000000       0.125
   0.04760724  0.00000000 -0.00132982       0.125
   0.00000000  0.04752961  0.00000000       0.125
   0.04760724  0.04752961 -0.00132982       0.125
  -0.00134325  0.00000000  0.04808775       0.125
   0.04626399  0.00000000  0.04675793       0.125
  -0.00134325  0.04752961  0.04808775       0.125
   0.04626399  0.04752961  0.04675793       0.125
 
 k-points in reciprocal lattice and weights: Automatic mesh                          
   0.00000000  0.00000000  0.00000000       0.125
   0.50000000  0.00000000  0.00000000       0.125
   0.00000000  0.50000000  0.00000000       0.125
   0.50000000  0.50000000  0.00000000       0.125
   0.00000000  0.00000000  0.50000000       0.125
   0.50000000  0.00000000  0.50000000       0.125
   0.00000000  0.50000000  0.50000000       0.125
   0.50000000  0.50000000  0.50000000       0.125
 
 position of ions in fractional coordinates (direct lattice) 
   0.12623300  0.12152000  0.12550600
   0.62623300  0.12152000  0.12550600
   0.12623300  0.62152000  0.12550600
   0.62623300  0.62152000  0.12550600
   0.37376700  0.37152000  0.12449400
   0.87376700  0.37152000  0.12449400
   0.37376700  0.87152000  0.12449400
   0.87376700  0.87152000  0.12449400
   0.12500000  0.37149100  0.87500000
   0.62500000  0.37149100  0.87500000
   0.12500000  0.87149100  0.87500000
   0.62500000  0.87149100  0.87500000
   0.37500000  0.12358300  0.87500000
   0.87500000  0.12358300  0.87500000
   0.37500000  0.62358300  0.87500000
   0.87500000  0.62358300  0.87500000
   0.12376700  0.12152000  0.62449400
   0.62376700  0.12152000  0.62449400
   0.12376700  0.62152000  0.62449400
   0.62376700  0.62152000  0.62449400
   0.37623300  0.37152000  0.62550600
   0.87623300  0.37152000  0.62550600
   0.37623300  0.87152000  0.62550600
   0.87623300  0.87152000  0.62550600
   0.37500000  0.12149100  0.37500000
   0.87500000  0.12149100  0.37500000
   0.37500000  0.62149100  0.37500000
   0.87500000  0.62149100  0.37500000
   0.12500000  0.37358300  0.37500000
   0.62500000  0.37358300  0.37500000
   0.12500000  0.87358300  0.37500000
   0.62500000  0.87358300  0.37500000
   0.99897300  0.00306800  0.50000800
   0.49897300  0.00306800  0.50000800
   0.99897300  0.50306800  0.50000800
   0.49897300  0.50306800  0.50000800
   0.25102700  0.00306800  0.24999200
   0.75102700  0.00306800  0.24999200
   0.25102700  0.50306800  0.24999200
   0.75102700  0.50306800  0.24999200
   0.24897300  0.25306800  0.00000800
   0.74897300  0.25306800  0.00000800
   0.24897300  0.75306800  0.00000800
   0.74897300  0.75306800  0.00000800
   0.00102700  0.25306800  0.74999200
   0.50102700  0.25306800  0.74999200
   0.00102700  0.75306800  0.74999200
   0.50102700  0.75306800  0.74999200
   0.99943700  0.00287400  0.00020100
   0.49943700  0.00287400  0.00020100
   0.99943700  0.50287400  0.00020100
   0.49943700  0.50287400  0.00020100
   0.25056300  0.00287400  0.74979900
   0.75056300  0.00287400  0.74979900
   0.25056300  0.50287400  0.74979900
   0.75056300  0.50287400  0.74979900
   0.24943700  0.25287400  0.50020100
   0.74943700  0.25287400  0.50020100
   0.24943700  0.75287400  0.50020100
   0.74943700  0.75287400  0.50020100
   0.00056300  0.25287400  0.24979900
   0.50056300  0.25287400  0.24979900
   0.00056300  0.75287400  0.24979900
   0.50056300  0.75287400  0.24979900
 
 position of ions in cartesian coordinates  (Angst):
   1.36329103  1.27836087  1.34304958
   6.61869403  1.27836087  1.48985008
   1.36329103  6.53823937  1.34304958
   6.61869403  6.53823937  1.48985008
   3.96477872  3.90830012  1.40519517
   9.22018172  3.90830012  1.55199567
   3.96477872  9.16817862  1.40519517
   9.22018172  9.16817862  1.55199567
   1.56818437  3.90799505  9.14175500
   6.82358738  3.90799505  9.28855550
   1.56818437  9.16787355  9.14175500
   6.82358738  9.16787355  9.28855550
   4.19588588  1.30006313  9.21515525
   9.45128887  1.30006313  9.36195575
   4.19588588  6.55994163  9.21515525
   9.45128887  6.55994163  9.36195575
   1.48241072  1.27836087  6.53468342
   6.73781372  1.27836087  6.68148392
   1.48241072  6.53823937  6.53468342
   6.73781372  6.53823937  6.68148392
   4.13632603  3.90830012  6.61933833
   9.39172903  3.90830012  6.76613883
   4.13632603  9.16817862  6.61933833
   9.39172903  9.16817862  6.76613883
   4.05055237  1.27805580  4.01226675
   9.30595537  1.27805580  4.15906725
   4.05055237  6.53793430  4.01226675
   9.30595537  6.53793430  4.15906725
   1.42285087  3.93000238  3.93886650
   6.67825388  3.93000238  4.08566700
   1.42285087  9.18988088  3.93886650
   6.67825388  9.18988088  4.08566700
  10.64534723  0.03227461  5.49627122
   5.38994423  0.03227461  5.34947072
  10.64534723  5.29215311  5.49627122
   5.38994423  5.29215311  5.34947072
   2.71116052  0.03227461  2.67506278
   7.96656352  0.03227461  2.82186328
   2.71116052  5.29215311  2.67506278
   7.96656352  5.29215311  2.82186328
   2.61690923  2.66221386  0.07318197
   7.87231223  2.66221386  0.21998247
   2.61690923  7.92209236  0.07318197
   7.87231223  7.92209236  0.21998247
   0.22879252  2.66221386  7.80455103
   5.48419552  2.66221386  7.95135153
   0.22879252  7.92209236  7.80455103
   5.48419552  7.92209236  7.95135153
  10.50494684  0.03023378  0.29552726
   5.24954384  0.03023378  0.14872676
  10.50494684  5.29011228  0.29552726
   5.24954384  5.29011228  0.14872676
   2.85156091  0.03023378  7.87580674
   8.10696391  0.03023378  8.02260724
   2.85156091  5.29011228  7.87580674
   8.10696391  5.29011228  8.02260724
   2.76717584  2.66017303  5.27821501
   8.02257884  2.66017303  5.42501551
   2.76717584  7.92005153  5.27821501
   8.02257884  7.92005153  5.42501551
   0.07852591  2.66017303  2.59951799
   5.33392891  2.66017303  2.74631849
   0.07852591  7.92005153  2.59951799
   5.33392891  7.92005153  2.74631849
 


--------------------------------------------------------------------------------------------------------


 k-point  1 :   0.0000 0.0000 0.0000  plane waves:   48343
 k-point  2 :   0.5000 0.0000 0.0000  plane waves:   48370
 k-point  3 :   0.0000 0.5000 0.0000  plane waves:   48338
 k-point  4 :   0.5000 0.5000 0.0000  plane waves:   48356
 k-point  5 :   0.0000 0.0000 0.5000  plane waves:   48372
 k-point  6 :   0.5000 0.0000 0.5000  plane waves:   48318
 k-point  7 :   0.0000 0.5000 0.5000  plane waves:   48360
 k-point  8 :   0.5000 0.5000 0.5000  plane waves:   48264

 maximum and minimum number of plane-waves per node :     48372    48264

 maximum number of plane-waves:     48372
 maximum index in each direction: 
   IXMAX=   22   IYMAX=   22   IZMAX=   22
   IXMIN=  -23   IYMIN=  -23   IZMIN=  -22


 serial   3D FFT for wavefunctions
 parallel 3D FFT for charge:
    minimum data exchange during FFTs selected (reduces bandwidth)


 total amount of memory used by VASP MPI-rank0   348353. kBytes
=======================================================================

   base      :      30000. kBytes
   nonl-proj :     216760. kBytes
   fftplans  :       4588. kBytes
   grid      :      69719. kBytes
   one-center:       1990. kBytes
   wavefun   :      25296. kBytes
 
     INWAV:  cpu time    0.0001: real time    0.0002
 Broyden mixing: mesh for mixing (old mesh)
   NGX = 45   NGY = 45   NGZ = 45
  (NGX  =192   NGY  =192   NGZ  =180)
  gives a total of  91125 points

 initial charge density was supplied:
 number of electron     688.0000190 magnetization       0.0000000
 keeping initial charge density in first step


--------------------------------------------------------------------------------------------------------


 Maximum index for augmentation-charges          898 (set IRDMAX)


--------------------------------------------------------------------------------------------------------


 First call to EWALD:  gamma=   0.169
 Maximum number of real-space cells 3x 3x 3
 Maximum number of reciprocal cells 3x 3x 3

    FEWALD:  cpu time    0.0027: real time    0.0031


--------------------------------------- Iteration      1(   1)  ---------------------------------------


    POTLOK:  cpu time    0.3685: real time    0.4245
    SETDIJ:  cpu time    0.0144: real time    0.0146
     EDDAV:  cpu time   86.3220: real time   87.0378
 BZINTS: Fermi energy: 14.954069;688.000000 electrons
         Band energy:***********;  BLOECHL correction: -0.011597
       DOS:  cpu time    0.0396: real time    0.0398
    --------------------------------------------
      LOOP:  cpu time   86.7446: real time   87.5168

 eigenvalue-minimisations  : 16384
 total energy-change (2. order) : 0.6053187E+04  (-0.5159533E+05)
 number of electron     688.0000190 magnetization       0.0000000
 augmentation part      688.0000190 magnetization       0.0000000

 Free energy of the ion-electron system (eV)
  ---------------------------------------------------
  alpha Z        PSCENC =      2358.17694133
  Ewald energy   TEWEN  =    -62498.60143146
  -Hartree energ DENC   =    -42918.07470541
  -exchange      EXHF   =         0.00000000
  -V(xc)+E(xc)   XCENC  =      3285.86442374
  PAW double counting   =    112224.67741066  -115917.87443654
  entropy T*S    EENTRO =         0.00000000
  eigenvalues    EBANDS =     -4501.04672913
  atomic energy  EATOM  =    114020.06510763
  Solvation  Ediel_sol  =         0.00000000
  ---------------------------------------------------
  free energy    TOTEN  =      6053.18658083 eV

  energy without entropy =     6053.18658083  energy(sigma->0) =     6053.18658083


--------------------------------------------------------------------------------------------------------




--------------------------------------- Iteration      1(   2)  ---------------------------------------


     EDDAV:  cpu time   93.1033: real time   93.8348
 BZINTS: Fermi energy:  5.478885;688.000000 electrons
         Band energy:***********;  BLOECHL correction:  0.000000
       DOS:  cpu time    0.0066: real time    0.0066
    --------------------------------------------
      LOOP:  cpu time   93.1099: real time   93.8414

 eigenvalue-minimisations  : 17408
 total energy-change (2. order) :-0.6125263E+04  (-0.6015888E+04)
 number of electron     688.0000190 magnetization       0.0000000
 augmentation part      688.0000190 magnetization       0.0000000

 Free energy of the ion-electron system (eV)
  ---------------------------------------------------
  alpha Z        PSCENC =      2358.17694133
  Ewald energy   TEWEN  =    -62498.60143146
  -Hartree energ DENC   =    -42918.07470541
  -exchange      EXHF   =         0.00000000
  -V(xc)+E(xc)   XCENC  =      3285.86442374
  PAW double counting   =    112224.67741066  -115917.87443654
  entropy T*S    EENTRO =         0.00000000
  eigenvalues    EBANDS =    -10626.30941330
  atomic energy  EATOM  =    114020.06510763
  Solvation  Ediel_sol  =         0.00000000
  ---------------------------------------------------
  free energy    TOTEN  =       -72.07610335 eV

  energy without entropy =      -72.07610335  energy(sigma->0) =      -72.07610335


--------------------------------------------------------------------------------------------------------




--------------------------------------- Iteration      1(   3)  ---------------------------------------


     EDDAV:  cpu time  165.2952: real time  166.4547
 BZINTS: Fermi energy:  4.964130;688.000000 electrons
         Band energy:***********;  BLOECHL correction:  0.000000
       DOS:  cpu time    0.0061: real time    0.0061
    --------------------------------------------
      LOOP:  cpu time  165.3013: real time  166.4608

 eigenvalue-minimisations  : 23552
 total energy-change (2. order) :-0.2530372E+03  (-0.2520128E+03)
 number of electron     688.0000190 magnetization       0.0000000
 augmentation part      688.0000190 magnetization       0.0000000

 Free energy of the ion-electron system (eV)
  ---------------------------------------------------
  alpha Z        PSCENC =      2358.17694133
  Ewald energy   TEWEN  =    -62498.60143146
  -Hartree energ DENC   =    -42918.07470541
  -exchange      EXHF   =         0.00000000
  -V(xc)+E(xc)   XCENC  =      3285.86442374
  PAW double counting   =    112224.67741066  -115917.87443654
  entropy T*S    EENTRO =         0.00000000
  eigenvalues    EBANDS =    -10879.34656896
  atomic energy  EATOM  =    114020.06510763
  Solvation  Ediel_sol  =         0.00000000
  ---------------------------------------------------
  free energy    TOTEN  =      -325.11325900 eV

  energy without entropy =     -325.11325900  energy(sigma->0) =     -325.11325900


--------------------------------------------------------------------------------------------------------




--------------------------------------- Iteration      1(   4)  ---------------------------------------


     EDDAV:  cpu time  100.6294: real time  101.4021
 BZINTS: Fermi energy:  5.055918;688.000000 electrons
         Band energy:***********;  BLOECHL correction:  0.000000
       DOS:  cpu time    0.0060: real time    0.0060
    --------------------------------------------
      LOOP:  cpu time  100.6354: real time  101.4081

 eigenvalue-minimisations  : 17920
 total energy-change (2. order) :-0.3445886E+01  (-0.3445738E+01)
 number of electron     688.0000190 magnetization       0.0000000
 augmentation part      688.0000190 magnetization       0.0000000

 Free energy of the ion-electron system (eV)
  ---------------------------------------------------
  alpha Z        PSCENC =      2358.17694133
  Ewald energy   TEWEN  =    -62498.60143146
  -Hartree energ DENC   =    -42918.07470541
  -exchange      EXHF   =         0.00000000
  -V(xc)+E(xc)   XCENC  =      3285.86442374
  PAW double counting   =    112224.67741066  -115917.87443654
  entropy T*S    EENTRO =         0.00000000
  eigenvalues    EBANDS =    -10882.79245477
  atomic energy  EATOM  =    114020.06510763
  Solvation  Ediel_sol  =         0.00000000
  ---------------------------------------------------
  free energy    TOTEN  =      -328.55914481 eV

  energy without entropy =     -328.55914481  energy(sigma->0) =     -328.55914481


--------------------------------------------------------------------------------------------------------




--------------------------------------- Iteration      1(   5)  ---------------------------------------


     EDDAV:  cpu time  160.3170: real time  161.4405
 BZINTS: Fermi energy:  4.968091;688.000000 electrons
         Band energy:***********;  BLOECHL correction:  0.000000
       DOS:  cpu time    0.0060: real time    0.0060
    CHARGE:  cpu time    1.3875: real time    1.3960
    MIXING:  cpu time    0.0024: real time    0.0024
    --------------------------------------------
      LOOP:  cpu time  161.7128: real time  162.8450

 eigenvalue-minimisations  : 23040
 total energy-change (2. order) :-0.1026680E+00  (-0.1026674E+00)
 number of electron     688.0000162 magnetization       0.0000000
 augmentation part      282.4783053 magnetization       0.0000000

 Broyden mixing:
  rms(total) = 0.71633E+00    rms(broyden)= 0.71623E+00
  rms(prec ) = 0.80347E+00
  weight for this iteration     100.00

 Free energy of the ion-electron system (eV)
  ---------------------------------------------------
  alpha Z        PSCENC =      2358.17694133
  Ewald energy   TEWEN  =    -62498.60143146
  -Hartree energ DENC   =    -42918.07470541
  -exchange      EXHF   =         0.00000000
  -V(xc)+E(xc)   XCENC  =      3285.86442374
  PAW double counting   =    112224.67741066  -115917.87443654
  entropy T*S    EENTRO =         0.00000000
  eigenvalues    EBANDS =    -10882.89512279
  atomic energy  EATOM  =    114020.06510763
  Solvation  Ediel_sol  =         0.00000000
  ---------------------------------------------------
  free energy    TOTEN  =      -328.66181283 eV

  energy without entropy =     -328.66181283  energy(sigma->0) =     -328.66181283


--------------------------------------------------------------------------------------------------------




--------------------------------------- Iteration      1(   6)  ---------------------------------------


    POTLOK:  cpu time    0.1193: real time    0.1216
    SETDIJ:  cpu time    0.0129: real time    0.0130
     EDDAV:  cpu time  173.8147: real time  175.0405
 BZINTS: Fermi energy:  4.944174;688.000000 electrons
         Band energy:***********;  BLOECHL correction:  0.000000
       DOS:  cpu time    0.0060: real time    0.0060
    CHARGE:  cpu time    1.3831: real time    1.3916
    MIXING:  cpu time    0.0024: real time    0.0120
    --------------------------------------------
      LOOP:  cpu time  175.3384: real time  176.5847

 eigenvalue-minimisations  : 25600
 total energy-change (2. order) : 0.6575549E+00  (-0.6109597E-01)
 number of electron     688.0000162 magnetization       0.0000000
 augmentation part      282.0667111 magnetization       0.0000000

 Broyden mixing:
  rms(total) = 0.38223E+00    rms(broyden)= 0.38222E+00
  rms(prec ) = 0.42835E+00
  weight for this iteration     100.00

 eigenvalues of (default mixing * dielectric matrix)
  average eigenvalue GAMMA=   0.9179
  0.9179

 Free energy of the ion-electron system (eV)
  ---------------------------------------------------
  alpha Z        PSCENC =      2358.17694133
  Ewald energy   TEWEN  =    -62498.60143146
  -Hartree energ DENC   =    -42943.36383453
  -exchange      EXHF   =         0.00000000
  -V(xc)+E(xc)   XCENC  =      3286.67396602
  PAW double counting   =    112344.73988258  -116040.96055962
  entropy T*S    EENTRO =         0.00000000
  eigenvalues    EBANDS =    -10854.73432987
  atomic energy  EATOM  =    114020.06510763
  Solvation  Ediel_sol  =         0.00000000
  ---------------------------------------------------
  free energy    TOTEN  =      -328.00425791 eV

  energy without entropy =     -328.00425791  energy(sigma->0) =     -328.00425791


--------------------------------------------------------------------------------------------------------




--------------------------------------- Iteration      1(   7)  ---------------------------------------


    POTLOK:  cpu time    0.1197: real time    0.1222
    SETDIJ:  cpu time    0.0127: real time    0.0128
     EDDAV:  cpu time  178.7097: real time  179.9636
 BZINTS: Fermi energy:  4.928762;688.000000 electrons
         Band energy:***********;  BLOECHL correction:  0.000000
       DOS:  cpu time    0.0060: real time    0.0060
    CHARGE:  cpu time    1.3846: real time    1.3931
    MIXING:  cpu time    0.0015: real time    0.0034
    --------------------------------------------
      LOOP:  cpu time  180.2341: real time  181.5011

 eigenvalue-minimisations  : 25600
 total energy-change (2. order) : 0.1877889E+00  (-0.5732688E-01)
 number of electron     688.0000162 magnetization       0.0000000
 augmentation part      282.3897302 magnetization       0.0000000

 Broyden mixing:
  rms(total) = 0.23257E+00    rms(broyden)= 0.23257E+00
  rms(prec ) = 0.25777E+00
  weight for this iteration     100.00

 eigenvalues of (default mixing * dielectric matrix)
  average eigenvalue GAMMA=   1.1608
  1.6939  0.6276

 Free energy of the ion-electron system (eV)
  ---------------------------------------------------
  alpha Z        PSCENC =      2358.17694133
  Ewald energy   TEWEN  =    -62498.60143146
  -Hartree energ DENC   =    -42920.15828446
  -exchange      EXHF   =         0.00000000
  -V(xc)+E(xc)   XCENC  =      3286.08064376
  PAW double counting   =    112294.04413317  -115985.74977210
  entropy T*S    EENTRO =         0.00000000
  eigenvalues    EBANDS =    -10881.67380691
  atomic energy  EATOM  =    114020.06510763
  Solvation  Ediel_sol  =         0.00000000
  ---------------------------------------------------
  free energy    TOTEN  =      -327.81646903 eV

  energy without entropy =     -327.81646903  energy(sigma->0) =     -327.81646903


--------------------------------------------------------------------------------------------------------




--------------------------------------- Iteration      1(   8)  ---------------------------------------


    POTLOK:  cpu time    0.1198: real time    0.1222
    SETDIJ:  cpu time    0.0127: real time    0.0128
     EDDAV:  cpu time  152.6666: real time  153.7544
 BZINTS: Fermi energy:  4.945750;688.000000 electrons
         Band energy:***********;  BLOECHL correction:  0.000000
       DOS:  cpu time    0.0059: real time    0.0059
    CHARGE:  cpu time    1.3971: real time    1.4058
    MIXING:  cpu time    0.0014: real time    0.0014
    --------------------------------------------
      LOOP:  cpu time  154.2036: real time  155.3025

 eigenvalue-minimisations  : 22272
 total energy-change (2. order) : 0.1195084E-01  (-0.5317695E-01)
 number of electron     688.0000162 magnetization       0.0000000
 augmentation part      282.2830785 magnetization       0.0000000

 Broyden mixing:
  rms(total) = 0.20118E+00    rms(broyden)= 0.20118E+00
  rms(prec ) = 0.23772E+00
  weight for this iteration     100.00

 eigenvalues of (default mixing * dielectric matrix)
  average eigenvalue GAMMA=   0.9156
  1.7849  0.6175  0.3444

 Free energy of the ion-electron system (eV)
  ---------------------------------------------------
  alpha Z        PSCENC =      2358.17694133
  Ewald energy   TEWEN  =    -62498.60143146
  -Hartree energ DENC   =    -42937.17860092
  -exchange      EXHF   =         0.00000000
  -V(xc)+E(xc)   XCENC  =      3286.74628505
  PAW double counting   =    112285.50988037  -115979.20990840
  entropy T*S    EENTRO =         0.00000000
  eigenvalues    EBANDS =    -10863.31279181
  atomic energy  EATOM  =    114020.06510763
  Solvation  Ediel_sol  =         0.00000000
  ---------------------------------------------------
  free energy    TOTEN  =      -327.80451820 eV

  energy without entropy =     -327.80451820  energy(sigma->0) =     -327.80451820


--------------------------------------------------------------------------------------------------------




--------------------------------------- Iteration      1(   9)  ---------------------------------------


    POTLOK:  cpu time    0.1217: real time    0.1227
    SETDIJ:  cpu time    0.0130: real time    0.0131
     EDDAV:  cpu time  134.4508: real time  135.4198
 BZINTS: Fermi energy:  4.934504;688.000000 electrons
         Band energy:***********;  BLOECHL correction:  0.000000
       DOS:  cpu time    0.0058: real time    0.0059
    CHARGE:  cpu time    1.3802: real time    1.3898
    MIXING:  cpu time    0.0016: real time    0.0029
    --------------------------------------------
      LOOP:  cpu time  135.9731: real time  136.9542

 eigenvalue-minimisations  : 20736
 total energy-change (2. order) : 0.1659257E-01  (-0.1818131E-01)
 number of electron     688.0000162 magnetization       0.0000000
 augmentation part      282.2269818 magnetization       0.0000000

 Broyden mixing:
  rms(total) = 0.73612E-01    rms(broyden)= 0.73608E-01
  rms(prec ) = 0.75520E-01
  weight for this iteration     100.00

 eigenvalues of (default mixing * dielectric matrix)
  average eigenvalue GAMMA=   0.8916
  1.9467  0.7470  0.5463  0.3265

 Free energy of the ion-electron system (eV)
  ---------------------------------------------------
  alpha Z        PSCENC =      2358.17694133
  Ewald energy   TEWEN  =    -62498.60143146
  -Hartree energ DENC   =    -42934.68719365
  -exchange      EXHF   =         0.00000000
  -V(xc)+E(xc)   XCENC  =      3286.49324692
  PAW double counting   =    112279.57511076  -115973.41966927
  entropy T*S    EENTRO =         0.00000000
  eigenvalues    EBANDS =    -10865.39003790
  atomic energy  EATOM  =    114020.06510763
  Solvation  Ediel_sol  =         0.00000000
  ---------------------------------------------------
  free energy    TOTEN  =      -327.78792563 eV

  energy without entropy =     -327.78792563  energy(sigma->0) =     -327.78792563


--------------------------------------------------------------------------------------------------------




--------------------------------------- Iteration      1(  10)  ---------------------------------------


    POTLOK:  cpu time    0.1213: real time    0.1226
    SETDIJ:  cpu time    0.0128: real time    0.0129
     EDDAV:  cpu time  123.2126: real time  124.1027
 BZINTS: Fermi energy:  4.933784;688.000000 electrons
         Band energy:***********;  BLOECHL correction:  0.000000
       DOS:  cpu time    0.0059: real time    0.0059
    CHARGE:  cpu time    1.3809: real time    1.3895
    MIXING:  cpu time    0.0014: real time    0.0015
    --------------------------------------------
      LOOP:  cpu time  124.7349: real time  125.6350

 eigenvalue-minimisations  : 19456
 total energy-change (2. order) :-0.8281356E-03  (-0.6282870E-03)
 number of electron     688.0000162 magnetization       0.0000000
 augmentation part      282.2130463 magnetization       0.0000000

 Broyden mixing:
  rms(total) = 0.42746E-01    rms(broyden)= 0.42746E-01
  rms(prec ) = 0.44499E-01
  weight for this iteration     100.00

 eigenvalues of (default mixing * dielectric matrix)
  average eigenvalue GAMMA=   0.9743
  1.7763  1.5494  0.6823  0.5244  0.3393

 Free energy of the ion-electron system (eV)
  ---------------------------------------------------
  alpha Z        PSCENC =      2358.17694133
  Ewald energy   TEWEN  =    -62498.60143146
  -Hartree energ DENC   =    -42935.13171342
  -exchange      EXHF   =         0.00000000
  -V(xc)+E(xc)   XCENC  =      3286.49958440
  PAW double counting   =    112271.53180243  -115965.19871952
  entropy T*S    EENTRO =         0.00000000
  eigenvalues    EBANDS =    -10865.13032516
  atomic energy  EATOM  =    114020.06510763
  Solvation  Ediel_sol  =         0.00000000
  ---------------------------------------------------
  free energy    TOTEN  =      -327.78875376 eV

  energy without entropy =     -327.78875376  energy(sigma->0) =     -327.78875376


--------------------------------------------------------------------------------------------------------




--------------------------------------- Iteration      1(  11)  ---------------------------------------


    POTLOK:  cpu time    0.1212: real time    0.1222
    SETDIJ:  cpu time    0.0128: real time    0.0128
     EDDAV:  cpu time  144.0207: real time  145.0422
 BZINTS: Fermi energy:  4.933017;688.000000 electrons
         Band energy:***********;  BLOECHL correction:  0.000000
       DOS:  cpu time    0.0058: real time    0.0059
    CHARGE:  cpu time    1.3776: real time    1.3877
    MIXING:  cpu time    0.0014: real time    0.0014
    --------------------------------------------
      LOOP:  cpu time  145.5395: real time  146.5721

 eigenvalue-minimisations  : 21504
 total energy-change (2. order) :-0.6922638E-03  (-0.3111959E-03)
 number of electron     688.0000162 magnetization       0.0000000
 augmentation part      282.2361623 magnetization       0.0000000

 Broyden mixing:
  rms(total) = 0.19868E-01    rms(broyden)= 0.19868E-01
  rms(prec ) = 0.20246E-01
  weight for this iteration     100.00

 eigenvalues of (default mixing * dielectric matrix)
  average eigenvalue GAMMA=   1.1450
  2.1873  2.1873  0.9374  0.6621  0.5589  0.3366

 Free energy of the ion-electron system (eV)
  ---------------------------------------------------
  alpha Z        PSCENC =      2358.17694133
  Ewald energy   TEWEN  =    -62498.60143146
  -Hartree energ DENC   =    -42934.00483860
  -exchange      EXHF   =         0.00000000
  -V(xc)+E(xc)   XCENC  =      3286.47837325
  PAW double counting   =    112260.14843328  -115953.54267940
  entropy T*S    EENTRO =         0.00000000
  eigenvalues    EBANDS =    -10866.50935206
  atomic energy  EATOM  =    114020.06510763
  Solvation  Ediel_sol  =         0.00000000
  ---------------------------------------------------
  free energy    TOTEN  =      -327.78944603 eV

  energy without entropy =     -327.78944603  energy(sigma->0) =     -327.78944603


--------------------------------------------------------------------------------------------------------




--------------------------------------- Iteration      1(  12)  ---------------------------------------


    POTLOK:  cpu time    0.1177: real time    0.1216
    SETDIJ:  cpu time    0.0128: real time    0.0129
     EDDAV:  cpu time  129.3890: real time  130.3210
 BZINTS: Fermi energy:  4.933114;688.000000 electrons
         Band energy:***********;  BLOECHL correction:  0.000000
       DOS:  cpu time    0.0059: real time    0.0059
    CHARGE:  cpu time    1.3850: real time    1.3942
    MIXING:  cpu time    0.0015: real time    0.0015
    --------------------------------------------
      LOOP:  cpu time  130.9119: real time  131.8571

 eigenvalue-minimisations  : 20224
 total energy-change (2. order) :-0.5454208E-03  (-0.1731059E-03)
 number of electron     688.0000162 magnetization       0.0000000
 augmentation part      282.2265163 magnetization       0.0000000

 Broyden mixing:
  rms(total) = 0.79224E-02    rms(broyden)= 0.79220E-02
  rms(prec ) = 0.85938E-02
  weight for this iteration     100.00

 eigenvalues of (default mixing * dielectric matrix)
  average eigenvalue GAMMA=   1.1152
  2.2483  2.2483  1.0012  0.3356  0.7171  0.6279  0.6279

 Free energy of the ion-electron system (eV)
  ---------------------------------------------------
  alpha Z        PSCENC =      2358.17694133
  Ewald energy   TEWEN  =    -62498.60143146
  -Hartree energ DENC   =    -42934.77204469
  -exchange      EXHF   =         0.00000000
  -V(xc)+E(xc)   XCENC  =      3286.49281884
  PAW double counting   =    112250.01698018  -115943.55295842
  entropy T*S    EENTRO =         0.00000000
  eigenvalues    EBANDS =    -10865.61540487
  atomic energy  EATOM  =    114020.06510763
  Solvation  Ediel_sol  =         0.00000000
  ---------------------------------------------------
  free energy    TOTEN  =      -327.78999145 eV

  energy without entropy =     -327.78999145  energy(sigma->0) =     -327.78999145


--------------------------------------------------------------------------------------------------------




--------------------------------------- Iteration      1(  13)  ---------------------------------------


    POTLOK:  cpu time    0.1163: real time    0.1215
    SETDIJ:  cpu time    0.0128: real time    0.0129
     EDDAV:  cpu time  146.0449: real time  147.0639
 BZINTS: Fermi energy:  4.932669;688.000000 electrons
         Band energy:***********;  BLOECHL correction:  0.000000
       DOS:  cpu time    0.0059: real time    0.0060
    CHARGE:  cpu time    1.7067: real time    1.7165
    MIXING:  cpu time    0.0019: real time    0.0019
    --------------------------------------------
      LOOP:  cpu time  147.8886: real time  148.9227

 eigenvalue-minimisations  : 21248
 total energy-change (2. order) :-0.6297950E-04  (-0.2323663E-04)
 number of electron     688.0000162 magnetization       0.0000000
 augmentation part      282.2290086 magnetization       0.0000000

 Broyden mixing:
  rms(total) = 0.45849E-02    rms(broyden)= 0.45848E-02
  rms(prec ) = 0.48469E-02
  weight for this iteration     100.00

 eigenvalues of (default mixing * dielectric matrix)
  average eigenvalue GAMMA=   1.1182
  2.2660  2.2660  1.0828  1.0828  0.3355  0.6235  0.6235  0.6655

 Free energy of the ion-electron system (eV)
  ---------------------------------------------------
  alpha Z        PSCENC =      2358.17694133
  Ewald energy   TEWEN  =    -62498.60143146
  -Hartree energ DENC   =    -42934.43148783
  -exchange      EXHF   =         0.00000000
  -V(xc)+E(xc)   XCENC  =      3286.48349381
  PAW double counting   =    112247.88816661  -115941.34907858
  entropy T*S    EENTRO =         0.00000000
  eigenvalues    EBANDS =    -10866.02176595
  atomic energy  EATOM  =    114020.06510763
  Solvation  Ediel_sol  =         0.00000000
  ---------------------------------------------------
  free energy    TOTEN  =      -327.79005443 eV

  energy without entropy =     -327.79005443  energy(sigma->0) =     -327.79005443


--------------------------------------------------------------------------------------------------------




--------------------------------------- Iteration      1(  14)  ---------------------------------------


    POTLOK:  cpu time    0.1362: real time    0.1374
    SETDIJ:  cpu time    0.0165: real time    0.0166
     EDDAV:  cpu time  147.8013: real time  148.8437
 BZINTS: Fermi energy:  4.932701;688.000000 electrons
         Band energy:***********;  BLOECHL correction:  0.000000
       DOS:  cpu time    0.0059: real time    0.0059
    CHARGE:  cpu time    1.7101: real time    1.7204
    MIXING:  cpu time    0.0019: real time    0.0019
    --------------------------------------------
      LOOP:  cpu time  149.6720: real time  150.7259

 eigenvalue-minimisations  : 21504
 total energy-change (2. order) :-0.5107131E-04  (-0.1380951E-04)
 number of electron     688.0000162 magnetization       0.0000000
 augmentation part      282.2284039 magnetization       0.0000000

 Broyden mixing:
  rms(total) = 0.25085E-02    rms(broyden)= 0.25083E-02
  rms(prec ) = 0.26126E-02
  weight for this iteration     100.00

 eigenvalues of (default mixing * dielectric matrix)
  average eigenvalue GAMMA=   1.2119
  2.4556  2.4556  1.5360  1.5360  0.3355  0.7212  0.6738  0.5967  0.5967

 Free energy of the ion-electron system (eV)
  ---------------------------------------------------
  alpha Z        PSCENC =      2358.17694133
  Ewald energy   TEWEN  =    -62498.60143146
  -Hartree energ DENC   =    -42934.49302472
  -exchange      EXHF   =         0.00000000
  -V(xc)+E(xc)   XCENC  =      3286.48713483
  PAW double counting   =    112246.13057138  -115939.62509207
  entropy T*S    EENTRO =         0.00000000
  eigenvalues    EBANDS =    -10865.93031242
  atomic energy  EATOM  =    114020.06510763
  Solvation  Ediel_sol  =         0.00000000
  ---------------------------------------------------
  free energy    TOTEN  =      -327.79010550 eV

  energy without entropy =     -327.79010550  energy(sigma->0) =     -327.79010550


--------------------------------------------------------------------------------------------------------




--------------------------------------- Iteration      1(  15)  ---------------------------------------


    POTLOK:  cpu time    0.1340: real time    0.1365
    SETDIJ:  cpu time    0.0164: real time    0.0165
     EDDAV:  cpu time  131.4304: real time  132.3745
 BZINTS: Fermi energy:  4.932680;688.000000 electrons
         Band energy:***********;  BLOECHL correction:  0.000000
       DOS:  cpu time    0.0059: real time    0.0059
    CHARGE:  cpu time    1.3826: real time    1.3913
    MIXING:  cpu time    0.0018: real time    0.0018
    --------------------------------------------
      LOOP:  cpu time  132.9711: real time  133.9264

 eigenvalue-minimisations  : 19968
 total energy-change (2. order) :-0.2384640E-04  (-0.6994126E-05)
 number of electron     688.0000162 magnetization       0.0000000
 augmentation part      282.2281248 magnetization       0.0000000

 Broyden mixing:
  rms(total) = 0.12189E-02    rms(broyden)= 0.12187E-02
  rms(prec ) = 0.12832E-02
  weight for this iteration     100.00

 eigenvalues of (default mixing * dielectric matrix)
  average eigenvalue GAMMA=   1.2179
  2.8470  2.2836  1.8835  1.1340  1.1340  0.3355  0.7062  0.6163  0.6163  0.6225

 Free energy of the ion-electron system (eV)
  ---------------------------------------------------
  alpha Z        PSCENC =      2358.17694133
  Ewald energy   TEWEN  =    -62498.60143146
  -Hartree energ DENC   =    -42934.50934273
  -exchange      EXHF   =         0.00000000
  -V(xc)+E(xc)   XCENC  =      3286.48756409
  PAW double counting   =    112245.26945887  -115938.76781294
  entropy T*S    EENTRO =         0.00000000
  eigenvalues    EBANDS =    -10865.91061414
  atomic energy  EATOM  =    114020.06510763
  Solvation  Ediel_sol  =         0.00000000
  ---------------------------------------------------
  free energy    TOTEN  =      -327.79012935 eV

  energy without entropy =     -327.79012935  energy(sigma->0) =     -327.79012935


--------------------------------------------------------------------------------------------------------




--------------------------------------- Iteration      1(  16)  ---------------------------------------


    POTLOK:  cpu time    0.1209: real time    0.1219
    SETDIJ:  cpu time    0.0125: real time    0.0128
     EDDAV:  cpu time  138.0947: real time  139.0743
 BZINTS: Fermi energy:  4.932650;688.000000 electrons
         Band energy:***********;  BLOECHL correction:  0.000000
       DOS:  cpu time    0.0059: real time    0.0059
    CHARGE:  cpu time    1.3856: real time    1.3944
    MIXING:  cpu time    0.0019: real time    0.0103
    --------------------------------------------
      LOOP:  cpu time  139.6215: real time  140.6195

 eigenvalue-minimisations  : 20480
 total energy-change (2. order) :-0.6714123E-05  (-0.1571457E-05)
 number of electron     688.0000162 magnetization       0.0000000
 augmentation part      282.2287957 magnetization       0.0000000

 Broyden mixing:
  rms(total) = 0.88608E-03    rms(broyden)= 0.88601E-03
  rms(prec ) = 0.93530E-03
  weight for this iteration     100.00

 eigenvalues of (default mixing * dielectric matrix)
  average eigenvalue GAMMA=   1.3275
  3.3039  2.2235  2.2235  1.5264  1.5264  0.9137  0.3355  0.7018  0.6187  0.6187
  0.6105

 Free energy of the ion-electron system (eV)
  ---------------------------------------------------
  alpha Z        PSCENC =      2358.17694133
  Ewald energy   TEWEN  =    -62498.60143146
  -Hartree energ DENC   =    -42934.47436732
  -exchange      EXHF   =         0.00000000
  -V(xc)+E(xc)   XCENC  =      3286.48680642
  PAW double counting   =    112245.09991823  -115938.59147290
  entropy T*S    EENTRO =         0.00000000
  eigenvalues    EBANDS =    -10865.95163799
  atomic energy  EATOM  =    114020.06510763
  Solvation  Ediel_sol  =         0.00000000
  ---------------------------------------------------
  free energy    TOTEN  =      -327.79013606 eV

  energy without entropy =     -327.79013606  energy(sigma->0) =     -327.79013606


--------------------------------------------------------------------------------------------------------




--------------------------------------- Iteration      1(  17)  ---------------------------------------


    POTLOK:  cpu time    0.1205: real time    0.1215
    SETDIJ:  cpu time    0.0127: real time    0.0128
     EDDAV:  cpu time  136.2725: real time  137.2437
 BZINTS: Fermi energy:  4.932634;688.000000 electrons
         Band energy:***********;  BLOECHL correction:  0.000000
       DOS:  cpu time    0.0059: real time    0.0060
    CHARGE:  cpu time    1.3852: real time    1.3943
    MIXING:  cpu time    0.0019: real time    0.0019
    --------------------------------------------
      LOOP:  cpu time  137.7988: real time  138.7801

 eigenvalue-minimisations  : 20480
 total energy-change (2. order) :-0.4778398E-05  (-0.2939365E-05)
 number of electron     688.0000162 magnetization       0.0000000
 augmentation part      282.2282810 magnetization       0.0000000

 Broyden mixing:
  rms(total) = 0.37861E-03    rms(broyden)= 0.37840E-03
  rms(prec ) = 0.40324E-03
  weight for this iteration     100.00

 eigenvalues of (default mixing * dielectric matrix)
  average eigenvalue GAMMA=   1.3810
  4.1069  2.3659  2.3659  1.5828  1.5828  0.9978  0.3355  0.6165  0.6165  0.7183
  0.6830  0.5997

 Free energy of the ion-electron system (eV)
  ---------------------------------------------------
  alpha Z        PSCENC =      2358.17694133
  Ewald energy   TEWEN  =    -62498.60143146
  -Hartree energ DENC   =    -42934.49606861
  -exchange      EXHF   =         0.00000000
  -V(xc)+E(xc)   XCENC  =      3286.48719672
  PAW double counting   =    112245.24729856  -115938.74471336
  entropy T*S    EENTRO =         0.00000000
  eigenvalues    EBANDS =    -10865.92447165
  atomic energy  EATOM  =    114020.06510763
  Solvation  Ediel_sol  =         0.00000000
  ---------------------------------------------------
  free energy    TOTEN  =      -327.79014084 eV

  energy without entropy =     -327.79014084  energy(sigma->0) =     -327.79014084


--------------------------------------------------------------------------------------------------------




--------------------------------------- Iteration      1(  18)  ---------------------------------------


    POTLOK:  cpu time    0.1208: real time    0.1220
    SETDIJ:  cpu time    0.0128: real time    0.0128
     EDDAV:  cpu time  130.1820: real time  131.1022
 BZINTS: Fermi energy:  4.932621;688.000000 electrons
         Band energy:***********;  BLOECHL correction:  0.000000
       DOS:  cpu time    0.0059: real time    0.0059
    CHARGE:  cpu time    1.4020: real time    1.4109
    MIXING:  cpu time    0.0021: real time    0.0021
    --------------------------------------------
      LOOP:  cpu time  131.7256: real time  132.6560

 eigenvalue-minimisations  : 19968
 total energy-change (2. order) :-0.6606570E-06  (-0.3851666E-06)
 number of electron     688.0000162 magnetization       0.0000000
 augmentation part      282.2285147 magnetization       0.0000000

 Broyden mixing:
  rms(total) = 0.29848E-03    rms(broyden)= 0.29842E-03
  rms(prec ) = 0.31085E-03
  weight for this iteration     100.00

 eigenvalues of (default mixing * dielectric matrix)
  average eigenvalue GAMMA=   1.3410
  4.2498  2.4049  2.4049  1.5878  1.3968  1.0413  0.3355  0.8013  0.7501  0.6171
  0.6171  0.6134  0.6134

 Free energy of the ion-electron system (eV)
  ---------------------------------------------------
  alpha Z        PSCENC =      2358.17694133
  Ewald energy   TEWEN  =    -62498.60143146
  -Hartree energ DENC   =    -42934.47716264
  -exchange      EXHF   =         0.00000000
  -V(xc)+E(xc)   XCENC  =      3286.48664975
  PAW double counting   =    112245.31662375  -115938.80999188
  entropy T*S    EENTRO =         0.00000000
  eigenvalues    EBANDS =    -10865.94687798
  atomic energy  EATOM  =    114020.06510763
  Solvation  Ediel_sol  =         0.00000000
  ---------------------------------------------------
  free energy    TOTEN  =      -327.79014150 eV

  energy without entropy =     -327.79014150  energy(sigma->0) =     -327.79014150


--------------------------------------------------------------------------------------------------------




--------------------------------------- Iteration      1(  19)  ---------------------------------------


    POTLOK:  cpu time    0.1179: real time    0.1206
    SETDIJ:  cpu time    0.0127: real time    0.0128
     EDDAV:  cpu time  134.1861: real time  135.1331
 BZINTS: Fermi energy:  4.932622;688.000000 electrons
         Band energy:***********;  BLOECHL correction:  0.000000
       DOS:  cpu time    0.0059: real time    0.0059
    CHARGE:  cpu time    1.3841: real time    1.3928
    MIXING:  cpu time    0.0020: real time    0.0020
    --------------------------------------------
      LOOP:  cpu time  135.7087: real time  136.6671

 eigenvalue-minimisations  : 20224
 total energy-change (2. order) :-0.5937181E-07  (-0.2128007E-07)
 number of electron     688.0000162 magnetization       0.0000000
 augmentation part      282.2285366 magnetization       0.0000000

 Broyden mixing:
[...]
   -.418E+02 0.194E+02 -.191E+01   0.426E+02 -.196E+02 0.194E+01   -.845E+00 0.126E+00 -.240E-01   0.428E-05 -.111E-04 -.156E-05
   -.418E+02 0.194E+02 -.191E+01   0.426E+02 -.196E+02 0.194E+01   -.845E+00 0.126E+00 -.240E-01   0.430E-05 -.111E-04 -.156E-05
   -.418E+02 0.194E+02 -.191E+01   0.426E+02 -.196E+02 0.194E+01   -.845E+00 0.126E+00 -.240E-01   0.428E-05 -.111E-04 -.156E-05
   -.418E+02 0.194E+02 -.191E+01   0.426E+02 -.196E+02 0.194E+01   -.845E+00 0.126E+00 -.240E-01   0.430E-05 -.111E-04 -.156E-05
   0.418E+02 0.194E+02 0.191E+01   -.426E+02 -.196E+02 -.194E+01   0.845E+00 0.126E+00 0.240E-01   -.429E-05 -.111E-04 0.156E-05
   0.418E+02 0.194E+02 0.191E+01   -.426E+02 -.196E+02 -.194E+01   0.845E+00 0.126E+00 0.240E-01   -.429E-05 -.111E-04 0.156E-05
   0.418E+02 0.194E+02 0.191E+01   -.426E+02 -.196E+02 -.194E+01   0.845E+00 0.126E+00 0.240E-01   -.429E-05 -.111E-04 0.157E-05
   0.418E+02 0.194E+02 0.191E+01   -.426E+02 -.196E+02 -.194E+01   0.845E+00 0.126E+00 0.240E-01   -.429E-05 -.111E-04 0.157E-05
   -.155E-07 -.273E+02 -.212E-06   -.426E-13 0.280E+02 -.131E-12   -.507E-24 -.737E+00 0.595E-24   0.626E-09 -.230E-05 0.369E-08
   -.155E-07 -.273E+02 -.212E-06   -.817E-13 0.280E+02 -.117E-12   -.669E-24 -.737E+00 0.310E-24   -.721E-09 -.230E-05 -.368E-08
   -.155E-07 -.273E+02 -.212E-06   -.568E-13 0.280E+02 -.568E-13   0.890E-24 -.737E+00 0.953E-24   0.626E-09 -.228E-05 0.369E-08
   -.155E-07 -.273E+02 -.212E-06   -.639E-13 0.280E+02 -.853E-13   -.176E-23 -.737E+00 -.517E-24   -.721E-09 -.228E-05 -.368E-08
   0.871E-08 0.572E+02 0.229E-06   -.835E-13 -.581E+02 -.249E-13   0.593E-24 0.980E+00 -.129E-24   -.123E-07 -.176E-04 0.327E-09
   0.871E-08 0.572E+02 0.229E-06   -.533E-13 -.581E+02 -.355E-14   -.119E-23 0.980E+00 0.233E-24   0.124E-07 -.176E-04 -.333E-09
   0.871E-08 0.572E+02 0.229E-06   -.711E-13 -.581E+02 -.213E-13   -.311E-24 0.980E+00 0.517E-25   -.123E-07 -.176E-04 0.327E-09
   0.871E-08 0.572E+02 0.229E-06   -.284E-13 -.581E+02 -.568E-13   0.590E-24 0.980E+00 -.129E-24   0.124E-07 -.176E-04 -.333E-09
   0.405E+01 -.182E+02 0.912E+00   -.400E+01 0.175E+02 -.928E+00   -.499E-01 0.739E+00 0.139E-01   0.700E-05 -.128E-04 0.208E-05
   0.405E+01 -.182E+02 0.912E+00   -.400E+01 0.175E+02 -.928E+00   -.499E-01 0.739E+00 0.139E-01   0.704E-05 -.128E-04 0.209E-05
   0.405E+01 -.182E+02 0.912E+00   -.400E+01 0.175E+02 -.928E+00   -.499E-01 0.739E+00 0.139E-01   0.700E-05 -.128E-04 0.207E-05
   0.405E+01 -.182E+02 0.912E+00   -.400E+01 0.175E+02 -.928E+00   -.499E-01 0.739E+00 0.139E-01   0.705E-05 -.128E-04 0.208E-05
   -.405E+01 -.182E+02 -.912E+00   0.400E+01 0.175E+02 0.928E+00   0.499E-01 0.739E+00 -.139E-01   -.705E-05 -.128E-04 -.208E-05
   -.405E+01 -.182E+02 -.912E+00   0.400E+01 0.175E+02 0.928E+00   0.499E-01 0.739E+00 -.139E-01   -.699E-05 -.128E-04 -.209E-05
   -.405E+01 -.182E+02 -.912E+00   0.400E+01 0.175E+02 0.928E+00   0.499E-01 0.739E+00 -.139E-01   -.706E-05 -.128E-04 -.207E-05
   -.405E+01 -.182E+02 -.912E+00   0.400E+01 0.175E+02 0.928E+00   0.499E-01 0.739E+00 -.139E-01   -.699E-05 -.128E-04 -.208E-05
   0.405E+01 -.182E+02 0.912E+00   -.400E+01 0.175E+02 -.928E+00   -.499E-01 0.739E+00 0.139E-01   0.699E-05 -.128E-04 0.208E-05
   0.405E+01 -.182E+02 0.912E+00   -.400E+01 0.175E+02 -.928E+00   -.499E-01 0.739E+00 0.139E-01   0.706E-05 -.128E-04 0.209E-05
   0.405E+01 -.182E+02 0.912E+00   -.400E+01 0.175E+02 -.928E+00   -.499E-01 0.739E+00 0.139E-01   0.699E-05 -.128E-04 0.207E-05
   0.405E+01 -.182E+02 0.912E+00   -.400E+01 0.175E+02 -.928E+00   -.499E-01 0.739E+00 0.139E-01   0.706E-05 -.128E-04 0.208E-05
   -.405E+01 -.182E+02 -.912E+00   0.400E+01 0.175E+02 0.928E+00   0.499E-01 0.739E+00 -.139E-01   -.704E-05 -.128E-04 -.208E-05
   -.405E+01 -.182E+02 -.912E+00   0.400E+01 0.175E+02 0.928E+00   0.499E-01 0.739E+00 -.139E-01   -.701E-05 -.128E-04 -.209E-05
   -.405E+01 -.182E+02 -.912E+00   0.400E+01 0.175E+02 0.928E+00   0.499E-01 0.739E+00 -.139E-01   -.704E-05 -.128E-04 -.206E-05
   -.405E+01 -.182E+02 -.912E+00   0.400E+01 0.175E+02 0.928E+00   0.499E-01 0.739E+00 -.139E-01   -.701E-05 -.128E-04 -.208E-05
   -.491E+01 -.181E+02 0.116E+01   0.482E+01 0.172E+02 -.119E+01   0.977E-01 0.974E+00 0.274E-01   0.607E-05 -.116E-04 -.478E-05
   -.491E+01 -.181E+02 0.116E+01   0.482E+01 0.172E+02 -.119E+01   0.977E-01 0.974E+00 0.274E-01   0.612E-05 -.116E-04 -.479E-05
   -.491E+01 -.181E+02 0.116E+01   0.482E+01 0.172E+02 -.119E+01   0.977E-01 0.974E+00 0.274E-01   0.607E-05 -.115E-04 -.477E-05
   -.491E+01 -.181E+02 0.116E+01   0.482E+01 0.172E+02 -.119E+01   0.977E-01 0.974E+00 0.274E-01   0.611E-05 -.115E-04 -.478E-05
   0.491E+01 -.181E+02 -.116E+01   -.482E+01 0.172E+02 0.119E+01   -.977E-01 0.974E+00 -.274E-01   -.611E-05 -.116E-04 0.478E-05
   0.491E+01 -.181E+02 -.116E+01   -.482E+01 0.172E+02 0.119E+01   -.977E-01 0.974E+00 -.274E-01   -.607E-05 -.116E-04 0.479E-05
   0.491E+01 -.181E+02 -.116E+01   -.482E+01 0.172E+02 0.119E+01   -.977E-01 0.974E+00 -.274E-01   -.611E-05 -.115E-04 0.477E-05
   0.491E+01 -.181E+02 -.116E+01   -.482E+01 0.172E+02 0.119E+01   -.977E-01 0.974E+00 -.274E-01   -.607E-05 -.115E-04 0.478E-05
   -.491E+01 -.181E+02 0.116E+01   0.482E+01 0.172E+02 -.119E+01   0.977E-01 0.974E+00 0.274E-01   0.607E-05 -.116E-04 -.478E-05
   -.491E+01 -.181E+02 0.116E+01   0.482E+01 0.172E+02 -.119E+01   0.977E-01 0.974E+00 0.274E-01   0.611E-05 -.116E-04 -.479E-05
   -.491E+01 -.181E+02 0.116E+01   0.482E+01 0.172E+02 -.119E+01   0.977E-01 0.974E+00 0.274E-01   0.607E-05 -.115E-04 -.477E-05
   -.491E+01 -.181E+02 0.116E+01   0.482E+01 0.172E+02 -.119E+01   0.977E-01 0.974E+00 0.274E-01   0.611E-05 -.115E-04 -.478E-05
   0.491E+01 -.181E+02 -.116E+01   -.482E+01 0.172E+02 0.119E+01   -.977E-01 0.974E+00 -.274E-01   -.612E-05 -.116E-04 0.478E-05
   0.491E+01 -.181E+02 -.116E+01   -.482E+01 0.172E+02 0.119E+01   -.977E-01 0.974E+00 -.274E-01   -.606E-05 -.116E-04 0.479E-05
   0.491E+01 -.181E+02 -.116E+01   -.482E+01 0.172E+02 0.119E+01   -.977E-01 0.974E+00 -.274E-01   -.612E-05 -.115E-04 0.477E-05
   0.491E+01 -.181E+02 -.116E+01   -.482E+01 0.172E+02 0.119E+01   -.977E-01 0.974E+00 -.274E-01   -.606E-05 -.115E-04 0.478E-05
 -----------------------------------------------------------------------------------------------
   -.191E-05 -.314E+02 -.164E-03   -.413E-12 -.632E-12 0.241E-12   -.694E-15 0.314E+02 0.867E-16   -.209E-10 -.727E-03 -.427E-10
 
 
 POSITION                                       TOTAL-FORCE (eV/Angst)
 -----------------------------------------------------------------------------------
      1.36329      1.27836      1.34305        -0.000193     -0.001951      0.000493
      6.61869      1.27836      1.48985        -0.000193     -0.001951      0.000493
      1.36329      6.53824      1.34305        -0.000193     -0.001951      0.000493
      6.61869      6.53824      1.48985        -0.000193     -0.001951      0.000493
      3.96478      3.90830      1.40520         0.000193     -0.001951     -0.000493
      9.22018      3.90830      1.55200         0.000193     -0.001951     -0.000493
      3.96478      9.16818      1.40520         0.000193     -0.001951     -0.000493
      9.22018      9.16818      1.55200         0.000193     -0.001951     -0.000493
      1.56818      3.90800      9.14175         0.000000     -0.000762      0.000000
      6.82359      3.90800      9.28856         0.000000     -0.000762      0.000000
      1.56818      9.16787      9.14175         0.000000     -0.000762      0.000000
      6.82359      9.16787      9.28856         0.000000     -0.000762      0.000000
      4.19589      1.30006      9.21516         0.000000      0.000332      0.000000
      9.45129      1.30006      9.36196         0.000000      0.000332      0.000000
      4.19589      6.55994      9.21516         0.000000      0.000332      0.000000
      9.45129      6.55994      9.36196         0.000000      0.000332      0.000000
      1.48241      1.27836      6.53468         0.000193     -0.001951     -0.000493
      6.73781      1.27836      6.68148         0.000193     -0.001951     -0.000493
      1.48241      6.53824      6.53468         0.000193     -0.001951     -0.000493
      6.73781      6.53824      6.68148         0.000193     -0.001951     -0.000493
      4.13633      3.90830      6.61934        -0.000193     -0.001951      0.000493
      9.39173      3.90830      6.76614        -0.000193     -0.001951      0.000493
      4.13633      9.16818      6.61934        -0.000193     -0.001951      0.000493
      9.39173      9.16818      6.76614        -0.000193     -0.001951      0.000493
      4.05055      1.27806      4.01227         0.000000     -0.000762      0.000000
      9.30596      1.27806      4.15907         0.000000     -0.000762      0.000000
      4.05055      6.53793      4.01227         0.000000     -0.000762      0.000000
      9.30596      6.53793      4.15907         0.000000     -0.000762      0.000000
      1.42285      3.93000      3.93887         0.000000      0.000332      0.000000
      6.67825      3.93000      4.08567         0.000000      0.000332      0.000000
      1.42285      9.18988      3.93887         0.000000      0.000332      0.000000
      6.67825      9.18988      4.08567         0.000000      0.000332      0.000000
     10.64535      0.03227      5.49627        -0.001424      0.000402     -0.001936
      5.38994      0.03227      5.34947        -0.001424      0.000402     -0.001936
     10.64535      5.29215      5.49627        -0.001424      0.000402     -0.001936
      5.38994      5.29215      5.34947        -0.001424      0.000402     -0.001936
      2.71116      0.03227      2.67506         0.001424      0.000402      0.001936
      7.96656      0.03227      2.82186         0.001424      0.000402      0.001936
      2.71116      5.29215      2.67506         0.001424      0.000402      0.001936
      7.96656      5.29215      2.82186         0.001424      0.000402      0.001936
      2.61691      2.66221      0.07318        -0.001424      0.000402     -0.001936
      7.87231      2.66221      0.21998        -0.001424      0.000402     -0.001936
      2.61691      7.92209      0.07318        -0.001424      0.000402     -0.001936
      7.87231      7.92209      0.21998        -0.001424      0.000402     -0.001936
      0.22879      2.66221      7.80455         0.001424      0.000402      0.001936
      5.48420      2.66221      7.95135         0.001424      0.000402      0.001936
      0.22879      7.92209      7.80455         0.001424      0.000402      0.001936
      5.48420      7.92209      7.95135         0.001424      0.000402      0.001936
     10.50495      0.03023      0.29553        -0.000091      0.001764     -0.002420
      5.24954      0.03023      0.14873        -0.000091      0.001764     -0.002420
     10.50495      5.29011      0.29553        -0.000091      0.001764     -0.002420
      5.24954      5.29011      0.14873        -0.000091      0.001764     -0.002420
      2.85156      0.03023      7.87581         0.000091      0.001764      0.002420
      8.10696      0.03023      8.02261         0.000091      0.001764      0.002420
      2.85156      5.29011      7.87581         0.000091      0.001764      0.002420
      8.10696      5.29011      8.02261         0.000091      0.001764      0.002420
      2.76718      2.66017      5.27822        -0.000091      0.001764     -0.002420
      8.02258      2.66017      5.42502        -0.000091      0.001764     -0.002420
      2.76718      7.92005      5.27822        -0.000091      0.001764     -0.002420
      8.02258      7.92005      5.42502        -0.000091      0.001764     -0.002420
      0.07853      2.66017      2.59952         0.000091      0.001764      0.002420
      5.33393      2.66017      2.74632         0.000091      0.001764      0.002420
      0.07853      7.92005      2.59952         0.000091      0.001764      0.002420
      5.33393      7.92005      2.74632         0.000091      0.001764      0.002420
 -----------------------------------------------------------------------------------
    total drift:                               -0.000002      0.010775     -0.000164


--------------------------------------------------------------------------------------------------------



  FREE ENERGIE OF THE ION-ELECTRON SYSTEM (eV)
  ---------------------------------------------------
  free  energy   TOTEN  =      -327.79014162 eV

  energy  without entropy=     -327.79014162  energy(sigma->0) =     -327.79014162
 


--------------------------------------------------------------------------------------------------------


    POTLOK:  cpu time    0.1298: real time    0.1307


--------------------------------------------------------------------------------------------------------


 writing wavefunctions
     LOOP+:  cpu time 3164.8036: real time 3187.7553
    4ORBIT:  cpu time    0.0000: real time    0.0000
 


 total charge     
 
# of ion       s       p       d       tot
------------------------------------------
    1        1.314   2.409   0.000   3.723
    2        1.314   2.409   0.000   3.723
    3        1.314   2.409   0.000   3.723
    4        1.314   2.409   0.000   3.723
    5        1.314   2.409   0.000   3.723
    6        1.314   2.409   0.000   3.723
    7        1.314   2.409   0.000   3.723
    8        1.314   2.409   0.000   3.723
    9        1.315   2.406   0.000   3.721
   10        1.315   2.406   0.000   3.721
   11        1.315   2.406   0.000   3.721
   12        1.315   2.406   0.000   3.721
   13        1.313   2.412   0.000   3.725
   14        1.313   2.412   0.000   3.725
   15        1.313   2.412   0.000   3.725
   16        1.313   2.412   0.000   3.725
   17        1.314   2.409   0.000   3.723
   18        1.314   2.409   0.000   3.723
   19        1.314   2.409   0.000   3.723
   20        1.314   2.409   0.000   3.723
   21        1.314   2.409   0.000   3.723
   22        1.314   2.409   0.000   3.723
   23        1.314   2.409   0.000   3.723
   24        1.314   2.409   0.000   3.723
   25        1.315   2.406   0.000   3.721
   26        1.315   2.406   0.000   3.721
   27        1.315   2.406   0.000   3.721
   28        1.315   2.406   0.000   3.721
   29        1.313   2.412   0.000   3.725
   30        1.313   2.412   0.000   3.725
   31        1.313   2.412   0.000   3.725
   32        1.313   2.412   0.000   3.725
   33        0.259   6.202   8.917  15.378
   34        0.259   6.202   8.917  15.378
   35        0.259   6.202   8.917  15.378
   36        0.259   6.202   8.917  15.378
   37        0.259   6.202   8.917  15.378
   38        0.259   6.202   8.917  15.378
   39        0.259   6.202   8.917  15.378
   40        0.259   6.202   8.917  15.378
   41        0.259   6.202   8.917  15.378
   42        0.259   6.202   8.917  15.378
   43        0.259   6.202   8.917  15.378
   44        0.259   6.202   8.917  15.378
   45        0.259   6.202   8.917  15.378
   46        0.259   6.202   8.917  15.378
   47        0.259   6.202   8.917  15.378
   48        0.259   6.202   8.917  15.378
   49        0.350   6.350   5.821  12.520
   50        0.350   6.350   5.821  12.520
   51        0.350   6.350   5.821  12.520
   52        0.350   6.350   5.821  12.520
   53        0.350   6.350   5.821  12.520
   54        0.350   6.350   5.821  12.520
   55        0.350   6.350   5.821  12.520
   56        0.350   6.350   5.821  12.520
   57        0.350   6.350   5.821  12.520
   58        0.350   6.350   5.821  12.520
   59        0.350   6.350   5.821  12.520
   60        0.350   6.350   5.821  12.520
   61        0.350   6.350   5.821  12.520
   62        0.350   6.350   5.821  12.520
   63        0.350   6.350   5.821  12.520
   64        0.350   6.350   5.821  12.520
--------------------------------------------------
tot         51.782 277.919 235.799 565.500
 


 magnetization (x)
 
# of ion       s       p       d       tot
------------------------------------------
    1       -0.000  -0.013   0.000  -0.013
    2       -0.000  -0.013   0.000  -0.013
    3       -0.000  -0.013   0.000  -0.013
    4       -0.000  -0.013   0.000  -0.013
    5        0.000   0.013   0.000   0.013
    6        0.000   0.013   0.000   0.013
    7        0.000   0.013   0.000   0.013
    8        0.000   0.013   0.000   0.013
    9        0.000  -0.000   0.000  -0.000
   10       -0.000   0.000   0.000   0.000
   11        0.000  -0.000   0.000  -0.000
   12       -0.000   0.000   0.000   0.000
   13       -0.000   0.000   0.000   0.000
   14       -0.000  -0.000   0.000  -0.000
   15       -0.000   0.000   0.000   0.000
   16       -0.000  -0.000   0.000  -0.000
   17        0.000   0.013   0.000   0.013
   18        0.000   0.013   0.000   0.013
   19        0.000   0.013   0.000   0.013
   20        0.000   0.013   0.000   0.013
   21       -0.000  -0.013   0.000  -0.013
   22       -0.000  -0.013   0.000  -0.013
   23       -0.000  -0.013   0.000  -0.013
   24       -0.000  -0.013   0.000  -0.013
   25        0.000  -0.000   0.000  -0.000
   26       -0.000   0.000   0.000   0.000
   27        0.000   0.000   0.000   0.000
   28        0.000   0.000   0.000   0.000
   29       -0.000   0.000   0.000   0.000
   30        0.000  -0.000   0.000  -0.000
   31       -0.000   0.000   0.000   0.000
   32       -0.000  -0.000   0.000  -0.000
   33        0.000   0.001  -0.002  -0.001
   34        0.000   0.001  -0.002  -0.001
   35        0.000   0.001  -0.002  -0.001
   36        0.000   0.001  -0.002  -0.001
   37       -0.000  -0.001   0.002   0.001
   38       -0.000  -0.001   0.002   0.001
   39       -0.000  -0.001   0.002   0.001
   40       -0.000  -0.001   0.002   0.001
   41        0.000   0.001  -0.002  -0.001
   42        0.000   0.001  -0.002  -0.001
   43        0.000   0.001  -0.002  -0.001
   44        0.000   0.001  -0.002  -0.001
   45       -0.000  -0.001   0.002   0.001
   46       -0.000  -0.001   0.002   0.001
   47       -0.000  -0.001   0.002   0.001
   48       -0.000  -0.001   0.002   0.001
   49        0.020   0.054   3.669   3.743
   50        0.020   0.054   3.669   3.743
   51        0.020   0.054   3.669   3.743
   52        0.020   0.054   3.669   3.743
   53       -0.020  -0.054  -3.669  -3.743
   54       -0.020  -0.054  -3.669  -3.743
   55       -0.020  -0.054  -3.669  -3.743
   56       -0.020  -0.054  -3.669  -3.743
   57        0.020   0.054   3.669   3.743
   58        0.020   0.054   3.669   3.743
   59        0.020   0.054   3.669   3.743
   60        0.020   0.054   3.669   3.743
   61       -0.020  -0.054  -3.669  -3.743
   62       -0.020  -0.054  -3.669  -3.743
   63       -0.020  -0.054  -3.669  -3.743
   64       -0.020  -0.054  -3.669  -3.743
--------------------------------------------------
tot          0.000  -0.000  -0.000  -0.000
 
 BZINTS: Fermi energy:  4.932619;688.000000 electrons
         Band energy:***********;  BLOECHL correction:  0.000000

 total amount of memory used by VASP MPI-rank0   348353. kBytes
=======================================================================

   base      :      30000. kBytes
   nonl-proj :     216760. kBytes
   fftplans  :       4588. kBytes
   grid      :      69719. kBytes
   one-center:       1990. kBytes
   wavefun   :      25296. kBytes
 
  
  
 General timing and accounting informations for this job:
 ========================================================
  
                  Total CPU time used (sec):     3223.862
                            User time (sec):     3212.598
                          System time (sec):       11.264
                         Elapsed time (sec):     3248.267
  
                   Maximum memory used (kb):      723792.
                   Average memory used (kb):           0.
  
                          Minor page faults:       541086
                          Major page faults:         5675
                 Voluntary context switches:         7215
