 vasp.5.4.4.18Apr17-6-g9f103f2a35 (build Oct 30 2023 17:30:16) complex          
  
 executed on             LinuxIFC date 2024.06.30  21:44:53
 running on  256 total cores
 distrk:  each k-point on  256 cores,    1 groups
 distr:  one band on NCORES_PER_BAND=   1 cores,  256 groups


--------------------------------------------------------------------------------------------------------


 INCAR:
 POTCAR:    PAW_PBE S 06Sep2000                   
 POTCAR:     PAW_PBE Cu_pv 06Sep2000              
 POTCAR:     PAW_PBE Fe_pv 02Aug2007              

 ----------------------------------------------------------------------------- 
|                                                                             |
|           W    W    AA    RRRRR   N    N  II  N    N   GGGG   !!!           |
|           W    W   A  A   R    R  NN   N  II  NN   N  G    G  !!!           |
|           W    W  A    A  R    R  N N  N  II  N N  N  G       !!!           |
|           W WW W  AAAAAA  RRRRR   N  N N  II  N  N N  G  GGG   !            |
|           WW  WW  A    A  R   R   N   NN  II  N   NN  G    G                |
|           W    W  A    A  R    R  N    N  II  N    N   GGGG   !!!           |
|                                                                             |
|      For optimal performance we recommend to set                            |
|        NCORE= 4 - approx SQRT( number of cores)                             |
|      NCORE specifies how many cores store one orbital (NPAR=cpu/NCORE).     |
|      This setting can  greatly improve the performance of VASP for DFT.     |
|      The default,   NCORE=1            might be grossly inefficient         |
|      on modern multi-core architectures or massively parallel machines.     |
|      Do your own testing !!!!                                               |
|      Unfortunately you need to use the default for GW and RPA calculations. |
|      (for HF NCORE is supported but not extensively tested yet)             |
|                                                                             |
 ----------------------------------------------------------------------------- 

 POTCAR:    PAW_PBE S 06Sep2000                   
   SHA256 =  0fc7481fb0695f01bdc6462160264c5c84044ae9ec85a907d398b887a2bc3132 S/
   COPYR  = (c) Copyright 06Sep2000 Georg Kresse                                
   COPYR  = This file is part of the software VASP. Any use, copying, and all ot
   COPYR  = If you do not have a valid VASP license, you may not use, copy or di
   VRHFIN =S : s2p4                                                             
   LEXCH  = PE                                                                  
   EATOM  =   276.8230 eV,   20.3459 Ry                                         
                                                                                
   TITEL  = PAW_PBE S 06Sep2000                                                 
   LULTRA =        F    use ultrasoft PP ?                                      
   IUNSCR =        1    unscreen: 0-lin 1-nonlin 2-no                           
   RPACOR =    1.500    partial core radius                                     
   POMASS =   32.066; ZVAL   =    6.000    mass and valenz                      
   RCORE  =    1.900    outmost cutoff radius                                   
   RWIGS  =    2.200; RWIGS  =    1.164    wigner-seitz radius (au A)           
   ENMAX  =  258.689; ENMIN  =  194.016 eV                                      
   ICORE  =        2    local potential                                         
   LCOR   =        T    correct aug charges                                     
   LPAW   =        T    paw PP                                                  
   EAUG   =  335.092                                                            
   DEXC   =    0.000                                                            
   RMAX   =    1.942    core radius for proj-oper                               
   RAUG   =    1.300    factor for augmentation sphere                          
   RDEP   =    1.954    radius for radial grids                                 
   RDEPT  =    1.744    core radius for aug-charge                              
                                                                                
   Atomic configuration                                                         
    6 entries                                                                   
     n  l   j            E        occ.                                          
     1  0  0.50     -2405.8406   2.0000                                         
     2  0  0.50      -211.7007   2.0000                                         
     2  1  1.50      -156.4958   6.0000                                         
     3  0  0.50       -17.2562   2.0000                                         
     3  1  0.50        -7.0085   4.0000                                         
     3  2  1.50        -6.8029   0.0000                                         
   Description                                                                  
     l       E           TYP  RCUT    TYP  RCUT                                 
     0    -17.2561641     23  1.900                                             
     0    -15.8743224     23  1.900                                             
     1     -7.0085400     23  1.900                                             
     1     -2.7779785     23  1.900                                             
     2     -6.8029130     23  1.900                                             
  local pseudopotential read in
  partial core-charges read in
  partial kinetic energy density read in
  atomic valenz-charges read in
  non local Contribution for L=           0  read in
    real space projection operators read in
  non local Contribution for L=           0  read in
    real space projection operators read in
  non local Contribution for L=           1  read in
    real space projection operators read in
  non local Contribution for L=           1  read in
    real space projection operators read in
    PAW grid and wavefunctions read in
 
   number of l-projection  operators is LMAX  =           4
   number of lm-projection operators is LMMAX =           8
 
 POTCAR:     PAW_PBE Cu_pv 06Sep2000              
   SHA256 =  cb7b504e2ea725fe1f25c85a9ac77d4012ce94cd394135b722c4e25ec297f1cb Cu
   COPYR  = (c) Copyright 06Sep2000 Georg Kresse                                
   COPYR  = This file is part of the software VASP. Any use, copying, and all ot
   COPYR  = If you do not have a valid VASP license, you may not use, copy or di
   VRHFIN =Cu: d10 p1                                                           
   LEXCH  = PE                                                                  
   EATOM  =  4120.1201 eV,  302.8203 Ry                                         
                                                                                
   TITEL  = PAW_PBE Cu_pv 06Sep2000                                             
   LULTRA =        F    use ultrasoft PP ?                                      
   IUNSCR =        1    unscreen: 0-lin 1-nonlin 2-no                           
   RPACOR =    1.500    partial core radius                                     
   POMASS =   63.546; ZVAL   =   17.000    mass and valenz                      
   RCORE  =    2.000    outmost cutoff radius                                   
   RWIGS  =    2.000; RWIGS  =    1.058    wigner-seitz radius (au A)           
   ENMAX  =  368.648; ENMIN  =  276.486 eV                                      
   RCLOC  =    1.304    cutoff for local pot                                    
   LCOR   =        T    correct aug charges                                     
   LPAW   =        T    paw PP                                                  
   EAUG   =  758.233                                                            
   DEXC   =    0.000                                                            
   RMAX   =    2.046    core radius for proj-oper                               
   RAUG   =    1.300    factor for augmentation sphere                          
   RDEP   =    2.025    radius for radial grids                                 
   RDEPT  =    1.558    core radius for aug-charge                              
                                                                                
   Atomic configuration                                                         
    8 entries                                                                   
     n  l   j            E        occ.                                          
     1  0  0.50     -8850.2467   2.0000                                         
     2  0  0.50     -1062.3498   2.0000                                         
     2  1  1.50      -916.8226   6.0000                                         
     3  0  0.50      -114.6929   2.0000                                         
     3  1  1.50       -72.1325   6.0000                                         
     3  2  2.50        -5.0394  10.0000                                         
     4  0  0.50        -4.6097   1.0000                                         
     4  3  2.50        -1.3606   0.0000                                         
   Description                                                                  
     l       E           TYP  RCUT    TYP  RCUT                                 
     1    -72.1324777     23  1.700                                             
     1     -1.3605826     23  1.700                                             
     2     -5.0393776     23  2.000                                             
     2     -6.3999602     23  2.000                                             
     0     -4.6097062     23  1.800                                             
     0     14.1620818     23  1.800                                             
  local pseudopotential read in
  partial core-charges read in
  partial kinetic energy density read in
  atomic valenz-charges read in
  non local Contribution for L=           1  read in
    real space projection operators read in
  non local Contribution for L=           1  read in
    real space projection operators read in
  non local Contribution for L=           2  read in
    real space projection operators read in
  non local Contribution for L=           2  read in
    real space projection operators read in
  non local Contribution for L=           0  read in
    real space projection operators read in
  non local Contribution for L=           0  read in
    real space projection operators read in
    PAW grid and wavefunctions read in
 
   number of l-projection  operators is LMAX  =           6
   number of lm-projection operators is LMMAX =          18
 
 POTCAR:     PAW_PBE Fe_pv 02Aug2007              
   SHA256 =  5d22e414b1f82158bf2c7ecb8b97b28fd0923e48cadc1c3bf74d524558f5dd32 Fe
   COPYR  = (c) Copyright 02Aug2007 Georg Kresse                                
   COPYR  = This file is part of the software VASP. Any use, copying, and all ot
   COPYR  = If you do not have a valid VASP license, you may not use, copy or di
   VRHFIN =Fe:  3pd7s1                                                          
   LEXCH  = PE                                                                  
   EATOM  =  2457.4239 eV,  180.6156 Ry                                         
                                                                                
   TITEL  = PAW_PBE Fe_pv 02Aug2007                                             
   LULTRA =        F    use ultrasoft PP ?                                      
   IUNSCR =        1    unscreen: 0-lin 1-nonlin 2-no                           
   RPACOR =    1.750    partial core radius                                     
   POMASS =   55.847; ZVAL   =   14.000    mass and valenz                      
   RCORE  =    2.200    outmost cutoff radius                                   
   RWIGS  =    2.200; RWIGS  =    1.164    wigner-seitz radius (au A)           
   ENMAX  =  293.238; ENMIN  =  219.928 eV                                      
   ICORE  =        3    local potential                                         
   LCOR   =        T    correct aug charges                                     
   LPAW   =        T    paw PP                                                  
   EAUG   =  578.342                                                            
   DEXC   =    0.000                                                            
   RMAX   =    2.249    core radius for proj-oper                               
   RAUG   =    1.300    factor for augmentation sphere                          
   RDEP   =    2.296    radius for radial grids                                 
   RDEPT  =    1.766    core radius for aug-charge                              
                                                                                
   Atomic configuration                                                         
    8 entries                                                                   
     n  l   j            E        occ.                                          
     1  0  0.50     -6993.8440   2.0000                                         
     2  0  0.50      -814.6047   2.0000                                         
     2  1  1.50      -693.3689   6.0000                                         
     3  0  0.50       -89.4732   2.0000                                         
     3  1  1.50       -55.6373   6.0000                                         
     3  2  2.50        -3.8151   7.0000                                         
     4  0  0.50        -4.2551   1.0000                                         
     4  3  2.50        -1.3606   0.0000                                         
   Description                                                                  
     l       E           TYP  RCUT    TYP  RCUT                                 
     1    -55.6372668     23  2.000                                             
     1     -5.4423304     23  2.000                                             
     2     -3.8151096     23  2.200                                             
     2     -5.1756922     23  2.200                                             
     0     -4.2550951     23  2.200                                             
     0     27.2116520     23  2.200                                             
     3     -1.3605826     23  2.200                                             
  local pseudopotential read in
  partial core-charges read in
  partial kinetic energy density read in
  atomic valenz-charges read in
  non local Contribution for L=           1  read in
    real space projection operators read in
  non local Contribution for L=           1  read in
    real space projection operators read in
  non local Contribution for L=           2  read in
    real space projection operators read in
  non local Contribution for L=           2  read in
    real space projection operators read in
  non local Contribution for L=           0  read in
    real space projection operators read in
  non local Contribution for L=           0  read in
    real space projection operators read in
    PAW grid and wavefunctions read in
 
   number of l-projection  operators is LMAX  =           6
   number of lm-projection operators is LMMAX =          18
 

 ----------------------------------------------------------------------------- 
|                                                                             |
|  ADVICE TO THIS USER RUNNING 'VASP/VAMP'   (HEAR YOUR MASTER'S VOICE ...):  |
|                                                                             |
|      You have a (more or less) 'large supercell' and for larger cells       |
|      it might be more efficient to use real space projection opertators     |
|      So try LREAL= Auto  in the INCAR   file.                               |
|      Mind:          For very  accurate calculation you might also keep the  |
|      reciprocal projection scheme          (i.e. LREAL=.FALSE.)             |
|                                                                             |
 ----------------------------------------------------------------------------- 


 ----------------------------------------------------------------------------- 
|                                                                             |
|  ADVICE TO THIS USER RUNNING 'VASP/VAMP'   (HEAR YOUR MASTER'S VOICE ...):  |
|                                                                             |
|      You enforced a specific xc-type in the INCAR file,                     |
|      a different type was found on the POTCAR file                          |
|          I HOPE YOU KNOW, WHAT YOU ARE  DOING                               |
|                                                                             |
 ----------------------------------------------------------------------------- 

  PAW_PBE S 06Sep2000                   :
 energy of atom  1       EATOM= -276.8230
 kinetic energy error for atom=    0.0007 (will be added to EATOM!!)
   PAW_PBE Cu_pv 06Sep2000              :
 energy of atom  2       EATOM=-4120.1201
 kinetic energy error for atom=    0.0094 (will be added to EATOM!!)
   PAW_PBE Fe_pv 02Aug2007              :
 energy of atom  3       EATOM=-2457.4239
 kinetic energy error for atom=    0.0025 (will be added to EATOM!!)
 
 
 POSCAR: Fe16 Cu16 S32                           
  positions in direct lattice
  No initial velocities read in
 exchange correlation table for  LEXCH =       14
   RHO(1)=    0.500       N(1)  =     2000
   RHO(2)=  100.500       N(2)  =     4000
 


--------------------------------------------------------------------------------------------------------


 ion  position               nearest neighbor table
   1  0.126  0.124  0.125-  41 2.26  37 2.26  61 2.27  49 2.28
   2  0.626  0.124  0.125-  42 2.26  38 2.26  62 2.27  50 2.28
   3  0.126  0.624  0.125-  43 2.26  39 2.26  63 2.27  51 2.28
   4  0.626  0.624  0.125-  44 2.26  40 2.26  64 2.27  52 2.28
   5  0.374  0.374  0.125-  39 2.26  41 2.26  52 2.27  62 2.28
   6  0.874  0.374  0.125-  40 2.26  42 2.26  51 2.27  61 2.28
   7  0.374  0.874  0.125-  37 2.26  43 2.26  50 2.27  64 2.28
   8  0.874  0.874  0.125-  38 2.26  44 2.26  49 2.27  63 2.28
   9  0.125  0.373  0.875-  41 2.26  45 2.26  51 2.27  55 2.27
  10  0.625  0.373  0.875-  42 2.26  46 2.26  52 2.27  56 2.27
  11  0.125  0.873  0.875-  43 2.26  47 2.26  49 2.27  53 2.27
  12  0.625  0.873  0.875-  44 2.26  48 2.26  50 2.27  54 2.27
  13  0.375  0.125  0.875-  41 2.26  46 2.26  50 2.28  53 2.28
  14  0.875  0.125  0.875-  42 2.26  45 2.26  49 2.28  54 2.28
  15  0.375  0.625  0.875-  43 2.26  48 2.26  52 2.28  55 2.28
  16  0.875  0.625  0.875-  44 2.26  47 2.26  51 2.28  56 2.28
  17  0.124  0.124  0.625-  45 2.26  33 2.26  57 2.27  53 2.28
  18  0.624  0.124  0.625-  46 2.26  34 2.26  58 2.27  54 2.28
  19  0.124  0.624  0.625-  47 2.26  35 2.26  59 2.27  55 2.28
  20  0.624  0.624  0.625-  48 2.26  36 2.26  60 2.27  56 2.28
  21  0.376  0.374  0.625-  36 2.26  46 2.26  55 2.27  57 2.28
  22  0.876  0.374  0.625-  35 2.26  45 2.26  56 2.27  58 2.28
  23  0.376  0.874  0.625-  34 2.26  48 2.26  53 2.27  59 2.28
  24  0.876  0.874  0.625-  33 2.26  47 2.26  54 2.27  60 2.28
  25  0.375  0.123  0.375-  34 2.26  37 2.26  57 2.27  62 2.27
  26  0.875  0.123  0.375-  33 2.26  38 2.26  58 2.27  61 2.27
  27  0.375  0.623  0.375-  36 2.26  39 2.26  59 2.27  64 2.27
  28  0.875  0.623  0.375-  35 2.26  40 2.26  60 2.27  63 2.27
  29  0.125  0.375  0.375-  35 2.26  39 2.26  57 2.28  61 2.28
  30  0.625  0.375  0.375-  36 2.26  40 2.26  58 2.28  62 2.28
  31  0.125  0.875  0.375-  33 2.26  37 2.26  59 2.28  63 2.28
  32  0.625  0.875  0.375-  34 2.26  38 2.26  60 2.28  64 2.28
  33  1.000  0.001  0.500-  24 2.26  31 2.26  26 2.26  17 2.26
  34  0.500  0.001  0.500-  23 2.26  32 2.26  25 2.26  18 2.26
  35  1.000  0.501  0.500-  22 2.26  29 2.26  28 2.26  19 2.26
  36  0.500  0.501  0.500-  21 2.26  30 2.26  27 2.26  20 2.26
  37  0.250  0.001  0.250-   7 2.26  31 2.26  25 2.26   1 2.26
  38  0.750  0.001  0.250-   8 2.26  32 2.26  26 2.26   2 2.26
  39  0.250  0.501  0.250-   5 2.26  29 2.26  27 2.26   3 2.26
  40  0.750  0.501  0.250-   6 2.26  30 2.26  28 2.26   4 2.26
  41  0.250  0.251  0.000-   1 2.26  13 2.26   9 2.26   5 2.26
  42  0.750  0.251  0.000-   2 2.26  14 2.26  10 2.26   6 2.26
  43  0.250  0.751  0.000-   3 2.26  15 2.26  11 2.26   7 2.26
  44  0.750  0.751  0.000-   4 2.26  16 2.26  12 2.26   8 2.26
  45  0.000  0.251  0.750-  17 2.26  14 2.26   9 2.26  22 2.26
  46  0.500  0.251  0.750-  18 2.26  13 2.26  10 2.26  21 2.26
  47  0.000  0.751  0.750-  19 2.26  16 2.26  11 2.26  24 2.26
  48  0.500  0.751  0.750-  20 2.26  15 2.26  12 2.26  23 2.26
  49  1.000  0.001  0.000-   8 2.27  11 2.27  14 2.28   1 2.28
  50  0.500  0.001  0.000-   7 2.27  12 2.27  13 2.28   2 2.28
  51  1.000  0.501  0.000-   6 2.27   9 2.27  16 2.28   3 2.28
  52  0.500  0.501  0.000-   5 2.27  10 2.27  15 2.28   4 2.28
  53  0.250  0.001  0.750-  23 2.27  11 2.27  13 2.28  17 2.28
  54  0.750  0.001  0.750-  24 2.27  12 2.27  14 2.28  18 2.28
  55  0.250  0.501  0.750-  21 2.27   9 2.27  15 2.28  19 2.28
  56  0.750  0.501  0.750-  22 2.27  10 2.27  16 2.28  20 2.28
  57  0.250  0.251  0.500-  17 2.27  25 2.27  29 2.28  21 2.28
  58  0.750  0.251  0.500-  18 2.27  26 2.27  30 2.28  22 2.28
  59  0.250  0.751  0.500-  19 2.27  27 2.27  31 2.28  23 2.28
  60  0.750  0.751  0.500-  20 2.27  28 2.27  32 2.28  24 2.28
  61  0.000  0.251  0.250-   1 2.27  26 2.27  29 2.28   6 2.28
  62  0.500  0.251  0.250-   2 2.27  25 2.27  30 2.28   5 2.28
  63  0.000  0.751  0.250-   3 2.27  28 2.27  31 2.28   8 2.28
  64  0.500  0.751  0.250-   4 2.27  27 2.27  32 2.28   7 2.28
 
  LATTYP: Found a simple monoclinic cell.
 ALAT       =    14.9498761485
 B/A-ratio  =     0.7035087044
 C/A-ratio  =     1.5732100632
 COS(beta)  =    -0.9503382781
  
  Lattice vectors:
  
 A1 = ( -10.6230120000,   0.0000000000, -10.5190500000)
 A2 = (   0.0000000000, -10.5173680000,   0.0000000000)
 A3 = (  10.7320120000,   0.0000000000,  20.9280000000)


Analysis of symmetry for initial positions (statically):
=====================================================================
 Subroutine PRICEL returns following result:
 
  LATTYP: Found a base centered monoclinic cell.
 ALAT       =    11.5630969461
 B/A-ratio  =     0.4547816233
 C/A-ratio  =     0.9002363937
 COS(beta)  =    -0.8108051419
  
  Lattice vectors:
  
 A1 = (  -2.5740030000,  -2.6293420000,   5.1769500000)
 A2 = (  -2.5740030000,   2.6293420000,   5.1769500000)
 A3 = (  -0.1090000000,   0.0000000000, -10.4089500000)
 
   8 primitive cells build up your supercell.
 

 Routine SETGRP: Setting up the symmetry group for a 
 simple monoclinic supercell.


 Subroutine GETGRP returns: Found  2 space group operations
 (whereof  1 operations were pure point group operations)
 out of a pool of  4 trial point group operations.


The static configuration has the point symmetry C_1 .
 The point group associated with its full space group is C_2 .


Analysis of symmetry for dynamics (positions and initial velocities):
=====================================================================
 Subroutine PRICEL returns following result:
 
  LATTYP: Found a base centered monoclinic cell.
 ALAT       =    11.5630969461
 B/A-ratio  =     0.4547816233
 C/A-ratio  =     0.9002363937
 COS(beta)  =    -0.8108051419
  
  Lattice vectors:
  
 A1 = (  -2.5740030000,  -2.6293420000,   5.1769500000)
 A2 = (  -2.5740030000,   2.6293420000,   5.1769500000)
 A3 = (  -0.1090000000,   0.0000000000, -10.4089500000)
 
   8 primitive cells build up your supercell.
 

 Routine SETGRP: Setting up the symmetry group for a 
 simple monoclinic supercell.


 Subroutine GETGRP returns: Found  2 space group operations
 (whereof  1 operations were pure point group operations)
 out of a pool of  4 trial point group operations.


The dynamic configuration has the point symmetry C_1 .
 The point group associated with its full space group is C_2 .


Analysis of structural, dynamic, and magnetic symmetry:
=====================================================================
 Subroutine PRICEL returns following result:
 
  LATTYP: Found a base centered monoclinic cell.
 ALAT       =    11.5630969461
 B/A-ratio  =     0.4547816233
 C/A-ratio  =     0.9002363937
 COS(beta)  =    -0.8108051419
  
  Lattice vectors:
  
 A1 = (  -2.5740030000,  -2.6293420000,   5.1769500000)
 A2 = (  -2.5740030000,   2.6293420000,   5.1769500000)
 A3 = (  -0.1090000000,   0.0000000000, -10.4089500000)
 
   8 primitive cells build up your supercell.
 

 Routine SETGRP: Setting up the symmetry group for a 
 simple monoclinic supercell.


 Subroutine GETGRP returns: Found  2 space group operations
 (whereof  1 operations were pure point group operations)
 out of a pool of  4 trial point group operations.


The magnetic configuration has the point symmetry C_1 .
 The point group associated with its full space group is C_2 .


 Subroutine INISYM returns: Found  2 space group operations
 (whereof  1 operations are pure point group operations),
 and found     8 'primitive' translations

 
 
 KPOINTS: Automatic mesh                          

Automatic generation of k-mesh.
Space group operators:
 irot       det(A)        alpha          n_x          n_y          n_z        tau_x        tau_y        tau_z
    1     1.000000     0.000000     1.000000     0.000000     0.000000     0.000000     0.000000     0.000000
    2     1.000000   180.000000     0.000000     1.000000     0.000000    -0.250000     0.000000    -0.250000
 
 Subroutine IBZKPT returns following result:
 ===========================================
 
 Found      8 irreducible k-points:
 
 Following reciprocal coordinates:
            Coordinates               Weight
  0.000000  0.000000  0.000000      1.000000
  0.500000  0.000000 -0.000000      1.000000
  0.000000  0.500000  0.000000      1.000000
  0.500000  0.500000 -0.000000      1.000000
 -0.000000  0.000000  0.500000      1.000000
  0.500000  0.000000  0.500000      1.000000
 -0.000000  0.500000  0.500000      1.000000
  0.500000  0.500000  0.500000      1.000000
 
 Following cartesian coordinates:
            Coordinates               Weight
  0.000000  0.000000  0.000000      1.000000
  0.047561  0.000000 -0.000498      1.000000
  0.000000  0.047540  0.000000      1.000000
  0.047561  0.047540 -0.000498      1.000000
 -0.000503  0.000000  0.048041      1.000000
  0.047058  0.000000  0.047543      1.000000
 -0.000503  0.047540  0.048041      1.000000
  0.047058  0.047540  0.047543      1.000000
 
 TETIRR: Found     24 inequivalent tetrahedra from       48
 
 Subroutine IBZKPT_HF returns following result:
 ==============================================
 
 Found      8 k-points in 1st BZ
 the following      8 k-points will be used (e.g. in the exchange kernel)
 Following reciprocal coordinates:   # in IRBZ
  0.000000  0.000000  0.000000    0.12500000   1 t-inv F
  0.500000  0.000000 -0.000000    0.12500000   2 t-inv F
  0.000000  0.500000  0.000000    0.12500000   3 t-inv F
  0.500000  0.500000 -0.000000    0.12500000   4 t-inv F
 -0.000000  0.000000  0.500000    0.12500000   5 t-inv F
  0.500000  0.000000  0.500000    0.12500000   6 t-inv F
 -0.000000  0.500000  0.500000    0.12500000   7 t-inv F
  0.500000  0.500000  0.500000    0.12500000   8 t-inv F


--------------------------------------------------------------------------------------------------------




 Dimension of arrays:
   k-points           NKPTS =      8   k-points in BZ     NKDIM =      8   number of bands    NBANDS=    512
   number of dos      NEDOS =    301   number of ions     NIONS =     64
   non local maximal  LDIM  =      6   non local SUM 2l+1 LMDIM =     18
   total plane-waves  NPLWV = 829440
   max r-space proj   IRMAX =      1   max aug-charges    IRDMAX=  22902
   dimension x,y,z NGX =    96 NGY =   96 NGZ =   90
   dimension x,y,z NGXF=   192 NGYF=  192 NGZF=  180
   support grid    NGXF=   192 NGYF=  192 NGZF=  180
   ions per type =              32  16  16
   NGX,Y,Z   is equivalent  to a cutoff of  15.18, 15.17, 14.37 a.u.
   NGXF,Y,Z  is equivalent  to a cutoff of  30.36, 30.35, 28.75 a.u.

 SYSTEM =  CuFeS2                                  
 POSCAR =  Fe16 Cu16 S32                           

 Startparameter for this run:
   NWRITE =      2    write-flag & timer
   PREC   = accura    normal or accurate (medium, high low for compatibility)
   ISTART =      0    job   : 0-new  1-cont  2-samecut
   ICHARG =      1    charge: 1-file 2-atom 10-const
   ISPIN  =      2    spin polarized calculation?
   LNONCOLLINEAR =      F non collinear calculations
   LSORBIT =      F    spin-orbit coupling
   INIWAV =      1    electr: 0-lowe 1-rand  2-diag
   LASPH  =      F    aspherical Exc in radial PAW
   METAGGA=      F    non-selfconsistent MetaGGA calc.

 Electronic Relaxation 1
   ENCUT  =  700.0 eV  51.45 Ry    7.17 a.u.  22.68 22.69 22.46*2*pi/ulx,y,z
   ENINI  =  700.0     initial cutoff
   ENAUG  =  758.2 eV  augmentation charge cutoff
   NELM   =    500;   NELMIN=  2; NELMDL= -5     # of ELM steps 
   EDIFF  = 0.1E-07   stopping-criterion for ELM
   LREAL  =      F    real-space projection
   NLSPLINE    = F    spline interpolate recip. space projectors
   LCOMPAT=      F    compatible to vasp.4.4
   GGA_COMPAT  = T    GGA compatible to vasp.4.4-vasp.4.6
   LMAXPAW     = -100 max onsite density
   LMAXMIX     =    4 max onsite mixed and CHGCAR
   VOSKOWN=      0    Vosko Wilk Nusair interpolation
   ROPT   =    0.00000   0.00000   0.00000
 Ionic relaxation
   EDIFFG = -.1E-04   stopping-criterion for IOM
   NSW    =      0    number of steps for IOM
   NBLOCK =      1;   KBLOCK =      1    inner block; outer block 
   IBRION =     -1    ionic relax: 0-MD 1-quasi-New 2-CG
   NFREE  =      0    steps in history (QN), initial steepest desc. (CG)
   ISIF   =      2    stress and relaxation
   IWAVPR =     10    prediction:  0-non 1-charg 2-wave 3-comb
   ISYM   =      2    0-nonsym 1-usesym 2-fastsym
   LCORR  =      T    Harris-Foulkes like correction to forces

   POTIM  = 0.5000    time-step for ionic-motion
   TEIN   =    0.0    initial temperature
   TEBEG  =    0.0;   TEEND  =   0.0 temperature during run
   SMASS  =  -3.00    Nose mass-parameter (am)
   estimated Nose-frequenzy (Omega)   =  0.10E-29 period in steps =****** mass=  -0.253E-26a.u.
   SCALEE = 1.0000    scale energy and forces
   NPACO  =    256;   APACO  = 16.0  distance and # of slots for P.C.
   PSTRESS=    0.0 pullay stress

  Mass of Ions in am
   POMASS =  32.07 63.55 55.85
  Ionic Valenz
   ZVAL   =   6.00 17.00 14.00
  Atomic Wigner-Seitz radii
   RWIGS  =  -1.00 -1.00 -1.00
  virtual crystal weights 
   VCA    =   1.00  1.00  1.00
   NELECT =     688.0000    total number of electrons
   NUPDOWN=      -1.0000    fix difference up-down

 DOS related values:
   EMIN   =  10.00;   EMAX   =-10.00  energy-range for DOS
   EFERMI =   0.00
   ISMEAR =    -5;   SIGMA  =   0.03  broadening in eV -4-tet -1-fermi 0-gaus

 Electronic relaxation 2 (details)
   IALGO  =     38    algorithm
   LDIAG  =      T    sub-space diagonalisation (order eigenvalues)
   LSUBROT=      F    optimize rotation matrix (better conditioning)
   TURBO    =      0    0=normal 1=particle mesh
   IRESTART =      0    0=no restart 2=restart with 2 vectors
   NREBOOT  =      0    no. of reboots
   NMIN     =      0    reboot dimension
   EREF     =   0.00    reference energy to select bands
   IMIX   =      4    mixing-type and parameters
     AMIX     =   0.40;   BMIX     =  1.00
     AMIX_MAG =   1.60;   BMIX_MAG =  1.00
     AMIN     =   0.10
     WC   =   100.;   INIMIX=   1;  MIXPRE=   1;  MAXMIX= -45

 Intra band minimization:
   WEIMIN = 0.0000     energy-eigenvalue tresh-hold
   EBREAK =  0.49E-11  absolut break condition
   DEPER  =   0.30     relativ break condition  

   TIME   =   0.40     timestep for ELM

  volume/ion in A,a.u.               =      17.98       121.35
  Fermi-wavevector in a.u.,A,eV,Ry     =   1.379090  2.606103 25.876785  1.901890
  Thomas-Fermi vector in A             =   2.504092
 
 Write flags
   LWAVE        =      T    write WAVECAR
   LDOWNSAMPLE  =      F    k-point downsampling of WAVECAR
   LCHARG       =      T    write CHGCAR
   LVTOT        =      F    write LOCPOT, total local potential
   LVHAR        =      F    write LOCPOT, Hartree potential only
   LELF         =      F    write electronic localiz. function (ELF)
   LORBIT       =     11    0 simple, 1 ext, 2 COOP (PROOUT), +10 PAW based schemes


 Dipole corrections
   LMONO  =      F    monopole corrections only (constant potential shift)
   LDIPOL =      F    correct potential (dipole corrections)
   IDIPOL =      0    1-x, 2-y, 3-z, 4-all directions 
   EPSILON=  1.0000000 bulk dielectric constant

 LDA+U is selected, type is set to LDAUTYPE =  2
   angular momentum for each species LDAUL =     2    2    2
   U (eV)           for each species LDAUU =   0.0  0.1  4.7
   J (eV)           for each species LDAUJ =   0.0  0.0  0.0
 Exchange correlation treatment:
   GGA     =    PS    GGA type
   LEXCH   =    14    internal setting for exchange type
   VOSKOWN=      0    Vosko Wilk Nusair interpolation
   LHFCALC =     F    Hartree Fock is set to
   LHFONE  =     F    Hartree Fock one center treatment
   AEXX    =    0.0000 exact exchange contribution

 Linear response parameters
   LEPSILON=     F    determine dielectric tensor
   LRPA    =     F    only Hartree local field effects (RPA)
   LNABLA  =     F    use nabla operator in PAW spheres
   LVEL    =     F    velocity operator in full k-point grid
   LINTERFAST=   F  fast interpolation
   KINTER  =     0    interpolate to denser k-point grid
   CSHIFT  =0.1000    complex shift for real part using Kramers Kronig
   OMEGAMAX=  -1.0    maximum frequency
   DEG_THRESHOLD= 0.2000000E-02 threshold for treating states as degnerate
   RTIME   =   -0.100 relaxation time in fs
  (WPLASMAI=    0.000 imaginary part of plasma frequency in eV, 0.658/RTIME)
   DFIELD  = 0.0000000 0.0000000 0.0000000 field for delta impulse in time
 
 Orbital magnetization related:
   ORBITALMAG=     F  switch on orbital magnetization
   LCHIMAG   =     F  perturbation theory with respect to B field
   DQ        =  0.001000  dq finite difference perturbation B field
   LLRAUG    =     F  two centre corrections for induced B field

 PEAD related settings:
   LPEAD      =     T    switch on PEAD
   IPEAD      =     4    finite difference order for dpsi/dk
   LCALCPOL   =     T    calculate macroscopic polarization
   LCALCEPS   =     F    calculate dielectric tensor
   EFIELD_PEAD=    0.0000    0.0000    0.0000
   SKIP_EDOTP =     F
   LRPA       =     F
   SKIP_SCF   =     F


--------------------------------------------------------------------------------------------------------


 Static calculation
 charge density and potential will be updated during run
 spin polarized calculation
 Variant of blocked Davidson
 Davidson routine will perform the subspace rotation
 perform sub-space diagonalisation
    after iterative eigenvector-optimisation
 modified Broyden-mixing scheme, WC =      100.0
 initial mixing is a Kerker type mixing with AMIX =  0.4000 and BMIX =      1.0000
 Hartree-type preconditioning will be used
 using additional bands          168
 reciprocal scheme for non local part
 use partial core corrections
 calculate Harris-corrections to forces 
   (improved forces if not selfconsistent)
 use gradient corrections 
 use of overlap-Matrix (Vanderbilt PP)
 Fermi weights with tetrahedron method with Bloechl corrections


--------------------------------------------------------------------------------------------------------


  energy-cutoff  :      700.00
  volume of cell :     1150.89
      direct lattice vectors                 reciprocal lattice vectors
    10.514012000  0.000000000  0.110100000     0.095121602  0.000000000 -0.000996090
     0.000000000 10.517368000  0.000000000     0.000000000  0.095080823  0.000000000
     0.109000000  0.000000000 10.408950000    -0.001006143  0.000000000  0.096081706

  length of vectors
    10.514588453 10.517368000 10.409520695     0.095126818  0.095080823  0.096086973


 
 k-points in units of 2pi/SCALE and weight: Automatic mesh                          
   0.00000000  0.00000000  0.00000000       0.125
   0.04756080  0.00000000 -0.00049805       0.125
   0.00000000  0.04754041  0.00000000       0.125
   0.04756080  0.04754041 -0.00049805       0.125
  -0.00050307  0.00000000  0.04804085       0.125
   0.04705773  0.00000000  0.04754281       0.125
  -0.00050307  0.04754041  0.04804085       0.125
   0.04705773  0.04754041  0.04754281       0.125
 
 k-points in reciprocal lattice and weights: Automatic mesh                          
   0.00000000  0.00000000  0.00000000       0.125
   0.50000000  0.00000000 -0.00000000       0.125
   0.00000000  0.50000000  0.00000000       0.125
   0.50000000  0.50000000 -0.00000000       0.125
  -0.00000000  0.00000000  0.50000000       0.125
   0.50000000  0.00000000  0.50000000       0.125
  -0.00000000  0.50000000  0.50000000       0.125
   0.50000000  0.50000000  0.50000000       0.125
 
 position of ions in fractional coordinates (direct lattice) 
   0.12618600  0.12369500  0.12519000
   0.62618600  0.12369500  0.12519000
   0.12618600  0.62369500  0.12519000
   0.62618600  0.62369500  0.12519000
   0.37381400  0.37369500  0.12481000
   0.87381400  0.37369500  0.12481000
   0.37381400  0.87369500  0.12481000
   0.87381400  0.87369500  0.12481000
   0.12500000  0.37296100  0.87500000
   0.62500000  0.37296100  0.87500000
   0.12500000  0.87296100  0.87500000
   0.62500000  0.87296100  0.87500000
   0.37500000  0.12519200  0.87500000
   0.87500000  0.12519200  0.87500000
   0.37500000  0.62519200  0.87500000
   0.87500000  0.62519200  0.87500000
   0.12381400  0.12369500  0.62481000
   0.62381400  0.12369500  0.62481000
   0.12381400  0.62369500  0.62481000
   0.62381400  0.62369500  0.62481000
   0.37618600  0.37369500  0.62519000
   0.87618600  0.37369500  0.62519000
   0.37618600  0.87369500  0.62519000
   0.87618600  0.87369500  0.62519000
   0.37500000  0.12296100  0.37500000
   0.87500000  0.12296100  0.37500000
   0.37500000  0.62296100  0.37500000
   0.87500000  0.62296100  0.37500000
   0.12500000  0.37519200  0.37500000
   0.62500000  0.37519200  0.37500000
   0.12500000  0.87519200  0.37500000
   0.62500000  0.87519200  0.37500000
   0.99961500  0.00115100  0.50000300
   0.49961500  0.00115100  0.50000300
   0.99961500  0.50115100  0.50000300
   0.49961500  0.50115100  0.50000300
   0.25038500  0.00115100  0.24999700
   0.75038500  0.00115100  0.24999700
   0.25038500  0.50115100  0.24999700
   0.75038500  0.50115100  0.24999700
   0.24961500  0.25115100  0.00000300
   0.74961500  0.25115100  0.00000300
   0.24961500  0.75115100  0.00000300
   0.74961500  0.75115100  0.00000300
   0.00038500  0.25115100  0.74999700
   0.50038500  0.25115100  0.74999700
   0.00038500  0.75115100  0.74999700
   0.50038500  0.75115100  0.74999700
   0.99978900  0.00107800  0.00007500
   0.49978900  0.00107800  0.00007500
   0.99978900  0.50107800  0.00007500
   0.49978900  0.50107800  0.00007500
   0.25021100  0.00107800  0.74992500
   0.75021100  0.00107800  0.74992500
   0.25021100  0.50107800  0.74992500
   0.75021100  0.50107800  0.74992500
   0.24978900  0.25107800  0.50007500
   0.74978900  0.25107800  0.50007500
   0.24978900  0.75107800  0.50007500
   0.74978900  0.75107800  0.50007500
   0.00021100  0.25107800  0.24992500
   0.50021100  0.25107800  0.24992500
   0.00021100  0.75107800  0.24992500
   0.50021100  0.75107800  0.24992500
 
 position of ions in cartesian coordinates  (Angst):
   1.34036683  1.30094583  1.31698953
   6.59737283  1.30094583  1.37203953
   1.34036683  6.55962983  1.31698953
   6.59737283  6.55962983  1.37203953
   3.94388917  3.93028783  1.34029797
   9.20089517  3.93028783  1.39534797
   3.94388917  9.18897183  1.34029797
   9.20089517  9.18897183  1.39534797
   1.40962650  3.92256809  9.12159375
   6.66663250  3.92256809  9.17664375
   1.40962650  9.18125209  9.12159375
   6.66663250  9.18125209  9.17664375
   4.03812950  1.31669033  9.14911875
   9.29513550  1.31669033  9.20416875
   4.03812950  6.57537433  9.14911875
   9.29513550  6.57537433  9.20416875
   1.36988617  1.30094583  6.51724797
   6.62689217  1.30094583  6.57229797
   1.36988617  6.55962983  6.51724797
   6.62689217  6.55962983  6.57229797
   4.02336983  3.93028783  6.54898953
   9.28037583  3.93028783  6.60403953
   4.02336983  9.18897183  6.54898953
   9.28037583  9.18897183  6.60403953
   3.98362950  1.29322609  3.94464375
   9.24063550  1.29322609  3.99969375
   3.98362950  6.55191009  3.94464375
   9.24063550  6.55191009  3.99969375
   1.35512650  3.94603233  3.91711875
   6.61213250  3.94603233  3.97216875
   1.35512650  9.20471633  3.91711875
   6.61213250  9.20471633  3.97216875
  10.56446443  0.01210549  5.31456384
   5.30745843  0.01210549  5.25951384
  10.56446443  5.27078949  5.31456384
   5.30745843  5.27078949  5.25951384
   2.65980057  0.01210549  2.62977366
   7.91680657  0.01210549  2.68482366
   2.65980057  5.27078949  2.62977366
   7.91680657  5.27078949  2.68482366
   2.62445543  2.64144749  0.02751384
   7.88146143  2.64144749  0.08256384
   2.62445543  7.90013149  0.02751384
   7.88146143  7.90013149  0.08256384
   0.08579757  2.64144749  7.80672366
   5.34280357  2.64144749  7.86177366
   0.08579757  7.90013149  7.80672366
   5.34280357  7.90013149  7.86177366
  10.51180172  0.01133772  0.11085744
   5.25479572  0.01133772  0.05580744
  10.51180172  5.27002172  0.11085744
   5.25479572  5.27002172  0.05580744
   2.71246328  0.01133772  7.83348006
   7.96946928  0.01133772  7.88853006
   2.71246328  5.27002172  7.83348006
   7.96946928  5.27002172  7.88853006
   2.68079272  2.64067972  5.23275744
   7.93779872  2.64067972  5.28780744
   2.68079272  7.89936372  5.23275744
   7.93779872  7.89936372  5.28780744
   0.02946028  2.64067972  2.60148006
   5.28646628  2.64067972  2.65653006
   0.02946028  7.89936372  2.60148006
   5.28646628  7.89936372  2.65653006
 


--------------------------------------------------------------------------------------------------------


 k-point  1 :   0.0000 0.0000 0.0000  plane waves:   48401
 k-point  2 :   0.5000 0.0000-0.0000  plane waves:   48420
 k-point  3 :   0.0000 0.5000 0.0000  plane waves:   48454
 k-point  4 :   0.5000 0.5000-0.0000  plane waves:   48396
 k-point  5 :  -0.0000 0.0000 0.5000  plane waves:   48392
 k-point  6 :   0.5000 0.0000 0.5000  plane waves:   48424
 k-point  7 :  -0.0000 0.5000 0.5000  plane waves:   48396
 k-point  8 :   0.5000 0.5000 0.5000  plane waves:   48352

 maximum and minimum number of plane-waves per node :     48454    48352

 maximum number of plane-waves:     48454
 maximum index in each direction: 
   IXMAX=   22   IYMAX=   22   IZMAX=   22
   IXMIN=  -23   IYMIN=  -23   IZMIN=  -22


 serial   3D FFT for wavefunctions
 parallel 3D FFT for charge:
    minimum data exchange during FFTs selected (reduces bandwidth)


 total amount of memory used by VASP MPI-rank0   349631. kBytes
=======================================================================

   base      :      30000. kBytes
   nonl-proj :     217907. kBytes
   fftplans  :       4588. kBytes
   grid      :      69719. kBytes
   one-center:       1990. kBytes
   wavefun   :      25427. kBytes
 
     INWAV:  cpu time    0.0000: real time    0.0000
 Broyden mixing: mesh for mixing (old mesh)
   NGX = 45   NGY = 45   NGZ = 45
  (NGX  =192   NGY  =192   NGZ  =180)
  gives a total of  91125 points

 initial charge density was supplied:
 number of electron     688.0000190 magnetization       0.0000000
 keeping initial charge density in first step


--------------------------------------------------------------------------------------------------------


 Maximum index for augmentation-charges          897 (set IRDMAX)


--------------------------------------------------------------------------------------------------------


 First call to EWALD:  gamma=   0.169
 Maximum number of real-space cells 3x 3x 3
 Maximum number of reciprocal cells 3x 3x 3

    FEWALD:  cpu time    0.0027: real time    0.0032


--------------------------------------- Iteration      1(   1)  ---------------------------------------


    POTLOK:  cpu time    0.3264: real time    0.3730
    SETDIJ:  cpu time    0.0161: real time    0.0164
     EDDAV:  cpu time   85.6242: real time   86.3158
 BZINTS: Fermi energy: 14.885732;688.000000 electrons
         Band energy:***********;  BLOECHL correction: -0.011519
       DOS:  cpu time    0.0404: real time    0.0405
    --------------------------------------------
      LOOP:  cpu time   86.0071: real time   86.7458

 eigenvalue-minimisations  : 16384
 total energy-change (2. order) : 0.6046016E+04  (-0.5166716E+05)
 number of electron     688.0000190 magnetization       0.0000000
 augmentation part      688.0000190 magnetization       0.0000000

 Free energy of the ion-electron system (eV)
  ---------------------------------------------------
  alpha Z        PSCENC =      2355.69358495
  Ewald energy   TEWEN  =    -62465.07822817
  -Hartree energ DENC   =    -42899.33606812
  -exchange      EXHF   =         0.00000000
  -V(xc)+E(xc)   XCENC  =      3284.92467440
  PAW double counting   =    112224.67741066  -115917.87443654
  entropy T*S    EENTRO =         0.00000000
  eigenvalues    EBANDS =     -4557.05652790
  atomic energy  EATOM  =    114020.06510763
  Solvation  Ediel_sol  =         0.00000000
  ---------------------------------------------------
  free energy    TOTEN  =      6046.01551691 eV

  energy without entropy =     6046.01551691  energy(sigma->0) =     6046.01551691


--------------------------------------------------------------------------------------------------------




--------------------------------------- Iteration      1(   2)  ---------------------------------------


     EDDAV:  cpu time  109.4480: real time  110.2554
 BZINTS: Fermi energy:  5.434689;688.000000 electrons
         Band energy:***********;  BLOECHL correction:  0.000000
       DOS:  cpu time    0.0059: real time    0.0059
    --------------------------------------------
      LOOP:  cpu time  109.4538: real time  110.2613

 eigenvalue-minimisations  : 19200
 total energy-change (2. order) :-0.6144270E+04  (-0.6035144E+04)
 number of electron     688.0000190 magnetization       0.0000000
 augmentation part      688.0000190 magnetization       0.0000000

 Free energy of the ion-electron system (eV)
  ---------------------------------------------------
  alpha Z        PSCENC =      2355.69358495
  Ewald energy   TEWEN  =    -62465.07822817
  -Hartree energ DENC   =    -42899.33606812
  -exchange      EXHF   =         0.00000000
  -V(xc)+E(xc)   XCENC  =      3284.92467440
  PAW double counting   =    112224.67741066  -115917.87443654
  entropy T*S    EENTRO =         0.00000000
  eigenvalues    EBANDS =    -10701.32697326
  atomic energy  EATOM  =    114020.06510763
  Solvation  Ediel_sol  =         0.00000000
  ---------------------------------------------------
  free energy    TOTEN  =       -98.25492845 eV

  energy without entropy =      -98.25492845  energy(sigma->0) =      -98.25492845


--------------------------------------------------------------------------------------------------------




--------------------------------------- Iteration      1(   3)  ---------------------------------------


     EDDAV:  cpu time  139.8106: real time  140.7935
 BZINTS: Fermi energy:  4.865342;688.000000 electrons
         Band energy:***********;  BLOECHL correction:  0.000000
       DOS:  cpu time    0.0062: real time    0.0062
    --------------------------------------------
      LOOP:  cpu time  139.8167: real time  140.7997

 eigenvalue-minimisations  : 21760
 total energy-change (2. order) :-0.2372114E+03  (-0.2365681E+03)
 number of electron     688.0000190 magnetization       0.0000000
 augmentation part      688.0000190 magnetization       0.0000000

 Free energy of the ion-electron system (eV)
  ---------------------------------------------------
  alpha Z        PSCENC =      2355.69358495
  Ewald energy   TEWEN  =    -62465.07822817
  -Hartree energ DENC   =    -42899.33606812
  -exchange      EXHF   =         0.00000000
  -V(xc)+E(xc)   XCENC  =      3284.92467440
  PAW double counting   =    112224.67741066  -115917.87443654
  entropy T*S    EENTRO =         0.00000000
  eigenvalues    EBANDS =    -10938.53838859
  atomic energy  EATOM  =    114020.06510763
  Solvation  Ediel_sol  =         0.00000000
  ---------------------------------------------------
  free energy    TOTEN  =      -335.46634377 eV

  energy without entropy =     -335.46634377  energy(sigma->0) =     -335.46634377


--------------------------------------------------------------------------------------------------------




--------------------------------------- Iteration      1(   4)  ---------------------------------------


     EDDAV:  cpu time  143.5684: real time  144.5576
 BZINTS: Fermi energy:  4.819598;688.000000 electrons
         Band energy:***********;  BLOECHL correction:  0.000000
       DOS:  cpu time    0.0053: real time    0.0053
    --------------------------------------------
      LOOP:  cpu time  143.5736: real time  144.5628

 eigenvalue-minimisations  : 21504
 total energy-change (2. order) :-0.3316703E+01  (-0.3316578E+01)
 number of electron     688.0000190 magnetization       0.0000000
 augmentation part      688.0000190 magnetization       0.0000000

 Free energy of the ion-electron system (eV)
  ---------------------------------------------------
  alpha Z        PSCENC =      2355.69358495
  Ewald energy   TEWEN  =    -62465.07822817
  -Hartree energ DENC   =    -42899.33606812
  -exchange      EXHF   =         0.00000000
  -V(xc)+E(xc)   XCENC  =      3284.92467440
  PAW double counting   =    112224.67741066  -115917.87443654
  entropy T*S    EENTRO =         0.00000000
  eigenvalues    EBANDS =    -10941.85509153
  atomic energy  EATOM  =    114020.06510763
  Solvation  Ediel_sol  =         0.00000000
  ---------------------------------------------------
  free energy    TOTEN  =      -338.78304671 eV

  energy without entropy =     -338.78304671  energy(sigma->0) =     -338.78304671


--------------------------------------------------------------------------------------------------------




--------------------------------------- Iteration      1(   5)  ---------------------------------------


     EDDAV:  cpu time  126.7995: real time  127.6955
 BZINTS: Fermi energy:  4.988838;688.000000 electrons
         Band energy:***********;  BLOECHL correction:  0.000000
       DOS:  cpu time    0.0060: real time    0.0061
    CHARGE:  cpu time    1.3849: real time    1.3945
    MIXING:  cpu time    0.0042: real time    0.0042
    --------------------------------------------
      LOOP:  cpu time  128.1946: real time  129.1003

 eigenvalue-minimisations  : 20224
 total energy-change (2. order) :-0.1053639E+00  (-0.1053636E+00)
 number of electron     688.0000424 magnetization       0.0000000
 augmentation part      283.0824172 magnetization       0.0000000

 Broyden mixing:
  rms(total) = 0.24895E+01    rms(broyden)= 0.24892E+01
  rms(prec ) = 0.27984E+01
  weight for this iteration     100.00

 Free energy of the ion-electron system (eV)
  ---------------------------------------------------
  alpha Z        PSCENC =      2355.69358495
  Ewald energy   TEWEN  =    -62465.07822817
  -Hartree energ DENC   =    -42899.33606812
  -exchange      EXHF   =         0.00000000
  -V(xc)+E(xc)   XCENC  =      3284.92467440
  PAW double counting   =    112224.67741066  -115917.87443654
  entropy T*S    EENTRO =         0.00000000
  eigenvalues    EBANDS =    -10941.96045547
  atomic energy  EATOM  =    114020.06510763
  Solvation  Ediel_sol  =         0.00000000
  ---------------------------------------------------
  free energy    TOTEN  =      -338.88841065 eV

  energy without entropy =     -338.88841065  energy(sigma->0) =     -338.88841065


--------------------------------------------------------------------------------------------------------




--------------------------------------- Iteration      1(   6)  ---------------------------------------


    POTLOK:  cpu time    0.1223: real time    0.1231
    SETDIJ:  cpu time    0.0128: real time    0.0129
     EDDAV:  cpu time  170.0287: real time  171.1815
 BZINTS: Fermi energy:  5.017487;688.000000 electrons
         Band energy:***********;  BLOECHL correction:  0.000000
       DOS:  cpu time    0.0059: real time    0.0059
    CHARGE:  cpu time    1.3782: real time    1.3880
    MIXING:  cpu time    0.0021: real time    0.0062
    --------------------------------------------
      LOOP:  cpu time  171.5501: real time  172.7176

 eigenvalue-minimisations  : 24832
 total energy-change (2. order) : 0.8173212E+01  (-0.6761200E+00)
 number of electron     688.0000423 magnetization       0.0000000
 augmentation part      281.6620882 magnetization       0.0000000

 Broyden mixing:
  rms(total) = 0.13387E+01    rms(broyden)= 0.13387E+01
  rms(prec ) = 0.15035E+01
  weight for this iteration     100.00

 eigenvalues of (default mixing * dielectric matrix)
  average eigenvalue GAMMA=   0.8900
  0.8900

 Free energy of the ion-electron system (eV)
  ---------------------------------------------------
  alpha Z        PSCENC =      2355.69358495
  Ewald energy   TEWEN  =    -62465.07822817
  -Hartree energ DENC   =    -42978.97488094
  -exchange      EXHF   =         0.00000000
  -V(xc)+E(xc)   XCENC  =      3286.79932478
  PAW double counting   =    113102.18464177  -116805.71477052
  entropy T*S    EENTRO =         0.00000000
  eigenvalues    EBANDS =    -10845.68997806
  atomic energy  EATOM  =    114020.06510763
  Solvation  Ediel_sol  =         0.00000000
  ---------------------------------------------------
  free energy    TOTEN  =      -330.71519857 eV

  energy without entropy =     -330.71519857  energy(sigma->0) =     -330.71519857


--------------------------------------------------------------------------------------------------------




--------------------------------------- Iteration      1(   7)  ---------------------------------------


    POTLOK:  cpu time    0.1220: real time    0.1228
    SETDIJ:  cpu time    0.0126: real time    0.0127
     EDDAV:  cpu time  152.3880: real time  153.4415
 BZINTS: Fermi energy:  4.815472;688.000000 electrons
         Band energy:***********;  BLOECHL correction:  0.000000
       DOS:  cpu time    0.0050: real time    0.0050
    CHARGE:  cpu time    1.3789: real time    1.3872
    MIXING:  cpu time    0.0015: real time    0.0384
    --------------------------------------------
      LOOP:  cpu time  153.9081: real time  155.0077

 eigenvalue-minimisations  : 23040
 total energy-change (2. order) : 0.2419690E+01  (-0.6004503E+00)
 number of electron     688.0000425 magnetization       0.0000000
 augmentation part      282.7560804 magnetization       0.0000000

 Broyden mixing:
  rms(total) = 0.98355E+00    rms(broyden)= 0.98354E+00
  rms(prec ) = 0.10408E+01
  weight for this iteration     100.00

 eigenvalues of (default mixing * dielectric matrix)
  average eigenvalue GAMMA=   0.9762
  1.4244  0.5280

 Free energy of the ion-electron system (eV)
  ---------------------------------------------------
  alpha Z        PSCENC =      2355.69358495
  Ewald energy   TEWEN  =    -62465.07822817
  -Hartree energ DENC   =    -42927.46001025
  -exchange      EXHF   =         0.00000000
  -V(xc)+E(xc)   XCENC  =      3286.34536506
  PAW double counting   =    112902.40854967  -116591.46079264
  entropy T*S    EENTRO =         0.00000000
  eigenvalues    EBANDS =    -10908.80908485
  atomic energy  EATOM  =    114020.06510763
  Solvation  Ediel_sol  =         0.00000000
  ---------------------------------------------------
  free energy    TOTEN  =      -328.29550861 eV

  energy without entropy =     -328.29550861  energy(sigma->0) =     -328.29550861


--------------------------------------------------------------------------------------------------------




--------------------------------------- Iteration      1(   8)  ---------------------------------------


    POTLOK:  cpu time    0.1229: real time    0.1239
    SETDIJ:  cpu time    0.0126: real time    0.0126
     EDDAV:  cpu time  156.3025: real time  157.3657
 BZINTS: Fermi energy:  4.801744;688.000000 electrons
         Band energy:***********;  BLOECHL correction:  0.000000
       DOS:  cpu time    0.0051: real time    0.0051
    CHARGE:  cpu time    1.3808: real time    1.3893
    MIXING:  cpu time    0.0013: real time    0.0013
    --------------------------------------------
      LOOP:  cpu time  157.8252: real time  158.8979

 eigenvalue-minimisations  : 22784
 total energy-change (2. order) : 0.2130825E+00  (-0.2385977E+00)
 number of electron     688.0000425 magnetization       0.0000000
 augmentation part      282.4192017 magnetization       0.0000000

 Broyden mixing:
  rms(total) = 0.44913E+00    rms(broyden)= 0.44913E+00
  rms(prec ) = 0.48022E+00
  weight for this iteration     100.00

 eigenvalues of (default mixing * dielectric matrix)
  average eigenvalue GAMMA=   1.0234
  1.9074  0.7019  0.4608

 Free energy of the ion-electron system (eV)
  ---------------------------------------------------
  alpha Z        PSCENC =      2355.69358495
  Ewald energy   TEWEN  =    -62465.07822817
  -Hartree energ DENC   =    -42938.98041087
  -exchange      EXHF   =         0.00000000
  -V(xc)+E(xc)   XCENC  =      3286.00674408
  PAW double counting   =    112717.84108236  -116411.32550015
  entropy T*S    EENTRO =         0.00000000
  eigenvalues    EBANDS =    -10892.30480591
  atomic energy  EATOM  =    114020.06510763
  Solvation  Ediel_sol  =         0.00000000
  ---------------------------------------------------
  free energy    TOTEN  =      -328.08242608 eV

  energy without entropy =     -328.08242608  energy(sigma->0) =     -328.08242608


--------------------------------------------------------------------------------------------------------




--------------------------------------- Iteration      1(   9)  ---------------------------------------


    POTLOK:  cpu time    0.1211: real time    0.1242
    SETDIJ:  cpu time    0.0128: real time    0.0129
     EDDAV:  cpu time  143.3476: real time  144.3355
 BZINTS: Fermi energy:  4.822718;688.000000 electrons
         Band energy:***********;  BLOECHL correction:  0.000000
       DOS:  cpu time    0.0051: real time    0.0051
    CHARGE:  cpu time    1.3812: real time    1.3904
    MIXING:  cpu time    0.0014: real time    0.0014
    --------------------------------------------
      LOOP:  cpu time  144.8692: real time  145.8695

 eigenvalue-minimisations  : 21248
 total energy-change (2. order) : 0.1313184E-01  (-0.8641058E-01)
 number of electron     688.0000424 magnetization       0.0000000
 augmentation part      282.1711352 magnetization       0.0000000

 Broyden mixing:
  rms(total) = 0.23932E+00    rms(broyden)= 0.23931E+00
  rms(prec ) = 0.26675E+00
  weight for this iteration     100.00

 eigenvalues of (default mixing * dielectric matrix)
  average eigenvalue GAMMA=   0.9758
  1.8867  0.9296  0.6631  0.4238

 Free energy of the ion-electron system (eV)
  ---------------------------------------------------
  alpha Z        PSCENC =      2355.69358495
  Ewald energy   TEWEN  =    -62465.07822817
  -Hartree energ DENC   =    -42963.81889283
  -exchange      EXHF   =         0.00000000
  -V(xc)+E(xc)   XCENC  =      3286.86889579
  PAW double counting   =    112633.55423034  -116329.14798201
  entropy T*S    EENTRO =         0.00000000
  eigenvalues    EBANDS =    -10866.20600993
  atomic energy  EATOM  =    114020.06510763
  Solvation  Ediel_sol  =         0.00000000
  ---------------------------------------------------
  free energy    TOTEN  =      -328.06929424 eV

  energy without entropy =     -328.06929424  energy(sigma->0) =     -328.06929424


--------------------------------------------------------------------------------------------------------




--------------------------------------- Iteration      1(  10)  ---------------------------------------


    POTLOK:  cpu time    0.1220: real time    0.1228
    SETDIJ:  cpu time    0.0127: real time    0.0128
     EDDAV:  cpu time  146.1288: real time  147.1289
 BZINTS: Fermi energy:  4.797249;688.000000 electrons
         Band energy:***********;  BLOECHL correction:  0.000000
       DOS:  cpu time    0.0051: real time    0.0051
    CHARGE:  cpu time    1.3785: real time    1.3879
    MIXING:  cpu time    0.0016: real time    0.0016
    --------------------------------------------
      LOOP:  cpu time  147.6487: real time  148.6591

 eigenvalue-minimisations  : 21504
 total energy-change (2. order) :-0.4150848E-02  (-0.4898680E-01)
 number of electron     688.0000425 magnetization       0.0000000
 augmentation part      282.1727203 magnetization       0.0000000

 Broyden mixing:
  rms(total) = 0.18890E+00    rms(broyden)= 0.18889E+00
  rms(prec ) = 0.21630E+00
  weight for this iteration     100.00

 eigenvalues of (default mixing * dielectric matrix)
  average eigenvalue GAMMA=   0.9970
  1.7196  1.7196  0.6750  0.5421  0.3287

 Free energy of the ion-electron system (eV)
  ---------------------------------------------------
  alpha Z        PSCENC =      2355.69358495
  Ewald energy   TEWEN  =    -62465.07822817
  -Hartree energ DENC   =    -42953.16234688
  -exchange      EXHF   =         0.00000000
  -V(xc)+E(xc)   XCENC  =      3286.31523944
  PAW double counting   =    112512.59543251  -116206.75170160
  entropy T*S    EENTRO =         0.00000000
  eigenvalues    EBANDS =    -10877.75053296
  atomic energy  EATOM  =    114020.06510763
  Solvation  Ediel_sol  =         0.00000000
  ---------------------------------------------------
  free energy    TOTEN  =      -328.07344509 eV

  energy without entropy =     -328.07344509  energy(sigma->0) =     -328.07344509


--------------------------------------------------------------------------------------------------------




--------------------------------------- Iteration      1(  11)  ---------------------------------------


    POTLOK:  cpu time    0.1215: real time    0.1231
    SETDIJ:  cpu time    0.0126: real time    0.0127
     EDDAV:  cpu time  157.3326: real time  158.4049
 BZINTS: Fermi energy:  5.014489;688.000000 electrons
         Band energy:***********;  BLOECHL correction:  0.000000
       DOS:  cpu time    0.0058: real time    0.0058
    CHARGE:  cpu time    1.3795: real time    1.3878
    MIXING:  cpu time    0.0017: real time    0.0067
    --------------------------------------------
      LOOP:  cpu time  158.8537: real time  159.9410

 eigenvalue-minimisations  : 23296
 total energy-change (2. order) : 0.3654470E-02  (-0.1307246E-01)
 number of electron     688.0000425 magnetization       0.0000000
 augmentation part      282.2505801 magnetization       0.0000000

 Broyden mixing:
  rms(total) = 0.61889E-01    rms(broyden)= 0.61886E-01
  rms(prec ) = 0.63310E-01
  weight for this iteration     100.00

 eigenvalues of (default mixing * dielectric matrix)
  average eigenvalue GAMMA=   1.1396
  2.1747  2.1747  0.9077  0.6511  0.5970  0.3327

 Free energy of the ion-electron system (eV)
  ---------------------------------------------------
  alpha Z        PSCENC =      2355.69358495
  Ewald energy   TEWEN  =    -62465.07822817
  -Hartree energ DENC   =    -42953.26902007
  -exchange      EXHF   =         0.00000000
  -V(xc)+E(xc)   XCENC  =      3286.46832329
  PAW double counting   =    112391.15999964  -116084.70177826
  entropy T*S    EENTRO =         0.00000000
  eigenvalues    EBANDS =    -10878.40777961
  atomic energy  EATOM  =    114020.06510763
  Solvation  Ediel_sol  =         0.00000000
  ---------------------------------------------------
  free energy    TOTEN  =      -328.06979062 eV

  energy without entropy =     -328.06979062  energy(sigma->0) =     -328.06979062


--------------------------------------------------------------------------------------------------------




--------------------------------------- Iteration      1(  12)  ---------------------------------------


    POTLOK:  cpu time    0.1215: real time    0.1224
    SETDIJ:  cpu time    0.0129: real time    0.0129
     EDDAV:  cpu time  147.4587: real time  148.4732
 BZINTS: Fermi energy:  5.012002;688.000000 electrons
         Band energy:***********;  BLOECHL correction:  0.000000
       DOS:  cpu time    0.0058: real time    0.0058
    CHARGE:  cpu time    1.3818: real time    1.3901
    MIXING:  cpu time    0.0016: real time    0.0017
    --------------------------------------------
      LOOP:  cpu time  148.9823: real time  150.0061

 eigenvalue-minimisations  : 22016
 total energy-change (2. order) :-0.5918442E-02  (-0.2026616E-02)
 number of electron     688.0000425 magnetization       0.0000000
 augmentation part      282.2093748 magnetization       0.0000000

 Broyden mixing:
  rms(total) = 0.29060E-01    rms(broyden)= 0.29058E-01
  rms(prec ) = 0.32554E-01
  weight for this iteration     100.00

 eigenvalues of (default mixing * dielectric matrix)
  average eigenvalue GAMMA=   1.1278
  2.2651  2.2651  1.0457  0.6927  0.6454  0.6454  0.3353

 Free energy of the ion-electron system (eV)
  ---------------------------------------------------
  alpha Z        PSCENC =      2355.69358495
  Ewald energy   TEWEN  =    -62465.07822817
  -Hartree energ DENC   =    -42956.52715819
  -exchange      EXHF   =         0.00000000
  -V(xc)+E(xc)   XCENC  =      3286.53004941
  PAW double counting   =    112308.31602322  -116002.47629189
  entropy T*S    EENTRO =         0.00000000
  eigenvalues    EBANDS =    -10874.59879602
  atomic energy  EATOM  =    114020.06510763
  Solvation  Ediel_sol  =         0.00000000
  ---------------------------------------------------
  free energy    TOTEN  =      -328.07570906 eV

  energy without entropy =     -328.07570906  energy(sigma->0) =     -328.07570906


--------------------------------------------------------------------------------------------------------




--------------------------------------- Iteration      1(  13)  ---------------------------------------


    POTLOK:  cpu time    0.1217: real time    0.1226
    SETDIJ:  cpu time    0.0128: real time    0.0128
     EDDAV:  cpu time  139.0028: real time  139.9559
 BZINTS: Fermi energy:  5.000855;688.000000 electrons
         Band energy:***********;  BLOECHL correction:  0.000000
       DOS:  cpu time    0.0058: real time    0.0059
    CHARGE:  cpu time    1.3780: real time    1.3873
    MIXING:  cpu time    0.0017: real time    0.0017
    --------------------------------------------
      LOOP:  cpu time  140.5228: real time  141.4861

 eigenvalue-minimisations  : 20736
 total energy-change (2. order) :-0.7297355E-03  (-0.4689197E-03)
 number of electron     688.0000425 magnetization       0.0000000
 augmentation part      282.2246671 magnetization       0.0000000

 Broyden mixing:
  rms(total) = 0.14207E-01    rms(broyden)= 0.14207E-01
  rms(prec ) = 0.15429E-01
  weight for this iteration     100.00

 eigenvalues of (default mixing * dielectric matrix)
  average eigenvalue GAMMA=   1.1217
  2.2920  2.2920  1.0770  1.0770  0.6747  0.6127  0.6127  0.3359

 Free energy of the ion-electron system (eV)
  ---------------------------------------------------
  alpha Z        PSCENC =      2355.69358495
  Ewald energy   TEWEN  =    -62465.07822817
  -Hartree energ DENC   =    -42954.82327945
  -exchange      EXHF   =         0.00000000
  -V(xc)+E(xc)   XCENC  =      3286.48348140
  PAW double counting   =    112286.04437589  -115979.84456886
  entropy T*S    EENTRO =         0.00000000
  eigenvalues    EBANDS =    -10876.61691218
  atomic energy  EATOM  =    114020.06510763
  Solvation  Ediel_sol  =         0.00000000
  ---------------------------------------------------
  free energy    TOTEN  =      -328.07643879 eV

  energy without entropy =     -328.07643879  energy(sigma->0) =     -328.07643879


--------------------------------------------------------------------------------------------------------




--------------------------------------- Iteration      1(  14)  ---------------------------------------


    POTLOK:  cpu time    0.1216: real time    0.1225
    SETDIJ:  cpu time    0.0127: real time    0.0128
     EDDAV:  cpu time  157.8508: real time  158.9140
 BZINTS: Fermi energy:  4.995167;688.000000 electrons
         Band energy:***********;  BLOECHL correction:  0.000000
       DOS:  cpu time    0.0059: real time    0.0059
    CHARGE:  cpu time    1.3806: real time    1.3901
    MIXING:  cpu time    0.0017: real time    0.0017
    --------------------------------------------
      LOOP:  cpu time  159.3732: real time  160.4469

 eigenvalue-minimisations  : 22784
 total energy-change (2. order) :-0.5050157E-03  (-0.1512591E-03)
 number of electron     688.0000425 magnetization       0.0000000
 augmentation part      282.2205485 magnetization       0.0000000

 Broyden mixing:
  rms(total) = 0.76963E-02    rms(broyden)= 0.76958E-02
  rms(prec ) = 0.80562E-02
  weight for this iteration     100.00

 eigenvalues of (default mixing * dielectric matrix)
  average eigenvalue GAMMA=   1.1961
  2.4458  2.4458  1.4676  1.4676  0.3358  0.6107  0.6107  0.7235  0.6571

 Free energy of the ion-electron system (eV)
  ---------------------------------------------------
  alpha Z        PSCENC =      2355.69358495
  Ewald energy   TEWEN  =    -62465.07822817
  -Hartree energ DENC   =    -42955.36911269
  -exchange      EXHF   =         0.00000000
  -V(xc)+E(xc)   XCENC  =      3286.50336850
  PAW double counting   =    112276.22211732  -115970.18310810
  entropy T*S    EENTRO =         0.00000000
  eigenvalues    EBANDS =    -10875.93067325
  atomic energy  EATOM  =    114020.06510763
  Solvation  Ediel_sol  =         0.00000000
  ---------------------------------------------------
  free energy    TOTEN  =      -328.07694381 eV

  energy without entropy =     -328.07694381  energy(sigma->0) =     -328.07694381


--------------------------------------------------------------------------------------------------------




--------------------------------------- Iteration      1(  15)  ---------------------------------------


    POTLOK:  cpu time    0.1217: real time    0.1225
    SETDIJ:  cpu time    0.0126: real time    0.0126
     EDDAV:  cpu time  134.0201: real time  134.9516
 BZINTS: Fermi energy:  4.990096;688.000000 electrons
         Band energy:***********;  BLOECHL correction:  0.000000
       DOS:  cpu time    0.0058: real time    0.0059
    CHARGE:  cpu time    1.3796: real time    1.3898
    MIXING:  cpu time    0.0018: real time    0.0018
    --------------------------------------------
      LOOP:  cpu time  135.5416: real time  136.4842

 eigenvalue-minimisations  : 20480
 total energy-change (2. order) :-0.2696248E-03  (-0.7128301E-04)
 number of electron     688.0000425 magnetization      -0.0000000
 augmentation part      282.2194957 magnetization      -0.0000000

 Broyden mixing:
  rms(total) = 0.41362E-02    rms(broyden)= 0.41357E-02
  rms(prec ) = 0.43877E-02
  weight for this iteration     100.00

 eigenvalues of (default mixing * dielectric matrix)
  average eigenvalue GAMMA=   1.2172
  2.8250  2.2432  1.8861  1.1593  1.1593  0.3358  0.6115  0.6115  0.7071  0.6327

 Free energy of the ion-electron system (eV)
  ---------------------------------------------------
  alpha Z        PSCENC =      2355.69358495
  Ewald energy   TEWEN  =    -62465.07822817
  -Hartree energ DENC   =    -42955.41664807
  -exchange      EXHF   =         0.00000000
  -V(xc)+E(xc)   XCENC  =      3286.50316381
  PAW double counting   =    112271.56724644  -115965.52751808
  entropy T*S    EENTRO =         0.00000000
  eigenvalues    EBANDS =    -10875.88392193
  atomic energy  EATOM  =    114020.06510763
  Solvation  Ediel_sol  =         0.00000000
  ---------------------------------------------------
  free energy    TOTEN  =      -328.07721343 eV

  energy without entropy =     -328.07721343  energy(sigma->0) =     -328.07721343


--------------------------------------------------------------------------------------------------------




--------------------------------------- Iteration      1(  16)  ---------------------------------------


    POTLOK:  cpu time    0.1195: real time    0.1233
    SETDIJ:  cpu time    0.0127: real time    0.0128
     EDDAV:  cpu time  125.6637: real time  126.5318
 BZINTS: Fermi energy:  4.987615;688.000000 electrons
         Band energy:***********;  BLOECHL correction:  0.000000
       DOS:  cpu time    0.0058: real time    0.0058
    CHARGE:  cpu time    1.3822: real time    1.3915
    MIXING:  cpu time    0.0019: real time    0.0025
    --------------------------------------------
      LOOP:  cpu time  127.1858: real time  128.0677

 eigenvalue-minimisations  : 19456
 total energy-change (2. order) :-0.1005974E-03  (-0.2922312E-04)
 number of electron     688.0000425 magnetization       0.0000000
 augmentation part      282.2225680 magnetization       0.0000000

 Broyden mixing:
  rms(total) = 0.29307E-02    rms(broyden)= 0.29304E-02
  rms(prec ) = 0.31605E-02
  weight for this iteration     100.00

 eigenvalues of (default mixing * dielectric matrix)
  average eigenvalue GAMMA=   1.3044
  3.3229  2.2007  2.2007  1.4430  1.4430  0.3358  0.8511  0.6081  0.6081  0.7093
  0.6253

 Free energy of the ion-electron system (eV)
  ---------------------------------------------------
  alpha Z        PSCENC =      2355.69358495
  Ewald energy   TEWEN  =    -62465.07822817
  -Hartree energ DENC   =    -42955.30257316
  -exchange      EXHF   =         0.00000000
  -V(xc)+E(xc)   XCENC  =      3286.50150756
  PAW double counting   =    112270.63260473  -115964.57530147
  entropy T*S    EENTRO =         0.00000000
  eigenvalues    EBANDS =    -10876.01401610
  atomic energy  EATOM  =    114020.06510763
  Solvation  Ediel_sol  =         0.00000000
  ---------------------------------------------------
  free energy    TOTEN  =      -328.07731403 eV

  energy without entropy =     -328.07731403  energy(sigma->0) =     -328.07731403


--------------------------------------------------------------------------------------------------------




--------------------------------------- Iteration      1(  17)  ---------------------------------------


    POTLOK:  cpu time    0.1221: real time    0.1229
    SETDIJ:  cpu time    0.0125: real time    0.0125
     EDDAV:  cpu time  130.1152: real time  131.0241
 BZINTS: Fermi energy:  4.986138;688.000000 electrons
         Band energy:***********;  BLOECHL correction:  0.000000
       DOS:  cpu time    0.0059: real time    0.0059
    CHARGE:  cpu time    1.3788: real time    1.3885
    MIXING:  cpu time    0.0019: real time    0.0019
    --------------------------------------------
      LOOP:  cpu time  131.6363: real time  132.5558

 eigenvalue-minimisations  : 19968
 total energy-change (2. order) :-0.5284218E-04  (-0.2966530E-04)
 number of electron     688.0000425 magnetization       0.0000000
 augmentation part      282.2202174 magnetization       0.0000000

 Broyden mixing:
  rms(total) = 0.14403E-02    rms(broyden)= 0.14398E-02
  rms(prec ) = 0.15691E-02
  weight for this iteration     100.00

 eigenvalues of (default mixing * dielectric matrix)
  average eigenvalue GAMMA=   1.3787
  4.2100  2.3518  2.3518  1.5190  1.5190  1.0172  0.3358  0.6051  0.6051  0.7237
  0.6882  0.6177

 Free energy of the ion-electron system (eV)
  ---------------------------------------------------
  alpha Z        PSCENC =      2355.69358495
  Ewald energy   TEWEN  =    -62465.07822817
  -Hartree energ DENC   =    -42955.37970774
  -exchange      EXHF   =         0.00000000
  -V(xc)+E(xc)   XCENC  =      3286.50182567
  PAW double counting   =    112272.10120606  -115966.05431339
  entropy T*S    EENTRO =         0.00000000
  eigenvalues    EBANDS =    -10875.92684188
  atomic energy  EATOM  =    114020.06510763
  Solvation  Ediel_sol  =         0.00000000
  ---------------------------------------------------
  free energy    TOTEN  =      -328.07736687 eV

  energy without entropy =     -328.07736687  energy(sigma->0) =     -328.07736687


--------------------------------------------------------------------------------------------------------




--------------------------------------- Iteration      1(  18)  ---------------------------------------


    POTLOK:  cpu time    0.1216: real time    0.1225
    SETDIJ:  cpu time    0.0126: real time    0.0127
     EDDAV:  cpu time  132.6312: real time  133.5470
 BZINTS: Fermi energy:  4.985419;688.000000 electrons
         Band energy:***********;  BLOECHL correction:  0.000000
       DOS:  cpu time    0.0058: real time    0.0058
    CHARGE:  cpu time    1.3792: real time    1.3880
    MIXING:  cpu time    0.0020: real time    0.0020
    --------------------------------------------
      LOOP:  cpu time  134.1525: real time  135.0780

 eigenvalue-minimisations  : 19968
 total energy-change (2. order) :-0.9149197E-05  (-0.6775996E-05)
 number of electron     688.0000425 magnetization      -0.0000000
 augmentation part      282.2211410 magnetization      -0.0000000

 Broyden mixing:
  rms(total) = 0.70672E-03    rms(broyden)= 0.70638E-03
  rms(prec ) = 0.75022E-03
  weight for this iteration     100.00

 eigenvalues of (default mixing * dielectric matrix)
  average eigenvalue GAMMA=   1.3627
  4.3402  2.3976  2.3976  1.6995  1.2179  1.2179  0.3358  0.9130  0.6044  0.6044
  0.7237  0.6477  0.6149

 Free energy of the ion-electron system (eV)
  ---------------------------------------------------
  alpha Z        PSCENC =      2355.69358495
  Ewald energy   TEWEN  =    -62465.07822817
  -Hartree energ DENC   =    -42955.34135511
  -exchange      EXHF   =         0.00000000
  -V(xc)+E(xc)   XCENC  =      3286.50106221
  PAW double counting   =    112273.01193729  -115966.96154846
  entropy T*S    EENTRO =         0.00000000
  eigenvalues    EBANDS =    -10875.96793635
  atomic energy  EATOM  =    114020.06510763
  Solvation  Ediel_sol  =         0.00000000
  ---------------------------------------------------
  free energy    TOTEN  =      -328.07737602 eV

  energy without entropy =     -328.07737602  energy(sigma->0) =     -328.07737602


--------------------------------------------------------------------------------------------------------




--------------------------------------- Iteration      1(  19)  ---------------------------------------


    POTLOK:  cpu time    0.1212: real time    0.1221
    SETDIJ:  cpu time    0.0126: real time    0.0127
     EDDAV:  cpu time  119.3575: real time  120.1930
 BZINTS: Fermi energy:  4.984784;688.000000 electrons
         Band energy:***********;  BLOECHL correction:  0.000000
       DOS:  cpu time    0.0058: real time    0.0058
    CHARGE:  cpu time    1.3784: real time    1.3874
    MIXING:  cpu time    0.0022: real time    0.0022
    --------------------------------------------
      LOOP:  cpu time  120.8777: real time  121.7232

 eigenvalue-minimisations  : 18944
 total energy-change (2. order) :-0.7749331E-06  (-0.2943669E-06)
 number of electron     688.0000425 magnetization       0.0000000
 augmentation part      282.2210007 magnetization       0.0000000

 Broyden mixing:
[...]
   -.421E+02 0.731E+01 -.721E+00   0.429E+02 -.736E+01 0.730E+00   -.860E+00 0.468E-01 -.883E-02   0.763E-05 -.191E-04 0.756E-05
   -.421E+02 0.731E+01 -.721E+00   0.429E+02 -.736E+01 0.730E+00   -.860E+00 0.468E-01 -.883E-02   0.765E-05 -.191E-04 0.756E-05
   -.421E+02 0.731E+01 -.721E+00   0.429E+02 -.736E+01 0.730E+00   -.860E+00 0.468E-01 -.883E-02   0.763E-05 -.190E-04 0.756E-05
   -.421E+02 0.731E+01 -.721E+00   0.429E+02 -.736E+01 0.730E+00   -.860E+00 0.468E-01 -.883E-02   0.765E-05 -.190E-04 0.756E-05
   0.421E+02 0.731E+01 0.721E+00   -.429E+02 -.736E+01 -.730E+00   0.860E+00 0.468E-01 0.883E-02   -.764E-05 -.191E-04 -.757E-05
   0.421E+02 0.731E+01 0.721E+00   -.429E+02 -.736E+01 -.730E+00   0.860E+00 0.468E-01 0.883E-02   -.764E-05 -.191E-04 -.757E-05
   0.421E+02 0.731E+01 0.721E+00   -.429E+02 -.736E+01 -.730E+00   0.860E+00 0.468E-01 0.883E-02   -.764E-05 -.191E-04 -.756E-05
   0.421E+02 0.731E+01 0.721E+00   -.429E+02 -.736E+01 -.730E+00   0.860E+00 0.468E-01 0.883E-02   -.764E-05 -.191E-04 -.756E-05
   0.598E-07 -.366E+02 0.144E-06   -.995E-13 0.374E+02 0.185E-12   0.169E-24 -.817E+00 0.414E-24   -.493E-10 -.104E-04 0.256E-08
   0.598E-07 -.366E+02 0.144E-06   -.728E-13 0.374E+02 0.844E-13   0.614E-25 -.817E+00 0.827E-24   -.106E-10 -.104E-04 -.255E-08
   0.598E-07 -.366E+02 0.144E-06   -.853E-13 0.374E+02 0.128E-12   0.707E-25 -.817E+00 -.258E-24   -.491E-10 -.104E-04 0.256E-08
   0.598E-07 -.366E+02 0.144E-06   -.853E-13 0.374E+02 0.128E-12   -.251E-24 -.817E+00 -.931E-24   -.107E-10 -.104E-04 -.255E-08
   0.384E-08 0.478E+02 -.529E-07   -.639E-13 -.488E+02 -.118E-12   -.323E-26 0.909E+00 0.207E-24   -.103E-07 -.134E-04 0.999E-10
   0.384E-08 0.478E+02 -.529E-07   -.639E-13 -.488E+02 -.103E-12   -.129E-25 0.909E+00 0.000E+00   0.103E-07 -.134E-04 -.993E-10
   0.384E-08 0.478E+02 -.529E-07   -.853E-13 -.488E+02 -.711E-13   0.808E-25 0.909E+00 0.000E+00   -.103E-07 -.134E-04 0.999E-10
   0.384E-08 0.478E+02 -.529E-07   -.853E-13 -.488E+02 -.853E-13   0.436E-25 0.909E+00 0.517E-24   0.103E-07 -.134E-04 -.992E-10
   0.154E+01 -.686E+01 0.368E+00   -.152E+01 0.658E+01 -.374E+00   -.193E-01 0.278E+00 0.430E-02   0.205E-04 -.666E-04 -.151E-05
   0.154E+01 -.686E+01 0.368E+00   -.152E+01 0.658E+01 -.374E+00   -.193E-01 0.278E+00 0.430E-02   0.205E-04 -.666E-04 -.151E-05
   0.154E+01 -.686E+01 0.368E+00   -.152E+01 0.658E+01 -.374E+00   -.193E-01 0.278E+00 0.430E-02   0.205E-04 -.665E-04 -.152E-05
   0.154E+01 -.686E+01 0.368E+00   -.152E+01 0.658E+01 -.374E+00   -.193E-01 0.278E+00 0.430E-02   0.205E-04 -.665E-04 -.152E-05
   -.154E+01 -.686E+01 -.368E+00   0.152E+01 0.658E+01 0.374E+00   0.193E-01 0.278E+00 -.430E-02   -.205E-04 -.666E-04 0.152E-05
   -.154E+01 -.686E+01 -.368E+00   0.152E+01 0.658E+01 0.374E+00   0.193E-01 0.278E+00 -.430E-02   -.205E-04 -.666E-04 0.151E-05
   -.154E+01 -.686E+01 -.368E+00   0.152E+01 0.658E+01 0.374E+00   0.193E-01 0.278E+00 -.430E-02   -.205E-04 -.665E-04 0.152E-05
   -.154E+01 -.686E+01 -.368E+00   0.152E+01 0.658E+01 0.374E+00   0.193E-01 0.278E+00 -.430E-02   -.205E-04 -.665E-04 0.152E-05
   0.154E+01 -.686E+01 0.368E+00   -.152E+01 0.658E+01 -.374E+00   -.193E-01 0.278E+00 0.430E-02   0.205E-04 -.666E-04 -.152E-05
   0.154E+01 -.686E+01 0.368E+00   -.152E+01 0.658E+01 -.374E+00   -.193E-01 0.278E+00 0.430E-02   0.205E-04 -.666E-04 -.151E-05
   0.154E+01 -.686E+01 0.368E+00   -.152E+01 0.658E+01 -.374E+00   -.193E-01 0.278E+00 0.430E-02   0.205E-04 -.665E-04 -.152E-05
   0.154E+01 -.686E+01 0.368E+00   -.152E+01 0.658E+01 -.374E+00   -.193E-01 0.278E+00 0.430E-02   0.205E-04 -.665E-04 -.152E-05
   -.154E+01 -.686E+01 -.368E+00   0.152E+01 0.658E+01 0.374E+00   0.193E-01 0.278E+00 -.430E-02   -.205E-04 -.666E-04 0.152E-05
   -.154E+01 -.686E+01 -.368E+00   0.152E+01 0.658E+01 0.374E+00   0.193E-01 0.278E+00 -.430E-02   -.205E-04 -.666E-04 0.151E-05
   -.154E+01 -.686E+01 -.368E+00   0.152E+01 0.658E+01 0.374E+00   0.193E-01 0.278E+00 -.430E-02   -.205E-04 -.665E-04 0.152E-05
   -.154E+01 -.686E+01 -.368E+00   0.152E+01 0.658E+01 0.374E+00   0.193E-01 0.278E+00 -.430E-02   -.205E-04 -.665E-04 0.151E-05
   -.183E+01 -.682E+01 0.373E+00   0.179E+01 0.645E+01 -.383E+00   0.370E-01 0.368E+00 0.686E-02   0.187E-04 -.172E-04 0.126E-04
   -.183E+01 -.682E+01 0.373E+00   0.179E+01 0.645E+01 -.383E+00   0.370E-01 0.368E+00 0.686E-02   0.188E-04 -.172E-04 0.126E-04
   -.183E+01 -.682E+01 0.373E+00   0.179E+01 0.645E+01 -.383E+00   0.370E-01 0.368E+00 0.686E-02   0.187E-04 -.171E-04 0.126E-04
   -.183E+01 -.682E+01 0.373E+00   0.179E+01 0.645E+01 -.383E+00   0.370E-01 0.368E+00 0.686E-02   0.188E-04 -.171E-04 0.126E-04
   0.183E+01 -.682E+01 -.373E+00   -.179E+01 0.645E+01 0.383E+00   -.370E-01 0.368E+00 -.686E-02   -.188E-04 -.172E-04 -.126E-04
   0.183E+01 -.682E+01 -.373E+00   -.179E+01 0.645E+01 0.383E+00   -.370E-01 0.368E+00 -.686E-02   -.187E-04 -.172E-04 -.126E-04
   0.183E+01 -.682E+01 -.373E+00   -.179E+01 0.645E+01 0.383E+00   -.370E-01 0.368E+00 -.686E-02   -.188E-04 -.171E-04 -.126E-04
   0.183E+01 -.682E+01 -.373E+00   -.179E+01 0.645E+01 0.383E+00   -.370E-01 0.368E+00 -.686E-02   -.187E-04 -.171E-04 -.126E-04
   -.183E+01 -.682E+01 0.373E+00   0.179E+01 0.645E+01 -.383E+00   0.370E-01 0.368E+00 0.686E-02   0.187E-04 -.172E-04 0.126E-04
   -.183E+01 -.682E+01 0.373E+00   0.179E+01 0.645E+01 -.383E+00   0.370E-01 0.368E+00 0.686E-02   0.188E-04 -.172E-04 0.126E-04
   -.183E+01 -.682E+01 0.373E+00   0.179E+01 0.645E+01 -.383E+00   0.370E-01 0.368E+00 0.686E-02   0.187E-04 -.171E-04 0.126E-04
   -.183E+01 -.682E+01 0.373E+00   0.179E+01 0.645E+01 -.383E+00   0.370E-01 0.368E+00 0.686E-02   0.188E-04 -.171E-04 0.126E-04
   0.183E+01 -.682E+01 -.373E+00   -.179E+01 0.645E+01 0.383E+00   -.370E-01 0.368E+00 -.686E-02   -.188E-04 -.172E-04 -.126E-04
   0.183E+01 -.682E+01 -.373E+00   -.179E+01 0.645E+01 0.383E+00   -.370E-01 0.368E+00 -.686E-02   -.187E-04 -.172E-04 -.126E-04
   0.183E+01 -.682E+01 -.373E+00   -.179E+01 0.645E+01 0.383E+00   -.370E-01 0.368E+00 -.686E-02   -.188E-04 -.171E-04 -.126E-04
   0.183E+01 -.682E+01 -.373E+00   -.179E+01 0.645E+01 0.383E+00   -.370E-01 0.368E+00 -.686E-02   -.187E-04 -.171E-04 -.126E-04
 -----------------------------------------------------------------------------------------------
   -.454E-06 -.118E+02 0.327E-03   0.877E-13 0.416E-12 0.923E-12   0.162E-14 0.118E+02 -.347E-17   -.100E-10 -.183E-02 -.130E-10
 
 
 POSITION                                       TOTAL-FORCE (eV/Angst)
 -----------------------------------------------------------------------------------
      1.34037      1.30095      1.31699        -0.000223     -0.000810      0.000302
      6.59737      1.30095      1.37204        -0.000223     -0.000810      0.000302
      1.34037      6.55963      1.31699        -0.000223     -0.000810      0.000302
      6.59737      6.55963      1.37204        -0.000223     -0.000810      0.000302
      3.94389      3.93029      1.34030         0.000223     -0.000810     -0.000302
      9.20090      3.93029      1.39535         0.000223     -0.000810     -0.000302
      3.94389      9.18897      1.34030         0.000223     -0.000810     -0.000302
      9.20090      9.18897      1.39535         0.000223     -0.000810     -0.000302
      1.40963      3.92257      9.12159        -0.000000     -0.000848     -0.000000
      6.66663      3.92257      9.17664        -0.000000     -0.000848     -0.000000
      1.40963      9.18125      9.12159        -0.000000     -0.000848     -0.000000
      6.66663      9.18125      9.17664        -0.000000     -0.000848     -0.000000
      4.03813      1.31669      9.14912        -0.000000      0.000724     -0.000000
      9.29514      1.31669      9.20417        -0.000000      0.000724     -0.000000
      4.03813      6.57537      9.14912        -0.000000      0.000724     -0.000000
      9.29514      6.57537      9.20417        -0.000000      0.000724     -0.000000
      1.36989      1.30095      6.51725         0.000223     -0.000810     -0.000302
      6.62689      1.30095      6.57230         0.000223     -0.000810     -0.000302
      1.36989      6.55963      6.51725         0.000223     -0.000810     -0.000302
      6.62689      6.55963      6.57230         0.000223     -0.000810     -0.000302
      4.02337      3.93029      6.54899        -0.000223     -0.000810      0.000302
      9.28038      3.93029      6.60404        -0.000223     -0.000810      0.000302
      4.02337      9.18897      6.54899        -0.000223     -0.000810      0.000302
      9.28038      9.18897      6.60404        -0.000223     -0.000810      0.000302
      3.98363      1.29323      3.94464        -0.000000     -0.000848     -0.000000
      9.24064      1.29323      3.99969        -0.000000     -0.000848     -0.000000
      3.98363      6.55191      3.94464        -0.000000     -0.000848     -0.000000
      9.24064      6.55191      3.99969        -0.000000     -0.000848     -0.000000
      1.35513      3.94603      3.91712        -0.000000      0.000724     -0.000000
      6.61213      3.94603      3.97217        -0.000000      0.000724     -0.000000
      1.35513      9.20472      3.91712        -0.000000      0.000724     -0.000000
      6.61213      9.20472      3.97217        -0.000000      0.000724     -0.000000
     10.56446      0.01211      5.31456         0.000083     -0.000347     -0.002083
      5.30746      0.01211      5.25951         0.000083     -0.000347     -0.002083
     10.56446      5.27079      5.31456         0.000083     -0.000347     -0.002083
      5.30746      5.27079      5.25951         0.000083     -0.000347     -0.002083
      2.65980      0.01211      2.62977        -0.000083     -0.000347      0.002083
      7.91681      0.01211      2.68482        -0.000083     -0.000347      0.002083
      2.65980      5.27079      2.62977        -0.000083     -0.000347      0.002083
      7.91681      5.27079      2.68482        -0.000083     -0.000347      0.002083
      2.62446      2.64145      0.02751         0.000083     -0.000347     -0.002083
      7.88146      2.64145      0.08256         0.000083     -0.000347     -0.002083
      2.62446      7.90013      0.02751         0.000083     -0.000347     -0.002083
      7.88146      7.90013      0.08256         0.000083     -0.000347     -0.002083
      0.08580      2.64145      7.80672        -0.000083     -0.000347      0.002083
      5.34280      2.64145      7.86177        -0.000083     -0.000347      0.002083
      0.08580      7.90013      7.80672        -0.000083     -0.000347      0.002083
      5.34280      7.90013      7.86177        -0.000083     -0.000347      0.002083
     10.51180      0.01134      0.11086         0.000369      0.001219     -0.003372
      5.25480      0.01134      0.05581         0.000369      0.001219     -0.003372
     10.51180      5.27002      0.11086         0.000369      0.001219     -0.003372
      5.25480      5.27002      0.05581         0.000369      0.001219     -0.003372
      2.71246      0.01134      7.83348        -0.000369      0.001219      0.003372
      7.96947      0.01134      7.88853        -0.000369      0.001219      0.003372
      2.71246      5.27002      7.83348        -0.000369      0.001219      0.003372
      7.96947      5.27002      7.88853        -0.000369      0.001219      0.003372
      2.68079      2.64068      5.23276         0.000369      0.001219     -0.003372
      7.93780      2.64068      5.28781         0.000369      0.001219     -0.003372
      2.68079      7.89936      5.23276         0.000369      0.001219     -0.003372
      7.93780      7.89936      5.28781         0.000369      0.001219     -0.003372
      0.02946      2.64068      2.60148        -0.000369      0.001219      0.003372
      5.28647      2.64068      2.65653        -0.000369      0.001219      0.003372
      0.02946      7.89936      2.60148        -0.000369      0.001219      0.003372
      5.28647      7.89936      2.65653        -0.000369      0.001219      0.003372
 -----------------------------------------------------------------------------------
    total drift:                               -0.000000     -0.021928      0.000327


--------------------------------------------------------------------------------------------------------



  FREE ENERGIE OF THE ION-ELECTRON SYSTEM (eV)
  ---------------------------------------------------
  free  energy   TOTEN  =      -328.07737727 eV

  energy  without entropy=     -328.07737727  energy(sigma->0) =     -328.07737727
 


--------------------------------------------------------------------------------------------------------


    POTLOK:  cpu time    0.1294: real time    0.1302


--------------------------------------------------------------------------------------------------------


 writing wavefunctions
     LOOP+:  cpu time 3372.1018: real time 3395.7896
    4ORBIT:  cpu time    0.0000: real time    0.0000
 


 total charge     
 
# of ion       s       p       d       tot
------------------------------------------
    1        1.313   2.410   0.000   3.724
    2        1.313   2.410   0.000   3.724
    3        1.313   2.410   0.000   3.724
    4        1.313   2.410   0.000   3.724
    5        1.313   2.410   0.000   3.724
    6        1.313   2.410   0.000   3.724
    7        1.313   2.410   0.000   3.724
    8        1.313   2.410   0.000   3.724
    9        1.314   2.409   0.000   3.723
   10        1.314   2.409   0.000   3.723
   11        1.314   2.409   0.000   3.723
   12        1.314   2.409   0.000   3.723
   13        1.313   2.411   0.000   3.724
   14        1.313   2.411   0.000   3.724
   15        1.313   2.411   0.000   3.724
   16        1.313   2.411   0.000   3.724
   17        1.313   2.410   0.000   3.724
   18        1.313   2.410   0.000   3.724
   19        1.313   2.410   0.000   3.724
   20        1.313   2.410   0.000   3.724
   21        1.313   2.410   0.000   3.724
   22        1.313   2.410   0.000   3.724
   23        1.313   2.410   0.000   3.724
   24        1.313   2.410   0.000   3.724
   25        1.314   2.409   0.000   3.723
   26        1.314   2.409   0.000   3.723
   27        1.314   2.409   0.000   3.723
   28        1.314   2.409   0.000   3.723
   29        1.313   2.411   0.000   3.724
   30        1.313   2.411   0.000   3.724
   31        1.313   2.411   0.000   3.724
   32        1.313   2.411   0.000   3.724
   33        0.260   6.202   8.917  15.378
   34        0.260   6.202   8.917  15.378
   35        0.260   6.202   8.917  15.378
   36        0.260   6.202   8.917  15.378
   37        0.260   6.202   8.917  15.378
   38        0.260   6.202   8.917  15.378
   39        0.260   6.202   8.917  15.378
   40        0.260   6.202   8.917  15.378
   41        0.260   6.202   8.917  15.378
   42        0.260   6.202   8.917  15.378
   43        0.260   6.202   8.917  15.378
   44        0.260   6.202   8.917  15.378
   45        0.260   6.202   8.917  15.378
   46        0.260   6.202   8.917  15.378
   47        0.260   6.202   8.917  15.378
   48        0.260   6.202   8.917  15.378
   49        0.350   6.351   5.820  12.521
   50        0.350   6.351   5.820  12.521
   51        0.350   6.351   5.820  12.521
   52        0.350   6.351   5.820  12.521
   53        0.350   6.351   5.820  12.521
   54        0.350   6.351   5.820  12.521
   55        0.350   6.351   5.820  12.521
   56        0.350   6.351   5.820  12.521
   57        0.350   6.351   5.820  12.521
   58        0.350   6.351   5.820  12.521
   59        0.350   6.351   5.820  12.521
   60        0.350   6.351   5.820  12.521
   61        0.350   6.351   5.820  12.521
   62        0.350   6.351   5.820  12.521
   63        0.350   6.351   5.820  12.521
   64        0.350   6.351   5.820  12.521
--------------------------------------------------
tot         51.789 277.972 235.782 565.544
 


 magnetization (x)
 
# of ion       s       p       d       tot
------------------------------------------
    1       -0.000  -0.005   0.000  -0.005
    2       -0.000  -0.005   0.000  -0.005
    3       -0.000  -0.005   0.000  -0.005
    4       -0.000  -0.005   0.000  -0.005
    5        0.000   0.005   0.000   0.005
    6        0.000   0.005   0.000   0.005
    7        0.000   0.005   0.000   0.005
    8        0.000   0.005   0.000   0.005
    9       -0.000   0.000   0.000   0.000
   10        0.000   0.000   0.000   0.000
   11       -0.000   0.000   0.000   0.000
   12       -0.000   0.000   0.000   0.000
   13        0.000   0.000   0.000   0.000
   14        0.000   0.000   0.000   0.000
   15        0.000   0.000   0.000   0.000
   16        0.000   0.000   0.000   0.000
   17        0.000   0.005   0.000   0.005
   18        0.000   0.005   0.000   0.005
   19        0.000   0.005   0.000   0.005
   20        0.000   0.005   0.000   0.005
   21       -0.000  -0.005   0.000  -0.005
   22       -0.000  -0.005   0.000  -0.005
   23       -0.000  -0.005   0.000  -0.005
   24       -0.000  -0.005   0.000  -0.005
   25        0.000   0.000   0.000   0.000
   26       -0.000   0.000   0.000   0.000
   27        0.000   0.000   0.000   0.000
   28        0.000   0.000   0.000   0.000
   29       -0.000   0.000   0.000   0.000
   30        0.000   0.000   0.000   0.000
   31       -0.000   0.000   0.000   0.000
   32        0.000   0.000   0.000   0.000
   33        0.000   0.001  -0.001  -0.000
   34        0.000   0.001  -0.001  -0.000
   35        0.000   0.001  -0.001  -0.000
   36        0.000   0.001  -0.001  -0.000
   37       -0.000  -0.001   0.001   0.000
   38       -0.000  -0.001   0.001   0.000
   39       -0.000  -0.001   0.001   0.000
   40       -0.000  -0.001   0.001   0.000
   41        0.000   0.001  -0.001  -0.000
   42        0.000   0.001  -0.001  -0.000
   43        0.000   0.001  -0.001  -0.000
   44        0.000   0.001  -0.001  -0.000
   45       -0.000  -0.001   0.001   0.000
   46       -0.000  -0.001   0.001   0.000
   47       -0.000  -0.001   0.001   0.000
   48       -0.000  -0.001   0.001   0.000
   49        0.020   0.054   3.671   3.744
   50        0.020   0.054   3.671   3.744
   51        0.020   0.054   3.671   3.744
   52        0.020   0.054   3.671   3.744
   53       -0.020  -0.054  -3.671  -3.744
   54       -0.020  -0.054  -3.671  -3.744
   55       -0.020  -0.054  -3.671  -3.744
   56       -0.020  -0.054  -3.671  -3.744
   57        0.020   0.054   3.671   3.744
   58        0.020   0.054   3.671   3.744
   59        0.020   0.054   3.671   3.744
   60        0.020   0.054   3.671   3.744
   61       -0.020  -0.054  -3.671  -3.744
   62       -0.020  -0.054  -3.671  -3.744
   63       -0.020  -0.054  -3.671  -3.744
   64       -0.020  -0.054  -3.671  -3.744
--------------------------------------------------
tot         -0.000   0.000  -0.000  -0.000
 
 BZINTS: Fermi energy:  4.984348;688.000000 electrons
         Band energy:***********;  BLOECHL correction:  0.000000

 total amount of memory used by VASP MPI-rank0   349631. kBytes
=======================================================================

   base      :      30000. kBytes
   nonl-proj :     217907. kBytes
   fftplans  :       4588. kBytes
   grid      :      69719. kBytes
   one-center:       1990. kBytes
   wavefun   :      25427. kBytes
 
  
  
 General timing and accounting informations for this job:
 ========================================================
  
                  Total CPU time used (sec):     3431.703
                            User time (sec):     3420.214
                          System time (sec):       11.489
                         Elapsed time (sec):     3456.831
  
                   Maximum memory used (kb):      724696.
                   Average memory used (kb):           0.
  
                          Minor page faults:       496076
                          Major page faults:         5734
                 Voluntary context switches:         7066
