       N       E                     dE             d eps       ncg     rms          ort
SDA:   1    -0.820519966745E+02   -0.82052E+02    0.00000E+00  4784   0.110E-06 0.000E+00
CGA:   2    -0.820519967105E+02   -0.35972E-07   -0.48926E-09  4784   0.979E-07 0.105E-06
CGA:   3    -0.820519967438E+02   -0.33247E-07   -0.43008E-09  4784   0.874E-07 0.930E-07
CGA:   4    -0.820519967750E+02   -0.31199E-07   -0.38141E-09  4784   0.785E-07 0.832E-07
CGA:   5    -0.820519968045E+02   -0.29539E-07   -0.33962E-09  4784   0.707E-07 0.748E-07
CGA:   6    -0.820519968325E+02   -0.28011E-07   -0.30226E-09  4784   0.639E-07 0.675E-07
CGA:   7    -0.820519968589E+02   -0.26424E-07   -0.26808E-09  4784   0.581E-07 0.611E-07
CGA:   8    -0.820519968840E+02   -0.25066E-07   -0.23671E-09  4784   0.529E-07 0.556E-07
CGA:   9    -0.820519969077E+02   -0.23696E-07   -0.20808E-09  4784   0.485E-07 0.508E-07
CGA:  10    -0.820519969303E+02   -0.22619E-07   -0.18276E-09  4784   0.446E-07 0.466E-07
CGA:  11    -0.820519969521E+02   -0.21770E-07   -0.16084E-09  4784   0.412E-07 0.430E-07
CGA:  12    -0.820519969734E+02   -0.21317E-07   -0.14251E-09  4784   0.382E-07 0.398E-07
CGA:  13    -0.820519969947E+02   -0.21333E-07   -0.12792E-09  4784   0.355E-07 0.369E-07
CGA:  14    -0.820519970172E+02   -0.22465E-07   -0.11988E-09  4784   0.330E-07 0.343E-07
CGA:  15    -0.820519970459E+02   -0.28715E-07   -0.13308E-09  4784   0.302E-07 0.316E-07
CGA:  16    -0.820519970877E+02   -0.41764E-07   -0.16001E-09  4784   0.267E-07 0.284E-07
CGA:  17    -0.820519971132E+02   -0.25557E-07   -0.81753E-10  4784   0.249E-07 0.258E-07
CGA:  18    -0.820519971315E+02   -0.18252E-07   -0.52747E-10  4784   0.236E-07 0.242E-07
CGA:  19    -0.820519971469E+02   -0.15401E-07   -0.41756E-10  4784   0.227E-07 0.231E-07
CGA:  20    -0.820519971609E+02   -0.14048E-07   -0.36150E-10  4784   0.218E-07 0.222E-07
CGA:  21    -0.820519971740E+02   -0.13089E-07   -0.32355E-10  4784   0.210E-07 0.214E-07
CGA:  22    -0.820519971863E+02   -0.12302E-07   -0.29587E-10  4784   0.203E-07 0.207E-07
CGA:  23    -0.820519971981E+02   -0.11807E-07   -0.27919E-10  4784   0.197E-07 0.200E-07
CGA:  24    -0.820519972098E+02   -0.11645E-07   -0.27135E-10  4784   0.191E-07 0.194E-07
CGA:  25    -0.820519972215E+02   -0.11776E-07   -0.27320E-10  4784   0.184E-07 0.187E-07
CGA:  26    -0.820519972339E+02   -0.12351E-07   -0.28893E-10  4784   0.178E-07 0.181E-07
CGA:  27    -0.820519972479E+02   -0.14028E-07   -0.33269E-10  4784   0.170E-07 0.174E-07
CGA:  28    -0.820519972664E+02   -0.18499E-07   -0.45642E-10  4784   0.161E-07 0.165E-07
CGA:  29    -0.820519973153E+02   -0.48833E-07   -0.13980E-09  4784   0.135E-07 0.146E-07
CGA:  30    -0.820519973428E+02   -0.27569E-07    0.17214E-10  4784   0.922E-08 0.653E-08
CGA:  31    -0.820519973466E+02   -0.37944E-08   -0.16784E-10  4784   0.900E-08 0.135E-07
   1 F= -.82051997E+02 E0= -.82051997E+02  d E =0.000000E+00  mag=    -0.0000    -0.0000     0.0000
