 vasp.5.4.4.18Apr17-6-g9f103f2a35 (build Oct 04 2018 15:53:47) complex          
  
 executed on             LinuxIFC date 2022.10.07  15:46:26
 running on  256 total cores
 distrk:  each k-point on  256 cores,    1 groups
 distr:  one band on NCORES_PER_BAND=  32 cores,    8 groups


--------------------------------------------------------------------------------------------------------


 INCAR:
 POTCAR:    PAW_PBE S 06Sep2000                   
 POTCAR:     PAW_PBE Cu_pv 06Sep2000              
 POTCAR:     PAW_PBE Fe_pv 02Aug2007              
 POTCAR:    PAW_PBE S 06Sep2000                   
   SHA256 =  0fc7481fb0695f01bdc6462160264c5c84044ae9ec85a907d398b887a2bc3132 S/
   COPYR  = (c) Copyright 06Sep2000 Georg Kresse                                
   COPYR  = This file is part of the software VASP. Any use, copying, and all ot
   COPYR  = If you do not have a valid VASP license, you may not use, copy or di
   VRHFIN =S : s2p4                                                             
   LEXCH  = PE                                                                  
   EATOM  =   276.8230 eV,   20.3459 Ry                                         
                                                                                
   TITEL  = PAW_PBE S 06Sep2000                                                 
   LULTRA =        F    use ultrasoft PP ?                                      
   IUNSCR =        1    unscreen: 0-lin 1-nonlin 2-no                           
   RPACOR =    1.500    partial core radius                                     
   POMASS =   32.066; ZVAL   =    6.000    mass and valenz                      
   RCORE  =    1.900    outmost cutoff radius                                   
   RWIGS  =    2.200; RWIGS  =    1.164    wigner-seitz radius (au A)           
   ENMAX  =  258.689; ENMIN  =  194.016 eV                                      
   ICORE  =        2    local potential                                         
   LCOR   =        T    correct aug charges                                     
   LPAW   =        T    paw PP                                                  
   EAUG   =  335.092                                                            
   DEXC   =    0.000                                                            
   RMAX   =    1.942    core radius for proj-oper                               
   RAUG   =    1.300    factor for augmentation sphere                          
   RDEP   =    1.954    radius for radial grids                                 
   RDEPT  =    1.744    core radius for aug-charge                              
                                                                                
   Atomic configuration                                                         
    6 entries                                                                   
     n  l   j            E        occ.                                          
     1  0  0.50     -2405.8406   2.0000                                         
     2  0  0.50      -211.7007   2.0000                                         
     2  1  1.50      -156.4958   6.0000                                         
     3  0  0.50       -17.2562   2.0000                                         
     3  1  0.50        -7.0085   4.0000                                         
     3  2  1.50        -6.8029   0.0000                                         
   Description                                                                  
     l       E           TYP  RCUT    TYP  RCUT                                 
     0    -17.2561641     23  1.900                                             
     0    -15.8743224     23  1.900                                             
     1     -7.0085400     23  1.900                                             
     1     -2.7779785     23  1.900                                             
     2     -6.8029130     23  1.900                                             
  local pseudopotential read in
  partial core-charges read in
  partial kinetic energy density read in
  atomic valenz-charges read in
  non local Contribution for L=           0  read in
    real space projection operators read in
  non local Contribution for L=           0  read in
    real space projection operators read in
  non local Contribution for L=           1  read in
    real space projection operators read in
  non local Contribution for L=           1  read in
    real space projection operators read in
    PAW grid and wavefunctions read in
 
   number of l-projection  operators is LMAX  =           4
   number of lm-projection operators is LMMAX =           8
 
 POTCAR:     PAW_PBE Cu_pv 06Sep2000              
   SHA256 =  cb7b504e2ea725fe1f25c85a9ac77d4012ce94cd394135b722c4e25ec297f1cb Cu
   COPYR  = (c) Copyright 06Sep2000 Georg Kresse                                
   COPYR  = This file is part of the software VASP. Any use, copying, and all ot
   COPYR  = If you do not have a valid VASP license, you may not use, copy or di
   VRHFIN =Cu: d10 p1                                                           
   LEXCH  = PE                                                                  
   EATOM  =  4120.1201 eV,  302.8203 Ry                                         
                                                                                
   TITEL  = PAW_PBE Cu_pv 06Sep2000                                             
   LULTRA =        F    use ultrasoft PP ?                                      
   IUNSCR =        1    unscreen: 0-lin 1-nonlin 2-no                           
   RPACOR =    1.500    partial core radius                                     
   POMASS =   63.546; ZVAL   =   17.000    mass and valenz                      
   RCORE  =    2.000    outmost cutoff radius                                   
   RWIGS  =    2.000; RWIGS  =    1.058    wigner-seitz radius (au A)           
   ENMAX  =  368.648; ENMIN  =  276.486 eV                                      
   RCLOC  =    1.304    cutoff for local pot                                    
   LCOR   =        T    correct aug charges                                     
   LPAW   =        T    paw PP                                                  
   EAUG   =  758.233                                                            
   DEXC   =    0.000                                                            
   RMAX   =    2.046    core radius for proj-oper                               
   RAUG   =    1.300    factor for augmentation sphere                          
   RDEP   =    2.025    radius for radial grids                                 
   RDEPT  =    1.558    core radius for aug-charge                              
                                                                                
   Atomic configuration                                                         
    8 entries                                                                   
     n  l   j            E        occ.                                          
     1  0  0.50     -8850.2467   2.0000                                         
     2  0  0.50     -1062.3498   2.0000                                         
     2  1  1.50      -916.8226   6.0000                                         
     3  0  0.50      -114.6929   2.0000                                         
     3  1  1.50       -72.1325   6.0000                                         
     3  2  2.50        -5.0394  10.0000                                         
     4  0  0.50        -4.6097   1.0000                                         
     4  3  2.50        -1.3606   0.0000                                         
   Description                                                                  
     l       E           TYP  RCUT    TYP  RCUT                                 
     1    -72.1324777     23  1.700                                             
     1     -1.3605826     23  1.700                                             
     2     -5.0393776     23  2.000                                             
     2     -6.3999602     23  2.000                                             
     0     -4.6097062     23  1.800                                             
     0     14.1620818     23  1.800                                             
  local pseudopotential read in
  partial core-charges read in
  partial kinetic energy density read in
  atomic valenz-charges read in
  non local Contribution for L=           1  read in
    real space projection operators read in
  non local Contribution for L=           1  read in
    real space projection operators read in
  non local Contribution for L=           2  read in
    real space projection operators read in
  non local Contribution for L=           2  read in
    real space projection operators read in
  non local Contribution for L=           0  read in
    real space projection operators read in
  non local Contribution for L=           0  read in
    real space projection operators read in
    PAW grid and wavefunctions read in
 
   number of l-projection  operators is LMAX  =           6
   number of lm-projection operators is LMMAX =          18
 
 POTCAR:     PAW_PBE Fe_pv 02Aug2007              
   SHA256 =  5d22e414b1f82158bf2c7ecb8b97b28fd0923e48cadc1c3bf74d524558f5dd32 Fe
   COPYR  = (c) Copyright 02Aug2007 Georg Kresse                                
   COPYR  = This file is part of the software VASP. Any use, copying, and all ot
   COPYR  = If you do not have a valid VASP license, you may not use, copy or di
   VRHFIN =Fe:  3pd7s1                                                          
   LEXCH  = PE                                                                  
   EATOM  =  2457.4239 eV,  180.6156 Ry                                         
                                                                                
   TITEL  = PAW_PBE Fe_pv 02Aug2007                                             
   LULTRA =        F    use ultrasoft PP ?                                      
   IUNSCR =        1    unscreen: 0-lin 1-nonlin 2-no                           
   RPACOR =    1.750    partial core radius                                     
   POMASS =   55.847; ZVAL   =   14.000    mass and valenz                      
   RCORE  =    2.200    outmost cutoff radius                                   
   RWIGS  =    2.200; RWIGS  =    1.164    wigner-seitz radius (au A)           
   ENMAX  =  293.238; ENMIN  =  219.928 eV                                      
   ICORE  =        3    local potential                                         
   LCOR   =        T    correct aug charges                                     
   LPAW   =        T    paw PP                                                  
   EAUG   =  578.342                                                            
   DEXC   =    0.000                                                            
   RMAX   =    2.249    core radius for proj-oper                               
   RAUG   =    1.300    factor for augmentation sphere                          
   RDEP   =    2.296    radius for radial grids                                 
   RDEPT  =    1.766    core radius for aug-charge                              
                                                                                
   Atomic configuration                                                         
    8 entries                                                                   
     n  l   j            E        occ.                                          
     1  0  0.50     -6993.8440   2.0000                                         
     2  0  0.50      -814.6047   2.0000                                         
     2  1  1.50      -693.3689   6.0000                                         
     3  0  0.50       -89.4732   2.0000                                         
     3  1  1.50       -55.6373   6.0000                                         
     3  2  2.50        -3.8151   7.0000                                         
     4  0  0.50        -4.2551   1.0000                                         
     4  3  2.50        -1.3606   0.0000                                         
   Description                                                                  
     l       E           TYP  RCUT    TYP  RCUT                                 
     1    -55.6372668     23  2.000                                             
     1     -5.4423304     23  2.000                                             
     2     -3.8151096     23  2.200                                             
     2     -5.1756922     23  2.200                                             
     0     -4.2550951     23  2.200                                             
     0     27.2116520     23  2.200                                             
     3     -1.3605826     23  2.200                                             
  local pseudopotential read in
  partial core-charges read in
  partial kinetic energy density read in
  atomic valenz-charges read in
  non local Contribution for L=           1  read in
    real space projection operators read in
  non local Contribution for L=           1  read in
    real space projection operators read in
  non local Contribution for L=           2  read in
    real space projection operators read in
  non local Contribution for L=           2  read in
    real space projection operators read in
  non local Contribution for L=           0  read in
    real space projection operators read in
  non local Contribution for L=           0  read in
    real space projection operators read in
    PAW grid and wavefunctions read in
 
   number of l-projection  operators is LMAX  =           6
   number of lm-projection operators is LMMAX =          18
 

 ----------------------------------------------------------------------------- 
|                                                                             |
|  ADVICE TO THIS USER RUNNING 'VASP/VAMP'   (HEAR YOUR MASTER'S VOICE ...):  |
|                                                                             |
|      You enforced a specific xc-type in the INCAR file,                     |
|      a different type was found on the POTCAR file                          |
|          I HOPE YOU KNOW, WHAT YOU ARE  DOING                               |
|                                                                             |
 ----------------------------------------------------------------------------- 

  PAW_PBE S 06Sep2000                   :
 energy of atom  1       EATOM= -276.8230
 kinetic energy error for atom=    0.0007 (will be added to EATOM!!)
   PAW_PBE Cu_pv 06Sep2000              :
 energy of atom  2       EATOM=-4120.1201
 kinetic energy error for atom=    0.0094 (will be added to EATOM!!)
   PAW_PBE Fe_pv 02Aug2007              :
 energy of atom  3       EATOM=-2457.4239
 kinetic energy error for atom=    0.0025 (will be added to EATOM!!)
 
 
 POSCAR: sm_isp_SD0310437-standardized_unitcell  
  positions in direct lattice
  velocities in cartesian coordinates
 exchange correlation table for  LEXCH =       14
   RHO(1)=    0.500       N(1)  =     2000
   RHO(2)=  100.500       N(2)  =     4000
 


--------------------------------------------------------------------------------------------------------


 ion  position               nearest neighbor table
   1  0.252  0.250  0.125-  10 2.27  11 2.27  13 2.28  16 2.28
   2  0.748  0.750  0.125-  10 2.27  11 2.27  13 2.28  16 2.28
   3  0.250  0.748  0.875-  11 2.27  12 2.27  13 2.28  14 2.28
   4  0.750  0.252  0.875-  11 2.27  12 2.27  13 2.28  14 2.28
   5  0.248  0.250  0.625-   9 2.27  12 2.27  14 2.28  15 2.28
   6  0.752  0.750  0.625-   9 2.27  12 2.27  14 2.28  15 2.28
   7  0.750  0.248  0.375-   9 2.27  10 2.27  15 2.28  16 2.28
   8  0.250  0.752  0.375-   9 2.27  10 2.27  15 2.28  16 2.28
   9  0.000  0.000  0.500-   7 2.27   5 2.27   6 2.27   8 2.27
  10  0.500  0.000  0.250-   7 2.27   1 2.27   2 2.27   8 2.27
  11  0.500  0.500  0.000-   1 2.27   4 2.27   3 2.27   2 2.27
  12  0.000  0.500  0.750-   5 2.27   4 2.27   3 2.27   6 2.27
  13  0.000  0.000  0.000-   2 2.28   3 2.28   1 2.28   4 2.28
  14  0.500  0.000  0.750-   3 2.28   6 2.28   4 2.28   5 2.28
  15  0.500  0.500  0.500-   6 2.28   8 2.28   7 2.28   5 2.28
  16  0.000  0.500  0.250-   2 2.28   8 2.28   1 2.28   7 2.28
 
  LATTYP: Found a simple tetragonal cell.
 ALAT       =     5.3113735121
 C/A-ratio  =     1.9312583647
  
  Lattice vectors:
  
 A1 = (   5.3113735121,   0.0000000000,   0.0000000000)
 A2 = (   0.0000000000,   5.3113735121,   0.0000000000)
 A3 = (   0.0000000000,   0.0000000000,  10.2576345232)


Analysis of symmetry for initial positions (statically):
=====================================================================
 Subroutine PRICEL returns following result:
 
  LATTYP: Found a body centered tetragonal cell.
 ALAT       =     5.3113735121
 C/A-ratio  =     1.9312583647
  
  Lattice vectors:
  
 A1 = (   2.6556867560,  -2.6556867560,   5.1288172616)
 A2 = (  -2.6556867560,   2.6556867560,   5.1288172616)
 A3 = (  -2.6556867560,  -2.6556867560,  -5.1288172616)
 
   2 primitive cells build up your supercell.
 

 Routine SETGRP: Setting up the symmetry group for a 
 simple tetragonal supercell.


 Subroutine GETGRP returns: Found  8 space group operations
 (whereof  4 operations were pure point group operations)
 out of a pool of 16 trial point group operations.


The static configuration has the point symmetry S_4 .
 The point group associated with its full space group is D_2d.


Analysis of symmetry for dynamics (positions and initial velocities):
=====================================================================
 Subroutine PRICEL returns following result:
 
  LATTYP: Found a body centered tetragonal cell.
 ALAT       =     5.3113735121
 C/A-ratio  =     1.9312583647
  
  Lattice vectors:
  
 A1 = (   2.6556867560,  -2.6556867560,   5.1288172616)
 A2 = (  -2.6556867560,   2.6556867560,   5.1288172616)
 A3 = (  -2.6556867560,  -2.6556867560,  -5.1288172616)
 
   2 primitive cells build up your supercell.
 

 Routine SETGRP: Setting up the symmetry group for a 
 simple tetragonal supercell.


 Subroutine GETGRP returns: Found  8 space group operations
 (whereof  4 operations were pure point group operations)
 out of a pool of 16 trial point group operations.


The dynamic configuration has the point symmetry S_4 .
 The point group associated with its full space group is D_2d.


Analysis of structural, dynamic, and magnetic symmetry:
=====================================================================
 Subroutine PRICEL returns following result:
 
  LATTYP: Found a body centered tetragonal cell.
 ALAT       =     5.3113735121
 C/A-ratio  =     1.9312583647
  
  Lattice vectors:
  
 A1 = (   2.6556867560,  -2.6556867560,   5.1288172616)
 A2 = (  -2.6556867560,   2.6556867560,   5.1288172616)
 A3 = (  -2.6556867560,  -2.6556867560,  -5.1288172616)
 
   2 primitive cells build up your supercell.
 

 Routine SETGRP: Setting up the symmetry group for a 
 simple tetragonal supercell.


 Subroutine GETGRP returns: Found  8 space group operations
 (whereof  4 operations were pure point group operations)
 out of a pool of 16 trial point group operations.


The (compounded) configuration has the point symmetry S_4 .
 The point group associated with its full space group is D_2d.


 Subroutine INISYM returns: Found  8 space group operations
 (whereof  4 operations are pure point group operations),
 and found     2 'primitive' translations

 
 
 KPOINTS: Automatic mesh                          

Automatic generation of k-mesh.
Space group operators:
 irot       det(A)        alpha          n_x          n_y          n_z        tau_x        tau_y        tau_z
    1     1.000000     0.000000     1.000000     0.000000     0.000000     0.000000     0.000000     0.000000
    2    -1.000000    90.000000     0.000000     0.000000    -1.000000     0.000000     0.000000     0.000000
    3     1.000000   180.000000     0.000000     0.000000     1.000000     0.000000     0.000000     0.000000
    4    -1.000000    90.000000     0.000000     0.000000     1.000000     0.000000     0.000000     0.000000
    5     1.000000   180.000000     0.000000     1.000000     0.000000     0.000000    -0.500000     0.250000
    6    -1.000000   180.000000     0.707107     0.707107     0.000000     0.000000    -0.500000     0.250000
    7     1.000000   180.000000     1.000000     0.000000     0.000000     0.000000    -0.500000     0.250000
    8    -1.000000   180.000000     0.707107    -0.707107     0.000000     0.000000    -0.500000     0.250000
 
 Subroutine IBZKPT returns following result:
 ===========================================
 
 Found     23 irreducible k-points:
 
 Following reciprocal coordinates:
            Coordinates               Weight
  0.000000  0.000000  0.000000      1.000000
  0.166667  0.000000  0.000000      4.000000
  0.333333  0.000000  0.000000      4.000000
  0.500000  0.000000  0.000000      2.000000
  0.166667  0.166667  0.000000      4.000000
  0.333333  0.166667  0.000000      8.000000
  0.500000  0.166667  0.000000      4.000000
  0.333333  0.333333  0.000000      4.000000
  0.500000  0.333333  0.000000      4.000000
  0.500000  0.500000  0.000000      1.000000
  0.000000  0.000000  0.333333      2.000000
  0.166667  0.000000  0.333333      8.000000
  0.333333  0.000000  0.333333      8.000000
  0.500000  0.000000  0.333333      4.000000
  0.166667  0.166667  0.333333      4.000000
  0.333333  0.166667  0.333333      8.000000
  0.500000  0.166667  0.333333      8.000000
 -0.333333  0.166667  0.333333      8.000000
 -0.166667  0.166667  0.333333      4.000000
  0.333333  0.333333  0.333333      4.000000
  0.500000  0.333333  0.333333      8.000000
 -0.333333  0.333333  0.333333      4.000000
  0.500000  0.500000  0.333333      2.000000
 
 Following cartesian coordinates:
            Coordinates               Weight
  0.000000  0.000000  0.000000      1.000000
  0.031379  0.000000  0.000000      4.000000
  0.062758  0.000000  0.000000      4.000000
  0.094138  0.000000  0.000000      2.000000
  0.031379  0.031379  0.000000      4.000000
  0.062758  0.031379  0.000000      8.000000
  0.094138  0.031379  0.000000      4.000000
  0.062758  0.062758  0.000000      4.000000
  0.094138  0.062758  0.000000      4.000000
  0.094138  0.094138  0.000000      1.000000
  0.000000  0.000000  0.032496      2.000000
  0.031379  0.000000  0.032496      8.000000
  0.062758  0.000000  0.032496      8.000000
  0.094138  0.000000  0.032496      4.000000
  0.031379  0.031379  0.032496      4.000000
  0.062758  0.031379  0.032496      8.000000
  0.094138  0.031379  0.032496      8.000000
 -0.062758  0.031379  0.032496      8.000000
 -0.031379  0.031379  0.032496      4.000000
  0.062758  0.062758  0.032496      4.000000
  0.094138  0.062758  0.032496      8.000000
 -0.062758  0.062758  0.032496      4.000000
  0.094138  0.094138  0.032496      2.000000
 
 TETIRR: Found    274 inequivalent tetrahedra from      648


--------------------------------------------------------------------------------------------------------




 Dimension of arrays:
   k-points           NKPTS =     23   k-points in BZ     NKDIM =     23   number of bands    NBANDS=    208
   number of dos      NEDOS =    301   number of ions     NIONS =     16
   non local maximal  LDIM  =      6   non local SUM 2l+1 LMDIM =     18
   total plane-waves  NPLWV = 207360
   max r-space proj   IRMAX =      1   max aug-charges    IRDMAX=  22773
   dimension x,y,z NGX =    48 NGY =   48 NGZ =   90
   dimension x,y,z NGXF=    96 NGYF=   96 NGZF=  180
   support grid    NGXF=    96 NGYF=   96 NGZF=  180
   ions per type =               8   4   4
   NGX,Y,Z   is equivalent  to a cutoff of  15.02, 15.02, 14.59 a.u.
   NGXF,Y,Z  is equivalent  to a cutoff of  30.05, 30.05, 29.17 a.u.

 SYSTEM =  CuFeS2                                  
 POSCAR =  sm_isp_SD0310437-standardized_unitcell  

 Startparameter for this run:
   NWRITE =      2    write-flag & timer
   PREC   = accura    normal or accurate (medium, high low for compatibility)
   ISTART =      1    job   : 0-new  1-cont  2-samecut
   ICHARG =      1    charge: 1-file 2-atom 10-const
   ISPIN  =      1    spin polarized calculation?
   LNONCOLLINEAR =      T non collinear calculations
   LSORBIT =      F    spin-orbit coupling
   INIWAV =      1    electr: 0-lowe 1-rand  2-diag
   LASPH  =      T    aspherical Exc in radial PAW
   METAGGA=      F    non-selfconsistent MetaGGA calc.

 Electronic Relaxation 1
   ENCUT  =  700.0 eV  51.45 Ry    7.17 a.u.  11.46 11.46 22.13*2*pi/ulx,y,z
   ENINI  =  700.0     initial cutoff
   ENAUG  =  758.2 eV  augmentation charge cutoff
   NELM   =    200;   NELMIN=  2; NELMDL=  0     # of ELM steps 
   EDIFF  = 0.1E-07   stopping-criterion for ELM
   LREAL  =      F    real-space projection
   NLSPLINE    = F    spline interpolate recip. space projectors
   LCOMPAT=      F    compatible to vasp.4.4
   GGA_COMPAT  = T    GGA compatible to vasp.4.4-vasp.4.6
   LMAXPAW     = -100 max onsite density
   LMAXMIX     =    4 max onsite mixed and CHGCAR
   VOSKOWN=      0    Vosko Wilk Nusair interpolation
   ROPT   =    0.00000   0.00000   0.00000
 Ionic relaxation
   EDIFFG = -.1E-04   stopping-criterion for IOM
   NSW    =      0    number of steps for IOM
   NBLOCK =      1;   KBLOCK =      1    inner block; outer block 
   IBRION =     -1    ionic relax: 0-MD 1-quasi-New 2-CG
   NFREE  =      0    steps in history (QN), initial steepest desc. (CG)
   ISIF   =      2    stress and relaxation
   IWAVPR =     10    prediction:  0-non 1-charg 2-wave 3-comb
   ISYM   =      1    0-nonsym 1-usesym 2-fastsym
   LCORR  =      T    Harris-Foulkes like correction to forces

   POTIM  = 0.1000    time-step for ionic-motion
   TEIN   =    0.0    initial temperature
   TEBEG  =    0.0;   TEEND  =   0.0 temperature during run
   SMASS  =  -3.00    Nose mass-parameter (am)
   estimated Nose-frequenzy (Omega)   =  0.10E-29 period in steps =****** mass=  -0.645E-27a.u.
   SCALEE = 1.0000    scale energy and forces
   NPACO  =    256;   APACO  = 16.0  distance and # of slots for P.C.
   PSTRESS=    0.0 pullay stress

  Mass of Ions in am
   POMASS =  32.07 63.55 55.85
  Ionic Valenz
   ZVAL   =   6.00 17.00 14.00
  Atomic Wigner-Seitz radii
   RWIGS  =  -1.00 -1.00 -1.00
  virtual crystal weights 
   VCA    =   1.00  1.00  1.00
   NELECT =     172.0000    total number of electrons
   NUPDOWN=      -1.0000    fix difference up-down

 DOS related values:
   EMIN   =  10.00;   EMAX   =-10.00  energy-range for DOS
   EFERMI =   0.00
   ISMEAR =    -5;   SIGMA  =   0.03  broadening in eV -4-tet -1-fermi 0-gaus

 Electronic relaxation 2 (details)
   IALGO  =     58    algorithm
   LDIAG  =      T    sub-space diagonalisation (order eigenvalues)
   LSUBROT=      F    optimize rotation matrix (better conditioning)
   TURBO    =      0    0=normal 1=particle mesh
   IRESTART =      0    0=no restart 2=restart with 2 vectors
   NREBOOT  =      0    no. of reboots
   NMIN     =      0    reboot dimension
   EREF     =   0.00    reference energy to select bands
   IMIX   =      4    mixing-type and parameters
     AMIX     =   0.40;   BMIX     =  1.00
     AMIX_MAG =   1.60;   BMIX_MAG =  1.00
     AMIN     =   0.10
     WC   =   100.;   INIMIX=   1;  MIXPRE=   1;  MAXMIX= -45

 Intra band minimization:
   WEIMIN = 0.0000     energy-eigenvalue tresh-hold
   EBREAK =  0.12E-10  absolut break condition
   DEPER  =   0.30     relativ break condition  

   TIME   =   0.40     timestep for ELM

  volume/ion in A,a.u.               =      18.09       122.05
  Fermi-wavevector in a.u.,A,eV,Ry     =   1.376461  2.601135 25.778220  1.894646
  Thomas-Fermi vector in A             =   2.501704
 
 Write flags
   LWAVE        =      T    write WAVECAR
   LDOWNSAMPLE  =      F    k-point downsampling of WAVECAR
   LCHARG       =      T    write CHGCAR
   LVTOT        =      F    write LOCPOT, total local potential
   LVHAR        =      F    write LOCPOT, Hartree potential only
   LELF         =      F    write electronic localiz. function (ELF)
   LORBIT       =     11    0 simple, 1 ext, 2 COOP (PROOUT), +10 PAW based schemes


 Dipole corrections
   LMONO  =      F    monopole corrections only (constant potential shift)
   LDIPOL =      F    correct potential (dipole corrections)
   IDIPOL =      0    1-x, 2-y, 3-z, 4-all directions 
   EPSILON=  1.0000000 bulk dielectric constant

 LDA+U is selected, type is set to LDAUTYPE =  2
   angular momentum for each species LDAUL =     2    2    2
   U (eV)           for each species LDAUU =   0.0  0.1  4.7
   J (eV)           for each species LDAUJ =   0.0  0.0  0.0
 Exchange correlation treatment:
   GGA     =    PS    GGA type
   LEXCH   =    14    internal setting for exchange type
   VOSKOWN=      0    Vosko Wilk Nusair interpolation
   LHFCALC =     F    Hartree Fock is set to
   LHFONE  =     F    Hartree Fock one center treatment
   AEXX    =    0.0000 exact exchange contribution

 Linear response parameters
   LEPSILON=     F    determine dielectric tensor
   LRPA    =     F    only Hartree local field effects (RPA)
   LNABLA  =     F    use nabla operator in PAW spheres
   LVEL    =     F    velocity operator in full k-point grid
   LINTERFAST=   F  fast interpolation
   KINTER  =     0    interpolate to denser k-point grid
   CSHIFT  =0.1000    complex shift for real part using Kramers Kronig
   OMEGAMAX=  -1.0    maximum frequency
   DEG_THRESHOLD= 0.2000000E-02 threshold for treating states as degnerate
   RTIME   =   -0.100 relaxation time in fs
  (WPLASMAI=    0.000 imaginary part of plasma frequency in eV, 0.658/RTIME)
   DFIELD  = 0.0000000 0.0000000 0.0000000 field for delta impulse in time
 
 Orbital magnetization related:
   ORBITALMAG=     F  switch on orbital magnetization
   LCHIMAG   =     F  perturbation theory with respect to B field
   DQ        =  0.001000  dq finite difference perturbation B field
   LLRAUG    =     F  two centre corrections for induced B field



--------------------------------------------------------------------------------------------------------


 Static calculation
 charge density and potential will be updated during run
 non collinear spin polarized calculation
 Conjugate gradient for all bands (Freysoldt, et al. PRB 79, 241103 (2009))
 preconditioned conjugated gradient                                        
 perform sub-space diagonalisation
    before iterative eigenvector-optimisation
 modified Broyden-mixing scheme, WC =      100.0
 initial mixing is a Kerker type mixing with AMIX =  0.4000 and BMIX =      1.0000
 Hartree-type preconditioning will be used
 using additional bands          122
 reciprocal scheme for non local part
 use partial core corrections
 no Harris-corrections to forces 
 use gradient corrections 
 use of overlap-Matrix (Vanderbilt PP)
 Fermi weights with tetrahedron method with Bloechl corrections


--------------------------------------------------------------------------------------------------------


  energy-cutoff  :      700.00
  volume of cell :      289.37
      direct lattice vectors                 reciprocal lattice vectors
     5.311373512  0.000000000  0.000000000     0.188275217  0.000000000  0.000000000
     0.000000000  5.311373512  0.000000000     0.000000000  0.188275217  0.000000000
     0.000000000  0.000000000 10.257634523     0.000000000  0.000000000  0.097488363

  length of vectors
     5.311373512  5.311373512 10.257634523     0.188275217  0.188275217  0.097488363


 
 old parameters found on file WAVECAR:
  energy-cutoff  :      700.00
  volume of cell :      289.41
      direct lattice vectors                 reciprocal lattice vectors
     5.311373512  0.000000000  0.000000000     0.188275217  0.000000000  0.000000000
     0.000000000  5.311373512  0.000000000     0.000000000  0.188275217  0.000000000
     0.000000000  0.000000000 10.258961699     0.000000000  0.000000000  0.097475751

  length of vectors

 
 k-points in units of 2pi/SCALE and weight: Automatic mesh                          
   0.00000000  0.00000000  0.00000000       0.009
   0.03137920  0.00000000  0.00000000       0.037
   0.06275841  0.00000000  0.00000000       0.037
   0.09413761  0.00000000  0.00000000       0.019
   0.03137920  0.03137920  0.00000000       0.037
   0.06275841  0.03137920  0.00000000       0.074
   0.09413761  0.03137920  0.00000000       0.037
   0.06275841  0.06275841  0.00000000       0.037
   0.09413761  0.06275841  0.00000000       0.037
   0.09413761  0.09413761  0.00000000       0.009
   0.00000000  0.00000000  0.03249612       0.019
   0.03137920  0.00000000  0.03249612       0.074
   0.06275841  0.00000000  0.03249612       0.074
   0.09413761  0.00000000  0.03249612       0.037
   0.03137920  0.03137920  0.03249612       0.037
   0.06275841  0.03137920  0.03249612       0.074
   0.09413761  0.03137920  0.03249612       0.074
  -0.06275841  0.03137920  0.03249612       0.074
  -0.03137920  0.03137920  0.03249612       0.037
   0.06275841  0.06275841  0.03249612       0.037
   0.09413761  0.06275841  0.03249612       0.074
  -0.06275841  0.06275841  0.03249612       0.037
   0.09413761  0.09413761  0.03249612       0.019
 
 k-points in reciprocal lattice and weights: Automatic mesh                          
   0.00000000  0.00000000  0.00000000       0.009
   0.16666667  0.00000000  0.00000000       0.037
   0.33333333  0.00000000  0.00000000       0.037
   0.50000000  0.00000000  0.00000000       0.019
   0.16666667  0.16666667  0.00000000       0.037
   0.33333333  0.16666667  0.00000000       0.074
   0.50000000  0.16666667  0.00000000       0.037
   0.33333333  0.33333333  0.00000000       0.037
   0.50000000  0.33333333  0.00000000       0.037
   0.50000000  0.50000000  0.00000000       0.009
   0.00000000  0.00000000  0.33333333       0.019
   0.16666667  0.00000000  0.33333333       0.074
   0.33333333  0.00000000  0.33333333       0.074
   0.50000000  0.00000000  0.33333333       0.037
   0.16666667  0.16666667  0.33333333       0.037
   0.33333333  0.16666667  0.33333333       0.074
   0.50000000  0.16666667  0.33333333       0.074
  -0.33333333  0.16666667  0.33333333       0.074
  -0.16666667  0.16666667  0.33333333       0.037
   0.33333333  0.33333333  0.33333333       0.037
   0.50000000  0.33333333  0.33333333       0.074
  -0.33333333  0.33333333  0.33333333       0.037
   0.50000000  0.50000000  0.33333333       0.019
 
 position of ions in fractional coordinates (direct lattice) 
   0.25213726  0.25000000  0.12500000
   0.74786277  0.75000000  0.12500000
   0.25000000  0.74786277  0.87500000
   0.75000000  0.25213726  0.87500000
   0.24786274  0.25000000  0.62500000
   0.75213723  0.75000000  0.62500000
   0.75000000  0.24786274  0.37500000
   0.25000000  0.75213723  0.37500000
   0.00000000  0.00000000  0.50000000
   0.50000000  0.00000000  0.25000000
   0.50000000  0.50000000  0.00000000
   0.00000000  0.50000000  0.75000000
   0.00000000  0.00000000  0.00000000
   0.50000000  0.00000000  0.75000000
   0.50000000  0.50000000  0.50000000
   0.00000000  0.50000000  0.25000000
 
 position of ions in cartesian coordinates  (Angst):
   1.33919516  1.32784338  1.28220432
   3.97217851  3.98353013  1.28220432
   1.32784338  3.97217851  8.97543021
   3.98353013  1.33919516  8.97543021
   1.31649160  1.32784338  6.41102158
   3.99488176  3.98353013  6.41102158
   3.98353013  1.31649160  3.84661295
   1.32784338  3.99488176  3.84661295
   0.00000000  0.00000000  5.12881726
   2.65568676  0.00000000  2.56440863
   2.65568676  2.65568676  0.00000000
   0.00000000  2.65568676  7.69322589
   0.00000000  0.00000000  0.00000000
   2.65568676  0.00000000  7.69322589
   2.65568676  2.65568676  5.12881726
   0.00000000  2.65568676  2.56440863
 
 Euler angles ALPHA=     0.0000000  BETA=     0.0000000

 transformation matrix from SAXIS to cartesian coordinates
 ---------------------------------------------------------
     1.0000000 m_x     0.0000000 m_y     0.0000000 m_z
     0.0000000 m_x     1.0000000 m_y     0.0000000 m_z
     0.0000000 m_x     0.0000000 m_y     1.0000000 m_z

 transformation matrix from cartesian coordinates to SAXIS
 ---------------------------------------------------------
     1.0000000 m_x     0.0000000 m_y     0.0000000 m_z
     0.0000000 m_x     1.0000000 m_y     0.0000000 m_z
     0.0000000 m_x     0.0000000 m_y     1.0000000 m_z




--------------------------------------------------------------------------------------------------------


 k-point  1 :   0.0000 0.0000 0.0000  plane waves:   24418
 k-point  2 :   0.1667 0.0000 0.0000  plane waves:   24350
 k-point  3 :   0.3333 0.0000 0.0000  plane waves:   24354
 k-point  4 :   0.5000 0.0000 0.0000  plane waves:   24276
 k-point  5 :   0.1667 0.1667 0.0000  plane waves:   24388
 k-point  6 :   0.3333 0.1667 0.0000  plane waves:   24358
 k-point  7 :   0.5000 0.1667 0.0000  plane waves:   24340
 k-point  8 :   0.3333 0.3333 0.0000  plane waves:   24288
 k-point  9 :   0.5000 0.3333 0.0000  plane waves:   24300
 k-point 10 :   0.5000 0.5000 0.0000  plane waves:   24336
 k-point 11 :   0.0000 0.0000 0.3333  plane waves:   24440
 k-point 12 :   0.1667 0.0000 0.3333  plane waves:   24394
 k-point 13 :   0.3333 0.0000 0.3333  plane waves:   24360
 k-point 14 :   0.5000 0.0000 0.3333  plane waves:   24344
 k-point 15 :   0.1667 0.1667 0.3333  plane waves:   24356
 k-point 16 :   0.3333 0.1667 0.3333  plane waves:   24354
 k-point 17 :   0.5000 0.1667 0.3333  plane waves:   24332
 k-point 18 :  -0.3333 0.1667 0.3333  plane waves:   24354
 k-point 19 :  -0.1667 0.1667 0.3333  plane waves:   24356
 k-point 20 :   0.3333 0.3333 0.3333  plane waves:   24332
 k-point 21 :   0.5000 0.3333 0.3333  plane waves:   24288
 k-point 22 :  -0.3333 0.3333 0.3333  plane waves:   24332
 k-point 23 :   0.5000 0.5000 0.3333  plane waves:   24288

 maximum and minimum number of plane-waves per node :       796      710

 maximum number of plane-waves:     24440
 maximum index in each direction: 
   IXMAX=   11   IYMAX=   11   IZMAX=   22
   IXMIN=  -11   IYMIN=  -11   IZMIN=  -22


 parallel 3D FFT for wavefunctions:
    minimum data exchange during FFTs selected (reduces bandwidth)
 parallel 3D FFT for charge:
    minimum data exchange during FFTs selected (reduces bandwidth)


 total amount of memory used by VASP MPI-rank0    65368. kBytes
=======================================================================

   base      :      30000. kBytes
   nonl-proj :       4076. kBytes
   fftplans  :       1362. kBytes
   grid      :       5529. kBytes
   one-center:         62. kBytes
   wavefun   :      24339. kBytes
 
     INWAV:  cpu time    5.6839: real time    5.8468
 Broyden mixing: mesh for mixing (old mesh)
   NGX = 23   NGY = 23   NGZ = 45
  (NGX  = 96   NGY  = 96   NGZ  =180)
  gives a total of  23805 points

 initial charge density was supplied:
 number of electron     171.9999981 magnetization       0.0000000     -0.0000000      0.0000000
 charge density for first step will be calculated from the start-wavefunctions


--------------------------------------------------------------------------------------------------------


 BZINTS: Fermi energy:  4.744870;172.000000 electrons
         Band energy:***********;  BLOECHL correction:  0.000000
 Maximum index for augmentation-charges          899 (set IRDMAX)


--------------------------------------------------------------------------------------------------------


 initial charge from wavefunction
 First call to EWALD:  gamma=   0.268
 Maximum number of real-space cells 3x 3x 2
 Maximum number of reciprocal cells 2x 2x 4

    FEWALD:  cpu time    0.0106: real time    0.0106

 ----------------------------------------------------------------------------- 
|                                                                             |
|           W    W    AA    RRRRR   N    N  II  N    N   GGGG   !!!           |
|           W    W   A  A   R    R  NN   N  II  NN   N  G    G  !!!           |
|           W    W  A    A  R    R  N N  N  II  N N  N  G       !!!           |
|           W WW W  AAAAAA  RRRRR   N  N N  II  N  N N  G  GGG   !            |
|           WW  WW  A    A  R   R   N   NN  II  N   NN  G    G                |
|           W    W  A    A  R    R  N    N  II  N    N   GGGG   !!!           |
|                                                                             |
|      ALGO=A and IALGO=5X tend to fail with the tetrahedron method           |
|      (e.g. Bloechls method ISMEAR=-5 is not variational)                    |
|      please switch to IMSEAR=0-n, except for DOS calculations               |
|      For DOS calculations use IALGO=53 after preconverging with ISMEAR>=0   |
|          I HOPE YOU KNOW, WHAT YOU ARE  DOING                               |
|                                                                             |
 ----------------------------------------------------------------------------- 



--------------------------------------- Iteration      1(   1)  ---------------------------------------


    POTLOK:  cpu time    0.1093: real time    0.1093
    SETDIJ:  cpu time    0.6322: real time    0.6323
    TRIAL :  cpu time    4.1994: real time    4.2118
 BZINTS: Fermi energy:  4.744871;172.000000 electrons
         Band energy:***********;  BLOECHL correction:  0.000000
 BZINTS: Fermi energy:  4.744870;172.000000 electrons
         Band energy:***********;  BLOECHL correction:  0.000000
    CORREC:  cpu time    3.2595: real time    3.2622
    CHARGE:  cpu time    1.0372: real time    1.0374
    --------------------------------------------
      LOOP:  cpu time    9.2458: real time    9.3183

 eigenvalue-minimisations  :     0
 total energy-change (2. order) :-0.8205200E+02  (-0.4892615E-09)
 number of electron     171.9999981 magnetization       0.0000000      0.0000000      0.0000000
 augmentation part       70.5623780 magnetization       0.0000001      0.0000000     -0.0002689

 Free energy of the ion-electron system (eV)
  ---------------------------------------------------
  alpha Z        PSCENC =       585.56180804
  Ewald energy   TEWEN  =    -15587.73719658
  -Hartree energ DENC   =    -10757.05534333
  -exchange      EXHF   =         0.00000000
  -V(xc)+E(xc)   XCENC  =       821.43146619
  PAW double counting   =     28007.01705064   -28930.19323418
  entropy T*S    EENTRO =         0.00000000
  eigenvalues    EBANDS =     -2726.09282436
  atomic energy  EATOM  =     28505.01627691
  ---------------------------------------------------
  free energy    TOTEN  =       -82.05199667 eV

  energy without entropy =      -82.05199667  energy(sigma->0) =      -82.05199667


--------------------------------------------------------------------------------------------------------




--------------------------------------- Iteration      1(   2)  ---------------------------------------


    POTLOK:  cpu time    0.1034: real time    0.1034
    SETDIJ:  cpu time    0.6364: real time    0.6365
    TRIAL :  cpu time    2.8535: real time    2.8558
 BZINTS: Fermi energy:  4.744870;172.000000 electrons
         Band energy:***********;  BLOECHL correction:  0.000000
 BZINTS: Fermi energy:  4.744870;172.000000 electrons
         Band energy:***********;  BLOECHL correction:  0.000000
    CORREC:  cpu time    3.2553: real time    3.2578
    CHARGE:  cpu time    1.0393: real time    1.0396
    --------------------------------------------
      LOOP:  cpu time    7.9005: real time    7.9060

 eigenvalue-minimisations  :     0
 total energy-change (2. order) :-0.3597233E-07  (-0.4300794E-09)
 number of electron     171.9999981 magnetization       0.0000000      0.0000000     -0.0000000
 augmentation part       70.5623780 magnetization       0.0000001      0.0000000     -0.0002689

 Free energy of the ion-electron system (eV)
  ---------------------------------------------------
  alpha Z        PSCENC =       585.56180804
  Ewald energy   TEWEN  =    -15587.73719658
  -Hartree energ DENC   =    -10757.05534047
  -exchange      EXHF   =         0.00000000
  -V(xc)+E(xc)   XCENC  =       821.43146603
  PAW double counting   =     28007.01704028   -28930.19322373
  entropy T*S    EENTRO =         0.00000000
  eigenvalues    EBANDS =     -2726.09282719
  atomic energy  EATOM  =     28505.01627691
  ---------------------------------------------------
  free energy    TOTEN  =       -82.05199671 eV

  energy without entropy =      -82.05199671  energy(sigma->0) =      -82.05199671


--------------------------------------------------------------------------------------------------------




--------------------------------------- Iteration      1(   3)  ---------------------------------------


    POTLOK:  cpu time    0.1016: real time    0.1016
    SETDIJ:  cpu time    0.6358: real time    0.6359
    TRIAL :  cpu time    2.8639: real time    2.8663
 BZINTS: Fermi energy:  4.744870;172.000000 electrons
         Band energy:***********;  BLOECHL correction:  0.000000
 BZINTS: Fermi energy:  4.744870;172.000000 electrons
         Band energy:***********;  BLOECHL correction:  0.000000
    CORREC:  cpu time    3.2555: real time    3.2579
    CHARGE:  cpu time    1.0410: real time    1.0412
    --------------------------------------------
      LOOP:  cpu time    7.9072: real time    7.9159

 eigenvalue-minimisations  :     0
 total energy-change (2. order) :-0.3324749E-07  (-0.3814104E-09)
 number of electron     171.9999981 magnetization       0.0000000      0.0000000      0.0000000
 augmentation part       70.5623780 magnetization       0.0000001      0.0000000     -0.0002689

 Free energy of the ion-electron system (eV)
  ---------------------------------------------------
  alpha Z        PSCENC =       585.56180804
  Ewald energy   TEWEN  =    -15587.73719658
  -Hartree energ DENC   =    -10757.05533770
  -exchange      EXHF   =         0.00000000
  -V(xc)+E(xc)   XCENC  =       821.43146589
  PAW double counting   =     28007.01703035   -28930.19321369
  entropy T*S    EENTRO =         0.00000000
  eigenvalues    EBANDS =     -2726.09282996
  atomic energy  EATOM  =     28505.01627691
  ---------------------------------------------------
  free energy    TOTEN  =       -82.05199674 eV

  energy without entropy =      -82.05199674  energy(sigma->0) =      -82.05199674


--------------------------------------------------------------------------------------------------------




--------------------------------------- Iteration      1(   4)  ---------------------------------------


    POTLOK:  cpu time    0.1058: real time    0.1058
    SETDIJ:  cpu time    0.6343: real time    0.6344
    TRIAL :  cpu time    2.8489: real time    2.8514
 BZINTS: Fermi energy:  4.744870;172.000000 electrons
         Band energy:***********;  BLOECHL correction:  0.000000
 BZINTS: Fermi energy:  4.744870;172.000000 electrons
         Band energy:***********;  BLOECHL correction:  0.000000
    CORREC:  cpu time    3.2551: real time    3.2573
    CHARGE:  cpu time    1.0374: real time    1.0376
    --------------------------------------------
      LOOP:  cpu time    7.8918: real time    7.9002

 eigenvalue-minimisations  :     0
 total energy-change (2. order) :-0.3119931E-07  (-0.3396184E-09)
 number of electron     171.9999981 magnetization       0.0000000      0.0000000      0.0000000
 augmentation part       70.5623780 magnetization       0.0000001      0.0000000     -0.0002689

 Free energy of the ion-electron system (eV)
  ---------------------------------------------------
  alpha Z        PSCENC =       585.56180804
  Ewald energy   TEWEN  =    -15587.73719658
  -Hartree energ DENC   =    -10757.05533502
  -exchange      EXHF   =         0.00000000
  -V(xc)+E(xc)   XCENC  =       821.43146575
  PAW double counting   =     28007.01702083   -28930.19320403
  entropy T*S    EENTRO =         0.00000000
  eigenvalues    EBANDS =     -2726.09283267
  atomic energy  EATOM  =     28505.01627691
  ---------------------------------------------------
  free energy    TOTEN  =       -82.05199677 eV

  energy without entropy =      -82.05199677  energy(sigma->0) =      -82.05199677


--------------------------------------------------------------------------------------------------------




--------------------------------------- Iteration      1(   5)  ---------------------------------------


    POTLOK:  cpu time    0.1020: real time    0.1020
    SETDIJ:  cpu time    0.6372: real time    0.6374
    TRIAL :  cpu time    2.8440: real time    2.8464
 BZINTS: Fermi energy:  4.744870;172.000000 electrons
         Band energy:***********;  BLOECHL correction:  0.000000
 BZINTS: Fermi energy:  4.744870;172.000000 electrons
         Band energy:***********;  BLOECHL correction:  0.000000
    CORREC:  cpu time    3.2534: real time    3.2560
    CHARGE:  cpu time    1.0357: real time    1.0360
    --------------------------------------------
      LOOP:  cpu time    7.8832: real time    7.8922

 eigenvalue-minimisations  :     0
 total energy-change (2. order) :-0.2953857E-07  (-0.3022650E-09)
 number of electron     171.9999981 magnetization       0.0000000      0.0000000      0.0000000
 augmentation part       70.5623780 magnetization       0.0000001      0.0000000     -0.0002689

 Free energy of the ion-electron system (eV)
  ---------------------------------------------------
  alpha Z        PSCENC =       585.56180804
  Ewald energy   TEWEN  =    -15587.73719658
  -Hartree energ DENC   =    -10757.05533242
  -exchange      EXHF   =         0.00000000
  -V(xc)+E(xc)   XCENC  =       821.43146562
  PAW double counting   =     28007.01701169   -28930.19319475
  entropy T*S    EENTRO =         0.00000000
  eigenvalues    EBANDS =     -2726.09283530
  atomic energy  EATOM  =     28505.01627691
  ---------------------------------------------------
  free energy    TOTEN  =       -82.05199680 eV

  energy without entropy =      -82.05199680  energy(sigma->0) =      -82.05199680


--------------------------------------------------------------------------------------------------------




--------------------------------------- Iteration      1(   6)  ---------------------------------------


    POTLOK:  cpu time    0.1051: real time    0.1051
    SETDIJ:  cpu time    0.6345: real time    0.6347
    TRIAL :  cpu time    2.8576: real time    2.8600
 BZINTS: Fermi energy:  4.744870;172.000000 electrons
         Band energy:***********;  BLOECHL correction:  0.000000
 BZINTS: Fermi energy:  4.744870;172.000000 electrons
         Band energy:***********;  BLOECHL correction:  0.000000
    CORREC:  cpu time    3.2608: real time    3.2633
    CHARGE:  cpu time    1.0384: real time    1.0386
    --------------------------------------------
      LOOP:  cpu time    7.9076: real time    7.9162

 eigenvalue-minimisations  :     0
 total energy-change (2. order) :-0.2801062E-07  (-0.2680793E-09)
 number of electron     171.9999981 magnetization       0.0000000      0.0000000      0.0000000
 augmentation part       70.5623780 magnetization       0.0000001      0.0000000     -0.0002689

 Free energy of the ion-electron system (eV)
  ---------------------------------------------------
  alpha Z        PSCENC =       585.56180804
  Ewald energy   TEWEN  =    -15587.73719658
  -Hartree energ DENC   =    -10757.05532994
  -exchange      EXHF   =         0.00000000
  -V(xc)+E(xc)   XCENC  =       821.43146549
  PAW double counting   =     28007.01700294   -28930.19318586
  entropy T*S    EENTRO =         0.00000000
  eigenvalues    EBANDS =     -2726.09283783
  atomic energy  EATOM  =     28505.01627691
  ---------------------------------------------------
  free energy    TOTEN  =       -82.05199683 eV

  energy without entropy =      -82.05199683  energy(sigma->0) =      -82.05199683


--------------------------------------------------------------------------------------------------------




--------------------------------------- Iteration      1(   7)  ---------------------------------------


    POTLOK:  cpu time    0.1025: real time    0.1025
    SETDIJ:  cpu time    0.6346: real time    0.6348
    TRIAL :  cpu time    2.8540: real time    2.8564
 BZINTS: Fermi energy:  4.744870;172.000000 electrons
         Band energy:***********;  BLOECHL correction:  0.000000
 BZINTS: Fermi energy:  4.744870;172.000000 electrons
         Band energy:***********;  BLOECHL correction:  0.000000
    CORREC:  cpu time    3.2602: real time    3.2625
    CHARGE:  cpu time    1.0373: real time    1.0375
    --------------------------------------------
      LOOP:  cpu time    7.8997: real time    7.9084

 eigenvalue-minimisations  :     0
 total energy-change (2. order) :-0.2642446E-07  (-0.2367123E-09)
 number of electron     171.9999981 magnetization       0.0000000      0.0000000      0.0000000
 augmentation part       70.5623780 magnetization       0.0000001      0.0000000     -0.0002689

 Free energy of the ion-electron system (eV)
  ---------------------------------------------------
  alpha Z        PSCENC =       585.56180804
  Ewald energy   TEWEN  =    -15587.73719658
  -Hartree energ DENC   =    -10757.05532759
  -exchange      EXHF   =         0.00000000
  -V(xc)+E(xc)   XCENC  =       821.43146537
  PAW double counting   =     28007.01699464   -28930.19317740
  entropy T*S    EENTRO =         0.00000000
  eigenvalues    EBANDS =     -2726.09284024
  atomic energy  EATOM  =     28505.01627691
  ---------------------------------------------------
  free energy    TOTEN  =       -82.05199686 eV

  energy without entropy =      -82.05199686  energy(sigma->0) =      -82.05199686


--------------------------------------------------------------------------------------------------------




--------------------------------------- Iteration      1(   8)  ---------------------------------------


    POTLOK:  cpu time    0.1017: real time    0.1017
    SETDIJ:  cpu time    0.6365: real time    0.6365
    TRIAL :  cpu time    2.8553: real time    2.8579
 BZINTS: Fermi energy:  4.744870;172.000000 electrons
         Band energy:***********;  BLOECHL correction:  0.000000
 BZINTS: Fermi energy:  4.744870;172.000000 electrons
         Band energy:***********;  BLOECHL correction:  0.000000
    CORREC:  cpu time    3.2499: real time    3.2522
    CHARGE:  cpu time    1.0397: real time    1.0399
    --------------------------------------------
      LOOP:  cpu time    7.8947: real time    7.9028

 eigenvalue-minimisations  :     0
 total energy-change (2. order) :-0.2506567E-07  (-0.2080838E-09)
 number of electron     171.9999981 magnetization       0.0000000      0.0000000     -0.0000000
 augmentation part       70.5623780 magnetization       0.0000001      0.0000000     -0.0002689

 Free energy of the ion-electron system (eV)
  ---------------------------------------------------
  alpha Z        PSCENC =       585.56180804
  Ewald energy   TEWEN  =    -15587.73719658
  -Hartree energ DENC   =    -10757.05532537
  -exchange      EXHF   =         0.00000000
  -V(xc)+E(xc)   XCENC  =       821.43146525
  PAW double counting   =     28007.01698681   -28930.19316943
  entropy T*S    EENTRO =         0.00000000
  eigenvalues    EBANDS =     -2726.09284251
  atomic energy  EATOM  =     28505.01627691
  ---------------------------------------------------
  free energy    TOTEN  =       -82.05199688 eV

  energy without entropy =      -82.05199688  energy(sigma->0) =      -82.05199688


--------------------------------------------------------------------------------------------------------




--------------------------------------- Iteration      1(   9)  ---------------------------------------


    POTLOK:  cpu time    0.1035: real time    0.1035
    SETDIJ:  cpu time    0.6361: real time    0.6363
    TRIAL :  cpu time    2.8594: real time    2.8618
 BZINTS: Fermi energy:  4.744870;172.000000 electrons
         Band energy:***********;  BLOECHL correction:  0.000000
 BZINTS: Fermi energy:  4.744870;172.000000 electrons
         Band energy:***********;  BLOECHL correction:  0.000000
    CORREC:  cpu time    3.2561: real time    3.2587
    CHARGE:  cpu time    1.0421: real time    1.0423
    --------------------------------------------
      LOOP:  cpu time    7.9096: real time    7.9163

 eigenvalue-minimisations  :     0
 total energy-change (2. order) :-0.2369597E-07  (-0.1827603E-09)
 number of electron     171.9999981 magnetization       0.0000000      0.0000000      0.0000000
 augmentation part       70.5623780 magnetization       0.0000001      0.0000000     -0.0002689

 Free energy of the ion-electron system (eV)
  ---------------------------------------------------
  alpha Z        PSCENC =       585.56180804
  Ewald energy   TEWEN  =    -15587.73719658
  -Hartree energ DENC   =    -10757.05532331
  -exchange      EXHF   =         0.00000000
  -V(xc)+E(xc)   XCENC  =       821.43146514
  PAW double counting   =     28007.01697948   -28930.19316196
  entropy T*S    EENTRO =         0.00000000
  eigenvalues    EBANDS =     -2726.09284463
  atomic energy  EATOM  =     28505.01627691
  ---------------------------------------------------
  free energy    TOTEN  =       -82.05199691 eV

  energy without entropy =      -82.05199691  energy(sigma->0) =      -82.05199691


--------------------------------------------------------------------------------------------------------




--------------------------------------- Iteration      1(  10)  ---------------------------------------


    POTLOK:  cpu time    0.1029: real time    0.1029
    SETDIJ:  cpu time    0.6359: real time    0.6360
    TRIAL :  cpu time    2.8521: real time    2.8546
 BZINTS: Fermi energy:  4.744870;172.000000 electrons
         Band energy:***********;  BLOECHL correction:  0.000000
 BZINTS: Fermi energy:  4.744870;172.000000 electrons
         Band energy:***********;  BLOECHL correction:  0.000000
    CORREC:  cpu time    3.2479: real time    3.2503
    CHARGE:  cpu time    1.0390: real time    1.0392
    --------------------------------------------
      LOOP:  cpu time    7.8913: real time    7.8969

 eigenvalue-minimisations  :     0
 total energy-change (2. order) :-0.2261913E-07  (-0.1608417E-09)
 number of electron     171.9999981 magnetization       0.0000000      0.0000000     -0.0000000
 augmentation part       70.5623780 magnetization       0.0000001      0.0000000     -0.0002689

 Free energy of the ion-electron system (eV)
  ---------------------------------------------------
  alpha Z        PSCENC =       585.56180804
  Ewald energy   TEWEN  =    -15587.73719658
  -Hartree energ DENC   =    -10757.05532140
  -exchange      EXHF   =         0.00000000
  -V(xc)+E(xc)   XCENC  =       821.43146504
  PAW double counting   =     28007.01697265   -28930.19315499
  entropy T*S    EENTRO =         0.00000000
  eigenvalues    EBANDS =     -2726.09284659
  atomic energy  EATOM  =     28505.01627691
  ---------------------------------------------------
  free energy    TOTEN  =       -82.05199693 eV

  energy without entropy =      -82.05199693  energy(sigma->0) =      -82.05199693


--------------------------------------------------------------------------------------------------------




--------------------------------------- Iteration      1(  11)  ---------------------------------------


    POTLOK:  cpu time    0.1038: real time    0.1038
    SETDIJ:  cpu time    0.6346: real time    0.6348
    TRIAL :  cpu time    2.8515: real time    2.8540
 BZINTS: Fermi energy:  4.744870;172.000000 electrons
         Band energy:***********;  BLOECHL correction:  0.000000
 BZINTS: Fermi energy:  4.744870;172.000000 electrons
         Band energy:***********;  BLOECHL correction:  0.000000
    CORREC:  cpu time    3.2533: real time    3.2556
    CHARGE:  cpu time    1.0398: real time    1.0403
    --------------------------------------------
      LOOP:  cpu time    7.8937: real time    7.9026

 eigenvalue-minimisations  :     0
 total energy-change (2. order) :-0.2176967E-07  (-0.1425105E-09)
 number of electron     171.9999981 magnetization       0.0000000      0.0000000     -0.0000000
 augmentation part       70.5623780 magnetization       0.0000001      0.0000000     -0.0002689

 Free energy of the ion-electron system (eV)
  ---------------------------------------------------
  alpha Z        PSCENC =       585.56180804
  Ewald energy   TEWEN  =    -15587.73719658
  -Hartree energ DENC   =    -10757.05531963
  -exchange      EXHF   =         0.00000000
  -V(xc)+E(xc)   XCENC  =       821.43146494
  PAW double counting   =     28007.01696628   -28930.19314849
  entropy T*S    EENTRO =         0.00000000
  eigenvalues    EBANDS =     -2726.09284841
  atomic energy  EATOM  =     28505.01627691
  ---------------------------------------------------
  free energy    TOTEN  =       -82.05199695 eV

  energy without entropy =      -82.05199695  energy(sigma->0) =      -82.05199695


--------------------------------------------------------------------------------------------------------




--------------------------------------- Iteration      1(  12)  ---------------------------------------


    POTLOK:  cpu time    0.1029: real time    0.1029
    SETDIJ:  cpu time    0.6350: real time    0.6349
    TRIAL :  cpu time    2.8566: real time    2.8592
 BZINTS: Fermi energy:  4.744870;172.000000 electrons
         Band energy:***********;  BLOECHL correction:  0.000000
 BZINTS: Fermi energy:  4.744870;172.000000 electrons
         Band energy:***********;  BLOECHL correction:  0.000000
    CORREC:  cpu time    3.2522: real time    3.2545
    CHARGE:  cpu time    1.0381: real time    1.0383
    --------------------------------------------
      LOOP:  cpu time    7.8949: real time    7.9037

 eigenvalue-minimisations  :     0
 total energy-change (2. order) :-0.2131674E-07  (-0.1279188E-09)
 number of electron     171.9999981 magnetization       0.0000000     -0.0000000     -0.0000000
 augmentation part       70.5623780 magnetization       0.0000001      0.0000000     -0.0002689

 Free energy of the ion-electron system (eV)
  ---------------------------------------------------
  alpha Z        PSCENC =       585.56180804
  Ewald energy   TEWEN  =    -15587.73719658
  -Hartree energ DENC   =    -10757.05531799
  -exchange      EXHF   =         0.00000000
  -V(xc)+E(xc)   XCENC  =       821.43146485
  PAW double counting   =     28007.01696033   -28930.19314241
  entropy T*S    EENTRO =         0.00000000
  eigenvalues    EBANDS =     -2726.09285010
  atomic energy  EATOM  =     28505.01627691
  ---------------------------------------------------
  free energy    TOTEN  =       -82.05199697 eV

  energy without entropy =      -82.05199697  energy(sigma->0) =      -82.05199697


--------------------------------------------------------------------------------------------------------




--------------------------------------- Iteration      1(  13)  ---------------------------------------


    POTLOK:  cpu time    0.1029: real time    0.1029
    SETDIJ:  cpu time    0.6350: real time    0.6351
    TRIAL :  cpu time    2.8456: real time    2.8480
 BZINTS: Fermi energy:  4.744870;172.000000 electrons
         Band energy:***********;  BLOECHL correction:  0.000000
 BZINTS: Fermi energy:  4.744870;172.000000 electrons
         Band energy:***********;  BLOECHL correction:  0.000000
    CORREC:  cpu time    3.2790: real time    3.2815
    CHARGE:  cpu time    1.0412: real time    1.0414
    --------------------------------------------
      LOOP:  cpu time    7.9134: real time    7.9219

 eigenvalue-minimisations  :     0
 total energy-change (2. order) :-0.2133311E-07  (-0.1198798E-09)
 number of electron     171.9999981 magnetization       0.0000000     -0.0000000      0.0000000
 augmentation part       70.5623780 magnetization       0.0000001      0.0000000     -0.0002689

 Free energy of the ion-electron system (eV)
  ---------------------------------------------------
  alpha Z        PSCENC =       585.56180804
  Ewald energy   TEWEN  =    -15587.73719658
  -Hartree energ DENC   =    -10757.05531646
  -exchange      EXHF   =         0.00000000
  -V(xc)+E(xc)   XCENC  =       821.43146476
  PAW double counting   =     28007.01695469   -28930.19313666
  entropy T*S    EENTRO =         0.00000000
  eigenvalues    EBANDS =     -2726.09285168
  atomic energy  EATOM  =     28505.01627691
  ---------------------------------------------------
  free energy    TOTEN  =       -82.05199699 eV

  energy without entropy =      -82.05199699  energy(sigma->0) =      -82.05199699


--------------------------------------------------------------------------------------------------------




--------------------------------------- Iteration      1(  14)  ---------------------------------------


    POTLOK:  cpu time    0.1057: real time    0.1057
    SETDIJ:  cpu time    0.6347: real time    0.6349
    TRIAL :  cpu time    2.8548: real time    2.8573
 BZINTS: Fermi energy:  4.744870;172.000000 electrons
         Band energy:***********;  BLOECHL correction:  0.000000
 BZINTS: Fermi energy:  4.744870;172.000000 electrons
         Band energy:***********;  BLOECHL correction:  0.000000
    CORREC:  cpu time    3.2576: real time    3.2601
    CHARGE:  cpu time    1.0398: real time    1.0400
    --------------------------------------------
      LOOP:  cpu time    7.9043: real time    7.9137

 eigenvalue-minimisations  :     0
 total energy-change (2. order) :-0.2246452E-07  (-0.1330778E-09)
 number of electron     171.9999981 magnetization       0.0000000      0.0000000      0.0000000
 augmentation part       70.5623780 magnetization       0.0000001      0.0000000     -0.0002689

 Free energy of the ion-electron system (eV)
  ---------------------------------------------------
  alpha Z        PSCENC =       585.56180804
  Ewald energy   TEWEN  =    -15587.73719658
  -Hartree energ DENC   =    -10757.05531496
  -exchange      EXHF   =         0.00000000
  -V(xc)+E(xc)   XCENC  =       821.43146466
  PAW double counting   =     28007.01694914   -28930.19313099
  entropy T*S    EENTRO =         0.00000000
  eigenvalues    EBANDS =     -2726.09285323
  atomic energy  EATOM  =     28505.01627691
  ---------------------------------------------------
  free energy    TOTEN  =       -82.05199702 eV

  energy without entropy =      -82.05199702  energy(sigma->0) =      -82.05199702


--------------------------------------------------------------------------------------------------------




--------------------------------------- Iteration      1(  15)  ---------------------------------------


    POTLOK:  cpu time    0.1069: real time    0.1069
    SETDIJ:  cpu time    0.6365: real time    0.6367
    TRIAL :  cpu time    2.8452: real time    2.8477
 BZINTS: Fermi energy:  4.744870;172.000000 electrons
         Band energy:***********;  BLOECHL correction:  0.000000
 BZINTS: Fermi energy:  4.744870;172.000000 electrons
         Band energy:***********;  BLOECHL correction:  0.000000
    CORREC:  cpu time    3.2487: real time    3.2511
    CHARGE:  cpu time    1.0438: real time    1.0443
    --------------------------------------------
      LOOP:  cpu time    7.8932: real time    7.9025

 eigenvalue-minimisations  :     0
 total energy-change (2. order) :-0.2871457E-07  (-0.1600129E-09)
 number of electron     171.9999981 magnetization       0.0000000     -0.0000000      0.0000000
 augmentation part       70.5623780 magnetization       0.0000001      0.0000000     -0.0002689

 Free energy of the ion-electron system (eV)
  ---------------------------------------------------
  alpha Z        PSCENC =       585.56180804
  Ewald energy   TEWEN  =    -15587.73719658
  -Hartree energ DENC   =    -10757.05531323
  -exchange      EXHF   =         0.00000000
  -V(xc)+E(xc)   XCENC  =       821.43146455
  PAW double counting   =     28007.01694263   -28930.19312436
  entropy T*S    EENTRO =         0.00000000
  eigenvalues    EBANDS =     -2726.09285501
  atomic energy  EATOM  =     28505.01627691
  ---------------------------------------------------
  free energy    TOTEN  =       -82.05199705 eV

  energy without entropy =      -82.05199705  energy(sigma->0) =      -82.05199705


--------------------------------------------------------------------------------------------------------




--------------------------------------- Iteration      1(  16)  ---------------------------------------


    POTLOK:  cpu time    0.1039: real time    0.1039
    SETDIJ:  cpu time    0.6375: real time    0.6375
    TRIAL :  cpu time    2.8466: real time    2.8492
 BZINTS: Fermi energy:  4.744870;172.000000 electrons
         Band energy:***********;  BLOECHL correction:  0.000000
 BZINTS: Fermi energy:  4.744870;172.000000 electrons
         Band energy:***********;  BLOECHL correction:  0.000000
    CORREC:  cpu time    3.2581: real time    3.2604
    CHARGE:  cpu time    1.0376: real time    1.0378
    --------------------------------------------
      LOOP:  cpu time    7.8937: real time    7.9018

 eigenvalue-minimisations  :     0
 total energy-change (2. order) :-0.4176400E-07  (-0.8175349E-10)
 number of electron     171.9999981 magnetization       0.0000000      0.0000000      0.0000000
 augmentation part       70.5623780 magnetization       0.0000001      0.0000000     -0.0002689

 Free energy of the ion-electron system (eV)
  ---------------------------------------------------
  alpha Z        PSCENC =       585.56180804
  Ewald energy   TEWEN  =    -15587.73719658
  -Hartree energ DENC   =    -10757.05531104
  -exchange      EXHF   =         0.00000000
  -V(xc)+E(xc)   XCENC  =       821.43146440
  PAW double counting   =     28007.01693430   -28930.19311586
  entropy T*S    EENTRO =         0.00000000
  eigenvalues    EBANDS =     -2726.09285724
  atomic energy  EATOM  =     28505.01627691
  ---------------------------------------------------
  free energy    TOTEN  =       -82.05199709 eV

  energy without entropy =      -82.05199709  energy(sigma->0) =      -82.05199709


--------------------------------------------------------------------------------------------------------




--------------------------------------- Iteration      1(  17)  ---------------------------------------


    POTLOK:  cpu time    0.1041: real time    0.1041
    SETDIJ:  cpu time    0.6356: real time    0.6358
    TRIAL :  cpu time    2.8480: real time    2.8504
 BZINTS: Fermi energy:  4.744870;172.000000 electrons
         Band energy:***********;  BLOECHL correction:  0.000000
 BZINTS: Fermi energy:  4.744870;172.000000 electrons
         Band energy:***********;  BLOECHL correction:  0.000000
    CORREC:  cpu time    3.2424: real time    3.2450
    CHARGE:  cpu time    1.0473: real time    1.0475
    --------------------------------------------
      LOOP:  cpu time    7.8883: real time    7.8969

 eigenvalue-minimisations  :     0
 total energy-change (2. order) :-0.2555680E-07  (-0.5274714E-10)
 number of electron     171.9999981 magnetization       0.0000000      0.0000000      0.0000000
 augmentation part       70.5623780 magnetization       0.0000001      0.0000000     -0.0002689

 Free energy of the ion-electron system (eV)
  ---------------------------------------------------
  alpha Z        PSCENC =       585.56180804
  Ewald energy   TEWEN  =    -15587.73719658
  -Hartree energ DENC   =    -10757.05530985
  -exchange      EXHF   =         0.00000000
  -V(xc)+E(xc)   XCENC  =       821.43146430
  PAW double counting   =     28007.01692965   -28930.19311112
  entropy T*S    EENTRO =         0.00000000
  eigenvalues    EBANDS =     -2726.09285846
  atomic energy  EATOM  =     28505.01627691
  ---------------------------------------------------
  free energy    TOTEN  =       -82.05199711 eV

  energy without entropy =      -82.05199711  energy(sigma->0) =      -82.05199711


--------------------------------------------------------------------------------------------------------




--------------------------------------- Iteration      1(  18)  ---------------------------------------


    POTLOK:  cpu time    0.1031: real time    0.1031
    SETDIJ:  cpu time    0.6365: real time    0.6367
    TRIAL :  cpu time    2.8510: real time    2.8534
 BZINTS: Fermi energy:  4.744870;172.000000 electrons
         Band energy:***********;  BLOECHL correction:  0.000000
 BZINTS: Fermi energy:  4.744870;172.000000 electrons
         Band energy:***********;  BLOECHL correction:  0.000000
    CORREC:  cpu time    3.2487: real time    3.2510
    CHARGE:  cpu time    1.0432: real time    1.0436
    --------------------------------------------
      LOOP:  cpu time    7.8924: real time    7.9009

 eigenvalue-minimisations  :     0
 total energy-change (2. order) :-0.1825174E-07  (-0.4175559E-10)
 number of electron     171.9999981 magnetization       0.0000000      0.0000000      0.0000000
 augmentation part       70.5623780 magnetization       0.0000001      0.0000000     -0.0002689

 Free energy of the ion-electron system (eV)
  ---------------------------------------------------
  alpha Z        PSCENC =       585.56180804
  Ewald energy   TEWEN  =    -15587.73719658
  -Hartree energ DENC   =    -10757.05530905
  -exchange      EXHF   =         0.00000000
  -V(xc)+E(xc)   XCENC  =       821.43146424
  PAW double counting   =     28007.01692649   -28930.19310790
  entropy T*S    EENTRO =         0.00000000
  eigenvalues    EBANDS =     -2726.09285927
  atomic energy  EATOM  =     28505.01627691
  ---------------------------------------------------
  free energy    TOTEN  =       -82.05199713 eV

  energy without entropy =      -82.05199713  energy(sigma->0) =      -82.05199713


--------------------------------------------------------------------------------------------------------




--------------------------------------- Iteration      1(  19)  ---------------------------------------


    POTLOK:  cpu time    0.1014: real time    0.1014
    SETDIJ:  cpu time    0.6372: real time    0.6372
    TRIAL :  cpu time    2.8504: real time    2.8530
 BZINTS: Fermi energy:  4.744870;172.000000 electrons
         Band energy:***********;  BLOECHL correction:  0.000000
 BZINTS: Fermi energy:  4.744870;172.000000 electrons
         Band energy:***********;  BLOECHL correction:  0.000000
    CORREC:  cpu time    3.2404: real time    3.2428
    CHARGE:  cpu time    1.0452: real time    1.0454
    --------------------------------------------
      LOOP:  cpu time    7.8849: real time    7.8938

 eigenvalue-minimisations  :     0
 total energy-change (2. order) :-0.1540138E-07  (-0.3614990E-10)
 number of electron     171.9999981 magnetization       0.0000000      0.0000000      0.0000000
 augmentation part       70.5623780 magnetization       0.0000001      0.0000000     -0.0002689

 Free energy of the ion-electron system (eV)
  ---------------------------------------------------
  alpha Z        PSCENC =       585.56180804
  Ewald energy   TEWEN  =    -15587.73719658
  -Hartree energ DENC   =    -10757.05530840
  -exchange      EXHF   =         0.00000000
  -V(xc)+E(xc)   XCENC  =       821.43146419
  PAW double counting   =     28007.01692389   -28930.19310525
  entropy T*S    EENTRO =         0.00000000
  eigenvalues    EBANDS =     -2726.09285992
  atomic energy  EATOM  =     28505.01627691
  ---------------------------------------------------
  free energy    TOTEN  =       -82.05199715 eV

  energy without entropy =      -82.05199715  energy(sigma->0) =      -82.05199715


--------------------------------------------------------------------------------------------------------




--------------------------------------- Iteration      1(  20)  ---------------------------------------


    POTLOK:  cpu time    0.1029: real time    0.1029
    SETDIJ:  cpu time    0.6344: real time    0.6346
    TRIAL :  cpu time    2.8538: real time    2.8562
 BZINTS: Fermi energy:  4.744870;172.000000 electrons
         Band energy:***********;  BLOECHL correction:  0.000000
 BZINTS: Fermi energy:  4.744870;172.000000 electrons
         Band energy:***********;  BLOECHL correction:  0.000000
    CORREC:  cpu time    3.2514: real time    3.2539
    CHARGE:  cpu time    1.0403: real time    1.0405
    --------------------------------------------
      LOOP:  cpu time    7.8943: real time    7.9029

 eigenvalue-minimisations  :     0
 total energy-change (2. order) :-0.1404806E-07  (-0.3235512E-10)
 number of electron     171.9999981 magnetization       0.0000000      0.0000000      0.0000000
 augmentation part       70.5623780 magnetization       0.0000001      0.0000000     -0.0002689

 Free energy of the ion-electron system (eV)
  ---------------------------------------------------
  alpha Z        PSCENC =       585.56180804
  Ewald energy   TEWEN  =    -15587.73719658
  -Hartree energ DENC   =    -10757.05530783
  -exchange      EXHF   =         0.00000000
  -V(xc)+E(xc)   XCENC  =       821.43146414
  PAW double counting   =     28007.01692156   -28930.19310289
  entropy T*S    EENTRO =         0.00000000
  eigenvalues    EBANDS =     -2726.09286051
  atomic energy  EATOM  =     28505.01627691
  ---------------------------------------------------
  free energy    TOTEN  =       -82.05199716 eV

  energy without entropy =      -82.05199716  energy(sigma->0) =      -82.05199716


--------------------------------------------------------------------------------------------------------




--------------------------------------- Iteration      1(  21)  ---------------------------------------


    POTLOK:  cpu time    0.1023: real time    0.1023
    SETDIJ:  cpu time    0.6351: real time    0.6353
    TRIAL :  cpu time    2.8496: real time    2.8520
 BZINTS: Fermi energy:  4.744870;172.000000 electrons
         Band energy:***********;  BLOECHL correction:  0.000000
 BZINTS: Fermi energy:  4.744870;172.000000 electrons
         Band energy:***********;  BLOECHL correction:  0.000000
    CORREC:  cpu time    3.2657: real time    3.2679
    CHARGE:  cpu time    1.0388: real time    1.0393
    --------------------------------------------
      LOOP:  cpu time    7.9017: real time    7.9101

 eigenvalue-minimisations  :     0
 total energy-change (2. order) :-0.1308945E-07  (-0.2958651E-10)
 number of electron     171.9999981 magnetization       0.0000000      0.0000000      0.0000000
 augmentation part       70.5623780 magnetization       0.0000001      0.0000000     -0.0002689

 Free energy of the ion-electron system (eV)
  ---------------------------------------------------
  alpha Z        PSCENC =       585.56180804
  Ewald energy   TEWEN  =    -15587.73719658
  -Hartree energ DENC   =    -10757.05530730
  -exchange      EXHF   =         0.00000000
  -V(xc)+E(xc)   XCENC  =       821.43146410
  PAW double counting   =     28007.01691942   -28930.19310071
  entropy T*S    EENTRO =         0.00000000
  eigenvalues    EBANDS =     -2726.09286104
  atomic energy  EATOM  =     28505.01627691
  ---------------------------------------------------
  free energy    TOTEN  =       -82.05199717 eV

  energy without entropy =      -82.05199717  energy(sigma->0) =      -82.05199717


--------------------------------------------------------------------------------------------------------




--------------------------------------- Iteration      1(  22)  ---------------------------------------


    POTLOK:  cpu time    0.1022: real time    0.1022
    SETDIJ:  cpu time    0.6358: real time    0.6358
    TRIAL :  cpu time    2.8463: real time    2.8490
 BZINTS: Fermi energy:  4.744870;172.000000 electrons
         Band energy:***********;  BLOECHL correction:  0.000000
[...]
 -0.000  -0.000  -0.000  -0.000   0.000   0.000  -0.000  -0.000  -0.000  -0.000   0.000   0.000  -0.000  -0.000  -0.000  -0.000
 pseudopotential strength for first ion, spin component:           3
 -0.000   0.000  -0.000   0.000   0.000  -0.000  -0.000   0.000  -0.000   0.000   0.000  -0.000  -0.000   0.000  -0.000   0.000
 -0.000   0.000  -0.000   0.000   0.000  -0.000  -0.000   0.000  -0.000   0.000   0.000  -0.000  -0.000   0.000  -0.000   0.000
  0.000  -0.000   0.000  -0.000   0.000   0.000   0.000   0.000   0.000  -0.000   0.000   0.000   0.000   0.000   0.000  -0.000
 -0.000   0.000  -0.000   0.000   0.000   0.000   0.000  -0.000  -0.000   0.000   0.000   0.000   0.000  -0.000  -0.000   0.000
 -0.000   0.000  -0.000   0.000   0.000  -0.000  -0.000   0.000  -0.000   0.000   0.000  -0.000  -0.000   0.000  -0.000   0.000
  0.000  -0.000   0.000  -0.000   0.000   0.000   0.000   0.000   0.000  -0.000   0.000   0.000   0.000   0.000   0.000  -0.000
 -0.000   0.000  -0.000   0.000   0.000   0.000   0.000  -0.000  -0.000   0.000   0.000   0.000   0.000  -0.000  -0.000   0.000
 -0.000   0.000  -0.000   0.000   0.000  -0.000  -0.000   0.000  -0.000   0.000   0.000  -0.000  -0.000   0.000  -0.000   0.000
 pseudopotential strength for first ion, spin component:           4
 39.532   0.000  45.400   0.000  -0.001   0.000  -0.001   0.000  -0.003   0.000  -0.001   0.000  -0.001   0.000  -0.004   0.000
 45.400   0.000  52.142   0.000  -0.001   0.000  -0.001   0.000  -0.004   0.000  -0.001   0.000  -0.001   0.000  -0.005   0.000
 -0.001   0.000  -0.001   0.000   8.207   0.000   0.002   0.000  -0.000   0.000  11.125   0.000   0.002   0.000  -0.000   0.000
 -0.001   0.000  -0.001   0.000   0.002   0.000   8.207   0.000  -0.001   0.000   0.002   0.000  11.124   0.000  -0.001   0.000
 -0.003   0.000  -0.004   0.000  -0.000   0.000  -0.001   0.000   8.208   0.000  -0.000   0.000  -0.001   0.000  11.125   0.000
 -0.001   0.000  -0.001   0.000  11.125   0.000   0.002   0.000  -0.000   0.000  15.098   0.000   0.003   0.000  -0.001   0.000
 -0.001   0.000  -0.001   0.000   0.002   0.000  11.124   0.000  -0.001   0.000   0.003   0.000  15.098   0.000  -0.001   0.000
 -0.004   0.000  -0.005   0.000  -0.000   0.000  -0.001   0.000  11.125   0.000  -0.001   0.000  -0.001   0.000  15.099   0.000
 total augmentation occupancy for first ion, spin component:           1
 10.778  -6.671   0.000   0.000  -0.566  -0.000   0.000   0.152
 -6.671   4.831  -0.000   0.000   0.465   0.000   0.000  -0.094
  0.000  -0.000   3.638   0.083   0.000  -1.028  -0.044   0.000
  0.000   0.000   0.083   3.560   0.000  -0.044  -0.990  -0.000
 -0.566   0.465   0.000   0.000   3.636   0.000  -0.000  -1.031
 -0.000   0.000  -1.028  -0.044   0.000   0.344   0.016   0.000
  0.000   0.000  -0.044  -0.990  -0.000   0.016   0.329   0.000
  0.152  -0.094   0.000  -0.000  -1.031   0.000   0.000   0.345
 total augmentation occupancy for first ion, spin component:           2
 -0.000   0.000  -0.000  -0.000  -0.000   0.000  -0.000   0.000
  0.000   0.000   0.000   0.000   0.000  -0.000  -0.000  -0.000
 -0.000   0.000   0.000  -0.000   0.000  -0.000   0.000   0.000
 -0.000   0.000  -0.000   0.000   0.000   0.000  -0.000  -0.000
 -0.000   0.000   0.000   0.000  -0.000   0.000  -0.000   0.000
  0.000   0.000  -0.000   0.000  -0.000   0.000  -0.000   0.000
  0.000  -0.000   0.000  -0.000  -0.000  -0.000   0.000   0.000
  0.000  -0.000  -0.000  -0.000   0.000  -0.000  -0.000  -0.000
 total augmentation occupancy for first ion, spin component:           3
 -0.000  -0.000  -0.000   0.000  -0.000   0.000  -0.000  -0.000
 -0.000  -0.000   0.000  -0.000   0.000  -0.000   0.000  -0.000
 -0.000   0.000   0.000  -0.000  -0.000  -0.000  -0.000   0.000
  0.000  -0.000   0.000   0.000  -0.000  -0.000  -0.000   0.000
  0.000   0.000  -0.000  -0.000  -0.000   0.000   0.000   0.000
  0.000  -0.000  -0.000  -0.000   0.000  -0.000  -0.000  -0.000
 -0.000   0.000   0.000  -0.000   0.000  -0.000   0.000  -0.000
 -0.000  -0.000   0.000   0.000  -0.000  -0.000  -0.000   0.000
 total augmentation occupancy for first ion, spin component:           4
 -0.000   0.000   0.116   0.099   0.000   0.079   0.077   0.000
  0.000  -0.000  -0.093  -0.079  -0.000  -0.088  -0.084   0.000
  0.116  -0.093  -0.000  -0.000   0.006   0.000   0.000  -0.005
  0.099  -0.079  -0.000  -0.000   0.007  -0.000  -0.000  -0.003
  0.000  -0.000   0.006   0.007  -0.000  -0.005  -0.003  -0.000
  0.079  -0.088   0.000  -0.000  -0.005   0.000  -0.000   0.015
  0.077  -0.084  -0.000  -0.000  -0.003   0.000  -0.000   0.014
  0.000  -0.000  -0.005  -0.003  -0.000   0.015   0.014   0.000


------------------------ aborting loop because EDIFF is reached ----------------------------------------


 


 total charge     
 
# of ion       s       p       d       tot
------------------------------------------
    1        1.314   2.408   0.000   3.722
    2        1.314   2.407   0.000   3.721
    3        1.314   2.407   0.000   3.720
    4        1.314   2.406   0.000   3.720
    5        1.314   2.407   0.000   3.721
    6        1.314   2.408   0.000   3.722
    7        1.314   2.407   0.000   3.720
    8        1.314   2.406   0.000   3.720
    9        0.258   6.199   8.918  15.375
   10        0.258   6.199   8.918  15.375
   11        0.258   6.199   8.918  15.375
   12        0.258   6.199   8.918  15.375
   13        0.349   6.348   5.818  12.514
   14        0.349   6.348   5.817  12.514
   15        0.349   6.348   5.818  12.514
   16        0.349   6.348   5.817  12.514
--------------------------------------------------
tot         12.935  69.444  58.941 141.320
 


 magnetization (x)
 
# of ion       s       p       d       tot
------------------------------------------
    1       -0.000  -0.000   0.000  -0.000
    2        0.000   0.000   0.000   0.000
    3       -0.000  -0.000   0.000  -0.000
    4        0.000  -0.000   0.000  -0.000
    5        0.000   0.000   0.000   0.000
    6       -0.000  -0.000   0.000  -0.000
    7       -0.000  -0.000   0.000  -0.000
    8        0.000  -0.000   0.000  -0.000
    9       -0.000   0.000   0.000   0.000
   10       -0.000  -0.000  -0.000  -0.000
   11       -0.000   0.000   0.000   0.000
   12       -0.000  -0.000  -0.000  -0.000
   13       -0.000  -0.000   0.000  -0.000
   14        0.000  -0.000   0.000   0.000
   15       -0.000  -0.000   0.000   0.000
   16        0.000  -0.000   0.000   0.000
--------------------------------------------------
tot          0.000  -0.000   0.000  -0.000
 


 magnetization (y)
 
# of ion       s       p       d       tot
------------------------------------------
    1       -0.000   0.000   0.000   0.000
    2        0.000   0.000   0.000   0.000
    3       -0.000  -0.000   0.000  -0.000
    4        0.000   0.000   0.000   0.000
    5        0.000   0.000   0.000   0.000
    6       -0.000   0.000   0.000   0.000
    7       -0.000  -0.000   0.000  -0.000
    8        0.000   0.000   0.000   0.000
    9        0.000  -0.000  -0.000  -0.000
   10       -0.000  -0.000   0.000   0.000
   11        0.000  -0.000  -0.000  -0.000
   12       -0.000  -0.000   0.000   0.000
   13       -0.000   0.000  -0.000  -0.000
   14        0.000  -0.000   0.000   0.000
   15       -0.000   0.000  -0.000  -0.000
   16        0.000  -0.000   0.000   0.000
--------------------------------------------------
tot          0.000  -0.000   0.000  -0.000
 


 magnetization (z)
 
# of ion       s       p       d       tot
------------------------------------------
    1        0.000  -0.002   0.000  -0.002
    2        0.000  -0.003   0.000  -0.003
    3       -0.000   0.003   0.000   0.002
    4       -0.000   0.003   0.000   0.003
    5        0.000  -0.003   0.000  -0.003
    6        0.000  -0.002   0.000  -0.002
    7       -0.000   0.003   0.000   0.002
    8       -0.000   0.003   0.000   0.003
    9        0.000   0.001  -0.003  -0.002
   10       -0.000  -0.001   0.003   0.002
   11        0.000   0.001  -0.003  -0.002
   12       -0.000  -0.001   0.003   0.002
   13        0.020   0.054   3.673   3.746
   14       -0.020  -0.054  -3.673  -3.747
   15        0.020   0.054   3.673   3.746
   16       -0.020  -0.054  -3.673  -3.747
--------------------------------------------------
tot         -0.000   0.000  -0.000  -0.000
 
    FORLOC:  cpu time    0.0013: real time    0.0013
    FORNL :  cpu time    0.7490: real time    0.7492
    STRESS:  cpu time    0.6545: real time    0.6545
    FORCOR:  cpu time    0.0941: real time    0.0941
    OFIELD:  cpu time    0.0007: real time    0.0007

  FORCE on cell =-STRESS in cart. coord.  units (eV):
  Direction    XX          YY          ZZ          XY          YZ          ZX
  --------------------------------------------------------------------------------------
  Alpha Z   585.56181   585.56181   585.56181
  Ewald   -5146.91519 -5146.91519 -5293.94201    -0.00000     0.00000     0.00000
  Hartree  3606.65492  3606.65492  3543.74545    -0.00000    -0.00000    -0.00000
  E(xc)   -1050.47045 -1050.47045 -1050.53811    -0.00000     0.00000    -0.00000
  Local   -1337.63291 -1337.63291 -1125.02442    -0.00000    -0.00000    -0.00000
  n-local   120.35766   121.92711   119.82327    -0.22095    -0.02589    -0.02582
  augment  1181.56602  1181.56602  1178.46670    -0.00000     0.00000     0.00000
  Kinetic  2033.75785  2043.69779  2041.90715    -0.84590     0.12820    -0.04722
  Fock        0.00000     0.00000     0.00000     0.00000     0.00000     0.00000
  -------------------------------------------------------------------------------------
  Total      -1.36560    -1.36560    -0.00016     0.00000     0.00000     0.00000
  in kB      -7.56088    -7.56088    -0.00086     0.00000     0.00000     0.00000
  external pressure =       -5.04 kB  Pullay stress =        0.00 kB


 VOLUME and BASIS-vectors are now :
 -----------------------------------------------------------------------------
  energy-cutoff  :      700.00
  volume of cell :      289.37
      direct lattice vectors                 reciprocal lattice vectors
     5.311373512  0.000000000  0.000000000     0.188275217  0.000000000  0.000000000
     0.000000000  5.311373512  0.000000000     0.000000000  0.188275217  0.000000000
     0.000000000  0.000000000 10.257634523     0.000000000  0.000000000  0.097488363

  length of vectors
     5.311373512  5.311373512 10.257634523     0.188275217  0.188275217  0.097488363


 FORCES acting on ions:
    Electron-Ion                     Ewald-Force                    Non-Local-Force
 -----------------------------------------------------------------------------------------------
   0.423E+02 0.879E-13 0.192E-12   -.431E+02 0.654E-12 -.568E-13   0.808E+00 -.135E-18 -.687E-18
   -.423E+02 -.118E-11 -.115E-12   0.431E+02 -.122E-11 -.568E-13   -.808E+00 0.108E-17 0.740E-18
   0.626E-12 -.423E+02 0.374E-12   0.566E-12 0.431E+02 0.568E-13   0.964E-19 -.808E+00 0.445E-18
   0.317E-12 0.423E+02 -.723E-12   -.125E-11 -.431E+02 -.711E-13   -.343E-18 0.808E+00 -.159E-18
   -.423E+02 0.263E-13 0.293E-12   0.431E+02 0.665E-12 0.426E-13   -.808E+00 0.115E-17 0.213E-18
   0.423E+02 -.947E-12 0.963E-12   -.431E+02 -.123E-11 0.711E-13   0.808E+00 -.297E-18 -.186E-18
   0.413E-12 -.423E+02 0.859E-12   -.111E-11 0.431E+02 0.568E-13   -.329E-18 -.808E+00 -.326E-18
   0.591E-12 0.423E+02 0.665E-13   0.568E-12 -.431E+02 -.284E-13   -.327E-18 0.808E+00 0.142E-18
   -.207E-12 0.225E-12 0.340E-11   0.105E-04 -.241E-04 0.000E+00   -.187E-18 -.589E-19 0.309E-18
   0.133E-11 -.203E-12 -.706E-11   -.105E-04 -.241E-04 -.779E-11   -.182E-18 0.489E-18 0.798E-18
   0.138E-11 -.535E-11 0.352E-12   -.105E-04 0.241E-04 -.171E-12   0.154E-18 0.476E-18 -.207E-17
   -.199E-12 0.146E-11 0.435E-11   0.105E-04 0.241E-04 0.780E-11   0.140E-18 -.178E-18 -.279E-17
   -.106E-12 -.642E-13 -.707E-13   -.798E-05 0.200E-04 0.000E+00   -.101E-17 -.518E-19 -.499E-18
   0.567E-12 -.171E-12 -.318E-10   0.798E-05 0.200E-04 -.647E-11   -.929E-19 0.566E-19 -.129E-17
   0.595E-12 -.425E-11 -.104E-10   0.798E-05 -.200E-04 0.000E+00   0.507E-18 0.335E-19 0.138E-17
   -.871E-13 0.487E-12 0.651E-12   -.798E-05 -.200E-04 0.665E-11   0.947E-18 0.445E-19 0.819E-18
 -----------------------------------------------------------------------------------------------
   0.115E-10 -.388E-11 -.389E-10   -.454E-13 0.789E-13 0.413E-13   -.111E-15 0.223E-15 -.316E-17
 
 
 POSITION                                       TOTAL-FORCE (eV/Angst)
 -----------------------------------------------------------------------------------
      1.33920      1.32784      1.28220         0.000010     -0.000000     -0.000000
      3.97218      3.98353      1.28220        -0.000010     -0.000000      0.000000
      1.32784      3.97218      8.97543        -0.000000     -0.000010      0.000000
      3.98353      1.33920      8.97543        -0.000000      0.000010     -0.000000
      1.31649      1.32784      6.41102        -0.000010     -0.000000      0.000000
      3.99488      3.98353      6.41102         0.000010     -0.000000      0.000000
      3.98353      1.31649      3.84661        -0.000000     -0.000010     -0.000000
      1.32784      3.99488      3.84661        -0.000000      0.000010      0.000000
      0.00000      0.00000      5.12882        -0.000000     -0.000000     -0.000000
      2.65569      0.00000      2.56441        -0.000000      0.000000     -0.000000
      2.65569      2.65569      0.00000         0.000000     -0.000000      0.000000
      0.00000      2.65569      7.69323        -0.000000     -0.000000      0.000000
      0.00000      0.00000      0.00000        -0.000000     -0.000000      0.000000
      2.65569      0.00000      7.69323        -0.000000     -0.000000     -0.000000
      2.65569      2.65569      5.12882        -0.000000     -0.000000      0.000000
      0.00000      2.65569      2.56441        -0.000000     -0.000000     -0.000000
 -----------------------------------------------------------------------------------
    total drift:                                0.000000     -0.000000     -0.000000


--------------------------------------------------------------------------------------------------------



  FREE ENERGIE OF THE ION-ELECTRON SYSTEM (eV)
  ---------------------------------------------------
  free  energy   TOTEN  =       -82.05199735 eV

  energy  without entropy=      -82.05199735  energy(sigma->0) =      -82.05199735
 


--------------------------------------------------------------------------------------------------------


    POTLOK:  cpu time    0.7447: real time    0.7449


--------------------------------------------------------------------------------------------------------


 writing wavefunctions
     LOOP+:  cpu time  268.9117: real time  275.1299
    4ORBIT:  cpu time    0.0000: real time    0.0000
 


 total charge     
 
# of ion       s       p       d       tot
------------------------------------------
    1        1.314   2.408   0.000   3.722
    2        1.314   2.407   0.000   3.721
    3        1.314   2.407   0.000   3.720
    4        1.314   2.406   0.000   3.720
    5        1.314   2.407   0.000   3.721
    6        1.314   2.408   0.000   3.722
    7        1.314   2.407   0.000   3.720
    8        1.314   2.406   0.000   3.720
    9        0.258   6.199   8.918  15.375
   10        0.258   6.199   8.918  15.375
   11        0.258   6.199   8.918  15.375
   12        0.258   6.199   8.918  15.375
   13        0.349   6.348   5.818  12.514
   14        0.349   6.348   5.817  12.514
   15        0.349   6.348   5.818  12.514
   16        0.349   6.348   5.817  12.514
--------------------------------------------------
tot         12.935  69.444  58.941 141.320
 


 magnetization (x)
 
# of ion       s       p       d       tot
------------------------------------------
    1       -0.000  -0.000   0.000  -0.000
    2        0.000   0.000   0.000   0.000
    3       -0.000  -0.000   0.000  -0.000
    4        0.000  -0.000   0.000  -0.000
    5        0.000   0.000   0.000   0.000
    6       -0.000  -0.000   0.000  -0.000
    7       -0.000  -0.000   0.000  -0.000
    8        0.000  -0.000   0.000  -0.000
    9       -0.000   0.000   0.000   0.000
   10       -0.000  -0.000  -0.000  -0.000
   11       -0.000   0.000   0.000   0.000
   12       -0.000  -0.000  -0.000  -0.000
   13       -0.000  -0.000   0.000  -0.000
   14        0.000  -0.000   0.000   0.000
   15       -0.000  -0.000   0.000   0.000
   16        0.000  -0.000   0.000   0.000
--------------------------------------------------
tot          0.000  -0.000   0.000  -0.000
 


 magnetization (y)
 
# of ion       s       p       d       tot
------------------------------------------
    1       -0.000   0.000   0.000   0.000
    2        0.000   0.000   0.000   0.000
    3       -0.000  -0.000   0.000  -0.000
    4        0.000   0.000   0.000   0.000
    5        0.000   0.000   0.000   0.000
    6       -0.000   0.000   0.000   0.000
    7       -0.000  -0.000   0.000  -0.000
    8        0.000   0.000   0.000   0.000
    9        0.000  -0.000  -0.000  -0.000
   10       -0.000  -0.000   0.000   0.000
   11        0.000  -0.000  -0.000  -0.000
   12       -0.000  -0.000   0.000   0.000
   13       -0.000   0.000  -0.000  -0.000
   14        0.000  -0.000   0.000   0.000
   15       -0.000   0.000  -0.000  -0.000
   16        0.000  -0.000   0.000   0.000
--------------------------------------------------
tot          0.000  -0.000   0.000  -0.000
 


 magnetization (z)
 
# of ion       s       p       d       tot
------------------------------------------
    1        0.000  -0.002   0.000  -0.002
    2        0.000  -0.003   0.000  -0.003
    3       -0.000   0.003   0.000   0.002
    4       -0.000   0.003   0.000   0.003
    5        0.000  -0.003   0.000  -0.003
    6        0.000  -0.002   0.000  -0.002
    7       -0.000   0.003   0.000   0.002
    8       -0.000   0.003   0.000   0.003
    9        0.000   0.001  -0.003  -0.002
   10       -0.000  -0.001   0.003   0.002
   11        0.000   0.001  -0.003  -0.002
   12       -0.000  -0.001   0.003   0.002
   13        0.020   0.054   3.673   3.746
   14       -0.020  -0.054  -3.673  -3.747
   15        0.020   0.054   3.673   3.746
   16       -0.020  -0.054  -3.673  -3.747
--------------------------------------------------
tot         -0.000   0.000  -0.000  -0.000
 
 BZINTS: Fermi energy:  4.744870;172.000000 electrons
         Band energy:***********;  BLOECHL correction:  0.000000
 BZINTS: Fermi energy:  4.744870;172.000000 electrons
         Band energy:***********;  BLOECHL correction:  0.000000
 BZINTS: Fermi energy:  4.744870;172.000000 electrons
         Band energy:***********;  BLOECHL correction:  0.000000
 BZINTS: Fermi energy:  4.744870;172.000000 electrons
         Band energy:***********;  BLOECHL correction:  0.000000

 total amount of memory used by VASP MPI-rank0    65368. kBytes
=======================================================================

   base      :      30000. kBytes
   nonl-proj :       4076. kBytes
   fftplans  :       1362. kBytes
   grid      :       5529. kBytes
   one-center:         62. kBytes
   wavefun   :      24339. kBytes
 
  
  
 General timing and accounting informations for this job:
 ========================================================
  
                  Total CPU time used (sec):      295.836
                            User time (sec):      278.709
                          System time (sec):       17.127
                         Elapsed time (sec):      304.659
  
                   Maximum memory used (kb):      339836.
                   Average memory used (kb):           0.
  
                          Minor page faults:       232465
                          Major page faults:           86
                 Voluntary context switches:        53210
