       N       E                     dE             d eps       ncg     rms          rms(c)
DAV:   1     0.620420589319E+04    0.62042E+04   -0.50394E+05 12288   0.194E+03
DAV:   2    -0.937951094513E+02   -0.62980E+04   -0.61667E+04 13312   0.440E+02
DAV:   3    -0.372227261679E+03   -0.27843E+03   -0.27725E+03 17152   0.101E+02
DAV:   4    -0.376143014189E+03   -0.39158E+01   -0.39155E+01 14080   0.123E+01
DAV:   5    -0.376247640773E+03   -0.10463E+00   -0.10463E+00 16384   0.202E+00    0.750E+01
DAV:   6    -0.334729681146E+03    0.41518E+02   -0.59036E+02 12288   0.813E+01    0.100E+02
DAV:   7    -0.329634045554E+03    0.50956E+01   -0.11192E+02 12288   0.273E+01    0.437E+01
DAV:   8    -0.329598434524E+03    0.35611E-01   -0.35937E+01 15872   0.207E+01    0.322E+01
DAV:   9    -0.331445651668E+03   -0.18472E+01   -0.10060E+02 16384   0.241E+01    0.235E+01
DAV:  10    -0.327752985620E+03    0.36927E+01   -0.21528E+01 15360   0.157E+01    0.278E+00
DAV:  11    -0.327883513547E+03   -0.13053E+00   -0.13221E+00 17920   0.185E+00    0.357E+00
DAV:  12    -0.327871295658E+03    0.12218E-01   -0.50987E-01 15104   0.184E+00    0.133E+00
DAV:  13    -0.327876357111E+03   -0.50615E-02   -0.50216E-02 15872   0.410E-01    0.913E-01
DAV:  14    -0.327886078329E+03   -0.97212E-02   -0.52799E-02 16128   0.371E-01    0.410E-01
DAV:  15    -0.327885809907E+03    0.26842E-03   -0.52838E-03 14848   0.182E-01    0.172E-01
DAV:  16    -0.327885927841E+03   -0.11793E-03   -0.38581E-04 17152   0.289E-02    0.128E-01
DAV:  17    -0.327886387780E+03   -0.45994E-03   -0.18286E-03 15104   0.566E-02    0.928E-02
DAV:  18    -0.327886448808E+03   -0.61028E-04   -0.19023E-04 14848   0.217E-02    0.507E-02
DAV:  19    -0.327886454606E+03   -0.57981E-05   -0.40314E-05 16640   0.892E-03    0.314E-02
DAV:  20    -0.327886457848E+03   -0.32418E-05   -0.11151E-05 15616   0.344E-03    0.241E-02
DAV:  21    -0.327886457384E+03    0.46399E-06   -0.37131E-05 16896   0.997E-03    0.144E-02
DAV:  22    -0.327886457895E+03   -0.51098E-06   -0.31146E-06 13824   0.449E-03    0.125E-02
DAV:  23    -0.327886458245E+03   -0.35019E-06   -0.45906E-07 16384   0.114E-03    0.811E-03
DAV:  24    -0.327886458174E+03    0.71203E-07   -0.46256E-07 16640   0.126E-03    0.243E-03
DAV:  25    -0.327886458133E+03    0.40876E-07   -0.27071E-07 15360   0.953E-04    0.110E-03
DAV:  26    -0.327886458113E+03    0.20023E-07   -0.30713E-08 13824   0.325E-04    0.603E-04
DAV:  27    -0.327886458159E+03   -0.45577E-07   -0.79079E-09 11008   0.114E-04    0.427E-04
DAV:  28    -0.327886458182E+03   -0.23501E-07   -0.62312E-09 10240   0.944E-05    0.363E-04
DAV:  29    -0.327886458176E+03    0.56025E-08    0.25365E-10 10240   0.465E-05
   1 F= -.32788646E+03 E0= -.32788646E+03  d E =0.000000E+00  mag=    -0.0000
