 vasp.5.4.4.18Apr17-6-g9f103f2a35 (build Oct 30 2023 17:30:16) complex          
  
 executed on             LinuxIFC date 2024.06.26  20:09:08
 running on  256 total cores
 distrk:  each k-point on  256 cores,    1 groups
 distr:  one band on NCORES_PER_BAND=   1 cores,  256 groups


--------------------------------------------------------------------------------------------------------


 INCAR:
 POTCAR:    PAW_PBE S 06Sep2000                   
 POTCAR:     PAW_PBE Cu_pv 06Sep2000              
 POTCAR:     PAW_PBE Fe_pv 02Aug2007              

 ----------------------------------------------------------------------------- 
|                                                                             |
|           W    W    AA    RRRRR   N    N  II  N    N   GGGG   !!!           |
|           W    W   A  A   R    R  NN   N  II  NN   N  G    G  !!!           |
|           W    W  A    A  R    R  N N  N  II  N N  N  G       !!!           |
|           W WW W  AAAAAA  RRRRR   N  N N  II  N  N N  G  GGG   !            |
|           WW  WW  A    A  R   R   N   NN  II  N   NN  G    G                |
|           W    W  A    A  R    R  N    N  II  N    N   GGGG   !!!           |
|                                                                             |
|      For optimal performance we recommend to set                            |
|        NCORE= 4 - approx SQRT( number of cores)                             |
|      NCORE specifies how many cores store one orbital (NPAR=cpu/NCORE).     |
|      This setting can  greatly improve the performance of VASP for DFT.     |
|      The default,   NCORE=1            might be grossly inefficient         |
|      on modern multi-core architectures or massively parallel machines.     |
|      Do your own testing !!!!                                               |
|      Unfortunately you need to use the default for GW and RPA calculations. |
|      (for HF NCORE is supported but not extensively tested yet)             |
|                                                                             |
 ----------------------------------------------------------------------------- 

 POTCAR:    PAW_PBE S 06Sep2000                   
   SHA256 =  0fc7481fb0695f01bdc6462160264c5c84044ae9ec85a907d398b887a2bc3132 S/
   COPYR  = (c) Copyright 06Sep2000 Georg Kresse                                
   COPYR  = This file is part of the software VASP. Any use, copying, and all ot
   COPYR  = If you do not have a valid VASP license, you may not use, copy or di
   VRHFIN =S : s2p4                                                             
   LEXCH  = PE                                                                  
   EATOM  =   276.8230 eV,   20.3459 Ry                                         
                                                                                
   TITEL  = PAW_PBE S 06Sep2000                                                 
   LULTRA =        F    use ultrasoft PP ?                                      
   IUNSCR =        1    unscreen: 0-lin 1-nonlin 2-no                           
   RPACOR =    1.500    partial core radius                                     
   POMASS =   32.066; ZVAL   =    6.000    mass and valenz                      
   RCORE  =    1.900    outmost cutoff radius                                   
   RWIGS  =    2.200; RWIGS  =    1.164    wigner-seitz radius (au A)           
   ENMAX  =  258.689; ENMIN  =  194.016 eV                                      
   ICORE  =        2    local potential                                         
   LCOR   =        T    correct aug charges                                     
   LPAW   =        T    paw PP                                                  
   EAUG   =  335.092                                                            
   DEXC   =    0.000                                                            
   RMAX   =    1.942    core radius for proj-oper                               
   RAUG   =    1.300    factor for augmentation sphere                          
   RDEP   =    1.954    radius for radial grids                                 
   RDEPT  =    1.744    core radius for aug-charge                              
                                                                                
   Atomic configuration                                                         
    6 entries                                                                   
     n  l   j            E        occ.                                          
     1  0  0.50     -2405.8406   2.0000                                         
     2  0  0.50      -211.7007   2.0000                                         
     2  1  1.50      -156.4958   6.0000                                         
     3  0  0.50       -17.2562   2.0000                                         
     3  1  0.50        -7.0085   4.0000                                         
     3  2  1.50        -6.8029   0.0000                                         
   Description                                                                  
     l       E           TYP  RCUT    TYP  RCUT                                 
     0    -17.2561641     23  1.900                                             
     0    -15.8743224     23  1.900                                             
     1     -7.0085400     23  1.900                                             
     1     -2.7779785     23  1.900                                             
     2     -6.8029130     23  1.900                                             
  local pseudopotential read in
  partial core-charges read in
  partial kinetic energy density read in
  atomic valenz-charges read in
  non local Contribution for L=           0  read in
    real space projection operators read in
  non local Contribution for L=           0  read in
    real space projection operators read in
  non local Contribution for L=           1  read in
    real space projection operators read in
  non local Contribution for L=           1  read in
    real space projection operators read in
    PAW grid and wavefunctions read in
 
   number of l-projection  operators is LMAX  =           4
   number of lm-projection operators is LMMAX =           8
 
 POTCAR:     PAW_PBE Cu_pv 06Sep2000              
   SHA256 =  cb7b504e2ea725fe1f25c85a9ac77d4012ce94cd394135b722c4e25ec297f1cb Cu
   COPYR  = (c) Copyright 06Sep2000 Georg Kresse                                
   COPYR  = This file is part of the software VASP. Any use, copying, and all ot
   COPYR  = If you do not have a valid VASP license, you may not use, copy or di
   VRHFIN =Cu: d10 p1                                                           
   LEXCH  = PE                                                                  
   EATOM  =  4120.1201 eV,  302.8203 Ry                                         
                                                                                
   TITEL  = PAW_PBE Cu_pv 06Sep2000                                             
   LULTRA =        F    use ultrasoft PP ?                                      
   IUNSCR =        1    unscreen: 0-lin 1-nonlin 2-no                           
   RPACOR =    1.500    partial core radius                                     
   POMASS =   63.546; ZVAL   =   17.000    mass and valenz                      
   RCORE  =    2.000    outmost cutoff radius                                   
   RWIGS  =    2.000; RWIGS  =    1.058    wigner-seitz radius (au A)           
   ENMAX  =  368.648; ENMIN  =  276.486 eV                                      
   RCLOC  =    1.304    cutoff for local pot                                    
   LCOR   =        T    correct aug charges                                     
   LPAW   =        T    paw PP                                                  
   EAUG   =  758.233                                                            
   DEXC   =    0.000                                                            
   RMAX   =    2.046    core radius for proj-oper                               
   RAUG   =    1.300    factor for augmentation sphere                          
   RDEP   =    2.025    radius for radial grids                                 
   RDEPT  =    1.558    core radius for aug-charge                              
                                                                                
   Atomic configuration                                                         
    8 entries                                                                   
     n  l   j            E        occ.                                          
     1  0  0.50     -8850.2467   2.0000                                         
     2  0  0.50     -1062.3498   2.0000                                         
     2  1  1.50      -916.8226   6.0000                                         
     3  0  0.50      -114.6929   2.0000                                         
     3  1  1.50       -72.1325   6.0000                                         
     3  2  2.50        -5.0394  10.0000                                         
     4  0  0.50        -4.6097   1.0000                                         
     4  3  2.50        -1.3606   0.0000                                         
   Description                                                                  
     l       E           TYP  RCUT    TYP  RCUT                                 
     1    -72.1324777     23  1.700                                             
     1     -1.3605826     23  1.700                                             
     2     -5.0393776     23  2.000                                             
     2     -6.3999602     23  2.000                                             
     0     -4.6097062     23  1.800                                             
     0     14.1620818     23  1.800                                             
  local pseudopotential read in
  partial core-charges read in
  partial kinetic energy density read in
  atomic valenz-charges read in
  non local Contribution for L=           1  read in
    real space projection operators read in
  non local Contribution for L=           1  read in
    real space projection operators read in
  non local Contribution for L=           2  read in
    real space projection operators read in
  non local Contribution for L=           2  read in
    real space projection operators read in
  non local Contribution for L=           0  read in
    real space projection operators read in
  non local Contribution for L=           0  read in
    real space projection operators read in
    PAW grid and wavefunctions read in
 
   number of l-projection  operators is LMAX  =           6
   number of lm-projection operators is LMMAX =          18
 
 POTCAR:     PAW_PBE Fe_pv 02Aug2007              
   SHA256 =  5d22e414b1f82158bf2c7ecb8b97b28fd0923e48cadc1c3bf74d524558f5dd32 Fe
   COPYR  = (c) Copyright 02Aug2007 Georg Kresse                                
   COPYR  = This file is part of the software VASP. Any use, copying, and all ot
   COPYR  = If you do not have a valid VASP license, you may not use, copy or di
   VRHFIN =Fe:  3pd7s1                                                          
   LEXCH  = PE                                                                  
   EATOM  =  2457.4239 eV,  180.6156 Ry                                         
                                                                                
   TITEL  = PAW_PBE Fe_pv 02Aug2007                                             
   LULTRA =        F    use ultrasoft PP ?                                      
   IUNSCR =        1    unscreen: 0-lin 1-nonlin 2-no                           
   RPACOR =    1.750    partial core radius                                     
   POMASS =   55.847; ZVAL   =   14.000    mass and valenz                      
   RCORE  =    2.200    outmost cutoff radius                                   
   RWIGS  =    2.200; RWIGS  =    1.164    wigner-seitz radius (au A)           
   ENMAX  =  293.238; ENMIN  =  219.928 eV                                      
   ICORE  =        3    local potential                                         
   LCOR   =        T    correct aug charges                                     
   LPAW   =        T    paw PP                                                  
   EAUG   =  578.342                                                            
   DEXC   =    0.000                                                            
   RMAX   =    2.249    core radius for proj-oper                               
   RAUG   =    1.300    factor for augmentation sphere                          
   RDEP   =    2.296    radius for radial grids                                 
   RDEPT  =    1.766    core radius for aug-charge                              
                                                                                
   Atomic configuration                                                         
    8 entries                                                                   
     n  l   j            E        occ.                                          
     1  0  0.50     -6993.8440   2.0000                                         
     2  0  0.50      -814.6047   2.0000                                         
     2  1  1.50      -693.3689   6.0000                                         
     3  0  0.50       -89.4732   2.0000                                         
     3  1  1.50       -55.6373   6.0000                                         
     3  2  2.50        -3.8151   7.0000                                         
     4  0  0.50        -4.2551   1.0000                                         
     4  3  2.50        -1.3606   0.0000                                         
   Description                                                                  
     l       E           TYP  RCUT    TYP  RCUT                                 
     1    -55.6372668     23  2.000                                             
     1     -5.4423304     23  2.000                                             
     2     -3.8151096     23  2.200                                             
     2     -5.1756922     23  2.200                                             
     0     -4.2550951     23  2.200                                             
     0     27.2116520     23  2.200                                             
     3     -1.3605826     23  2.200                                             
  local pseudopotential read in
  partial core-charges read in
  partial kinetic energy density read in
  atomic valenz-charges read in
  non local Contribution for L=           1  read in
    real space projection operators read in
  non local Contribution for L=           1  read in
    real space projection operators read in
  non local Contribution for L=           2  read in
    real space projection operators read in
  non local Contribution for L=           2  read in
    real space projection operators read in
  non local Contribution for L=           0  read in
    real space projection operators read in
  non local Contribution for L=           0  read in
    real space projection operators read in
    PAW grid and wavefunctions read in
 
   number of l-projection  operators is LMAX  =           6
   number of lm-projection operators is LMMAX =          18
 

 ----------------------------------------------------------------------------- 
|                                                                             |
|  ADVICE TO THIS USER RUNNING 'VASP/VAMP'   (HEAR YOUR MASTER'S VOICE ...):  |
|                                                                             |
|      You have a (more or less) 'large supercell' and for larger cells       |
|      it might be more efficient to use real space projection opertators     |
|      So try LREAL= Auto  in the INCAR   file.                               |
|      Mind:          For very  accurate calculation you might also keep the  |
|      reciprocal projection scheme          (i.e. LREAL=.FALSE.)             |
|                                                                             |
 ----------------------------------------------------------------------------- 


 ----------------------------------------------------------------------------- 
|                                                                             |
|  ADVICE TO THIS USER RUNNING 'VASP/VAMP'   (HEAR YOUR MASTER'S VOICE ...):  |
|                                                                             |
|      You enforced a specific xc-type in the INCAR file,                     |
|      a different type was found on the POTCAR file                          |
|          I HOPE YOU KNOW, WHAT YOU ARE  DOING                               |
|                                                                             |
 ----------------------------------------------------------------------------- 

  PAW_PBE S 06Sep2000                   :
 energy of atom  1       EATOM= -276.8230
 kinetic energy error for atom=    0.0007 (will be added to EATOM!!)
   PAW_PBE Cu_pv 06Sep2000              :
 energy of atom  2       EATOM=-4120.1201
 kinetic energy error for atom=    0.0094 (will be added to EATOM!!)
   PAW_PBE Fe_pv 02Aug2007              :
 energy of atom  3       EATOM=-2457.4239
 kinetic energy error for atom=    0.0025 (will be added to EATOM!!)
 
 
 POSCAR: generated by phonopy                    
  positions in direct lattice
  velocities in cartesian coordinates
 exchange correlation table for  LEXCH =       14
   RHO(1)=    0.500       N(1)  =     2000
   RHO(2)=  100.500       N(2)  =     4000
 


--------------------------------------------------------------------------------------------------------


 ion  position               nearest neighbor table
   1  0.127  0.113  0.127-  41 2.25  61 2.25  37 2.30  49 2.32
   2  0.627  0.113  0.127-  42 2.25  62 2.25  38 2.30  50 2.32
   3  0.127  0.613  0.127-  43 2.25  63 2.25  39 2.30  51 2.32
   4  0.627  0.613  0.127-  44 2.25  64 2.25  40 2.30  52 2.32
   5  0.373  0.363  0.123-  39 2.25  52 2.25  41 2.30  62 2.32
   6  0.873  0.363  0.123-  40 2.25  51 2.25  42 2.30  61 2.32
   7  0.373  0.863  0.123-  37 2.25  50 2.25  43 2.30  64 2.32
   8  0.873  0.863  0.123-  38 2.25  49 2.25  44 2.30  63 2.32
   9  0.125  0.368  0.875-  55 2.27  51 2.27  41 2.28  45 2.28
  10  0.625  0.368  0.875-  52 2.27  56 2.27  42 2.28  46 2.28
  11  0.125  0.868  0.875-  53 2.27  49 2.27  43 2.28  47 2.28
  12  0.625  0.868  0.875-  50 2.27  54 2.27  44 2.28  48 2.28
  13  0.375  0.119  0.875-  41 2.27  46 2.27  50 2.31  53 2.31
  14  0.875  0.119  0.875-  42 2.27  45 2.27  49 2.31  54 2.31
  15  0.375  0.619  0.875-  43 2.27  48 2.27  52 2.31  55 2.31
  16  0.875  0.619  0.875-  44 2.27  47 2.27  51 2.31  56 2.31
  17  0.123  0.113  0.623-  45 2.25  57 2.25  33 2.30  53 2.32
  18  0.623  0.113  0.623-  46 2.25  58 2.25  34 2.30  54 2.32
  19  0.123  0.613  0.623-  47 2.25  59 2.25  35 2.30  55 2.32
  20  0.623  0.613  0.623-  48 2.25  60 2.25  36 2.30  56 2.32
  21  0.377  0.363  0.627-  36 2.25  55 2.25  46 2.30  57 2.32
  22  0.877  0.363  0.627-  35 2.25  56 2.25  45 2.30  58 2.32
  23  0.377  0.863  0.627-  34 2.25  53 2.25  48 2.30  59 2.32
  24  0.877  0.863  0.627-  33 2.25  54 2.25  47 2.30  60 2.32
  25  0.375  0.118  0.375-  57 2.27  62 2.27  37 2.28  34 2.28
  26  0.875  0.118  0.375-  58 2.27  61 2.27  38 2.28  33 2.28
  27  0.375  0.618  0.375-  59 2.27  64 2.27  39 2.28  36 2.28
  28  0.875  0.618  0.375-  60 2.27  63 2.27  40 2.28  35 2.28
  29  0.125  0.369  0.375-  39 2.27  35 2.27  57 2.31  61 2.31
  30  0.625  0.369  0.375-  40 2.27  36 2.27  58 2.31  62 2.31
  31  0.125  0.869  0.375-  37 2.27  33 2.27  59 2.31  63 2.31
  32  0.625  0.869  0.375-  38 2.27  34 2.27  60 2.31  64 2.31
  33  0.995  0.009  0.500-  24 2.25  31 2.27  26 2.28  17 2.30
  34  0.495  0.009  0.500-  23 2.25  32 2.27  25 2.28  18 2.30
  35  0.995  0.509  0.500-  22 2.25  29 2.27  28 2.28  19 2.30
  36  0.495  0.509  0.500-  21 2.25  30 2.27  27 2.28  20 2.30
  37  0.255  0.009  0.250-   7 2.25  31 2.27  25 2.28   1 2.30
  38  0.755  0.009  0.250-   8 2.25  32 2.27  26 2.28   2 2.30
  39  0.255  0.509  0.250-   5 2.25  29 2.27  27 2.28   3 2.30
  40  0.755  0.509  0.250-   6 2.25  30 2.27  28 2.28   4 2.30
  41  0.245  0.259  0.000-   1 2.25  13 2.27   9 2.28   5 2.30
  42  0.745  0.259  0.000-   2 2.25  14 2.27  10 2.28   6 2.30
  43  0.245  0.759  0.000-   3 2.25  15 2.27  11 2.28   7 2.30
  44  0.745  0.759  0.000-   4 2.25  16 2.27  12 2.28   8 2.30
  45  0.005  0.259  0.750-  17 2.25  14 2.27   9 2.28  22 2.30
  46  0.505  0.259  0.750-  18 2.25  13 2.27  10 2.28  21 2.30
  47  0.005  0.759  0.750-  19 2.25  16 2.27  11 2.28  24 2.30
  48  0.505  0.759  0.750-  20 2.25  15 2.27  12 2.28  23 2.30
  49  0.997  0.009  0.002-   8 2.25  11 2.27  14 2.31   1 2.32
  50  0.497  0.009  0.002-   7 2.25  12 2.27  13 2.31   2 2.32
  51  0.997  0.509  0.002-   6 2.25   9 2.27  16 2.31   3 2.32
  52  0.497  0.509  0.002-   5 2.25  10 2.27  15 2.31   4 2.32
  53  0.253  0.009  0.748-  23 2.25  11 2.27  13 2.31  17 2.32
  54  0.753  0.009  0.748-  24 2.25  12 2.27  14 2.31  18 2.32
  55  0.253  0.509  0.748-  21 2.25   9 2.27  15 2.31  19 2.32
  56  0.753  0.509  0.748-  22 2.25  10 2.27  16 2.31  20 2.32
  57  0.247  0.259  0.502-  17 2.25  25 2.27  29 2.31  21 2.32
  58  0.747  0.259  0.502-  18 2.25  26 2.27  30 2.31  22 2.32
  59  0.247  0.759  0.502-  19 2.25  27 2.27  31 2.31  23 2.32
  60  0.747  0.759  0.502-  20 2.25  28 2.27  32 2.31  24 2.32
  61  0.003  0.259  0.248-   1 2.25  26 2.27  29 2.31   6 2.32
  62  0.503  0.259  0.248-   2 2.25  25 2.27  30 2.31   5 2.32
  63  0.003  0.759  0.248-   3 2.25  28 2.27  31 2.31   8 2.32
  64  0.503  0.759  0.248-   4 2.25  27 2.27  32 2.31   7 2.32
 
  LATTYP: Found a simple monoclinic cell.
 ALAT       =    16.0309929388
 B/A-ratio  =     0.6580249729
 C/A-ratio  =     1.5534446353
 COS(beta)  =    -0.9628419549
  
  Lattice vectors:
  
 A1 = ( -12.3237608282,   0.0000000000, -10.2526900691)
 A2 = (   0.0000000000, -10.5487936934,   0.0000000000)
 A3 = (  14.1315867122,   0.0000000000,  20.5053801382)


Analysis of symmetry for initial positions (statically):
=====================================================================
 Subroutine PRICEL returns following result:
 
  LATTYP: Found a base centered monoclinic cell.
 ALAT       =    10.8176305461
 B/A-ratio  =     0.4875741341
 C/A-ratio  =     0.9623969219
 COS(beta)  =    -0.7891853060
  
  Lattice vectors:
  
 A1 = (  -1.7250707941,  -2.6371984233,   5.1263450346)
 A2 = (  -1.7250707941,   2.6371984233,   5.1263450346)
 A3 = (  -1.8078258840,   0.0000000000, -10.2526900691)
 
   8 primitive cells build up your supercell.
 

 Routine SETGRP: Setting up the symmetry group for a 
 simple monoclinic supercell.


 Subroutine GETGRP returns: Found  2 space group operations
 (whereof  1 operations were pure point group operations)
 out of a pool of  4 trial point group operations.


The static configuration has the point symmetry C_1 .
 The point group associated with its full space group is C_2 .


Analysis of symmetry for dynamics (positions and initial velocities):
=====================================================================
 Subroutine PRICEL returns following result:
 
  LATTYP: Found a base centered monoclinic cell.
 ALAT       =    10.8176305461
 B/A-ratio  =     0.4875741341
 C/A-ratio  =     0.9623969219
 COS(beta)  =    -0.7891853060
  
  Lattice vectors:
  
 A1 = (  -1.7250707941,  -2.6371984233,   5.1263450346)
 A2 = (  -1.7250707941,   2.6371984233,   5.1263450346)
 A3 = (  -1.8078258840,   0.0000000000, -10.2526900691)
 
   8 primitive cells build up your supercell.
 

 Routine SETGRP: Setting up the symmetry group for a 
 simple monoclinic supercell.


 Subroutine GETGRP returns: Found  2 space group operations
 (whereof  1 operations were pure point group operations)
 out of a pool of  4 trial point group operations.


The dynamic configuration has the point symmetry C_1 .
 The point group associated with its full space group is C_2 .


Analysis of structural, dynamic, and magnetic symmetry:
=====================================================================
 Subroutine PRICEL returns following result:
 
  LATTYP: Found a base centered monoclinic cell.
 ALAT       =    10.8176305461
 B/A-ratio  =     0.4875741341
 C/A-ratio  =     0.9623969219
 COS(beta)  =    -0.7891853060
  
  Lattice vectors:
  
 A1 = (  -1.7250707941,  -2.6371984233,   5.1263450346)
 A2 = (  -1.7250707941,   2.6371984233,   5.1263450346)
 A3 = (  -1.8078258840,   0.0000000000, -10.2526900691)
 
   8 primitive cells build up your supercell.
 

 Routine SETGRP: Setting up the symmetry group for a 
 simple monoclinic supercell.


 Subroutine GETGRP returns: Found  2 space group operations
 (whereof  1 operations were pure point group operations)
 out of a pool of  4 trial point group operations.


The magnetic configuration has the point symmetry C_1 .
 The point group associated with its full space group is C_2 .


 Subroutine INISYM returns: Found  2 space group operations
 (whereof  1 operations are pure point group operations),
 and found     8 'primitive' translations

 
 
 KPOINTS: Automatic mesh                          

Automatic generation of k-mesh.
Space group operators:
 irot       det(A)        alpha          n_x          n_y          n_z        tau_x        tau_y        tau_z
    1     1.000000     0.000001     1.000000     0.000000     0.000000     0.000000     0.000000     0.000000
    2     1.000000   180.000000     0.000000     1.000000     0.000000    -0.250000     0.000000    -0.250000
 
 Subroutine IBZKPT returns following result:
 ===========================================
 
 Found     30 irreducible k-points:
 
 Following reciprocal coordinates:
            Coordinates               Weight
  0.000000  0.000000  0.000000      1.000000
  0.250000  0.000000  0.000000      2.000000
  0.500000  0.000000  0.000000      1.000000
  0.000000  0.250000  0.000000      2.000000
  0.250000  0.250000  0.000000      4.000000
  0.500000  0.250000  0.000000      2.000000
  0.000000  0.500000  0.000000      1.000000
  0.250000  0.500000  0.000000      2.000000
  0.500000  0.500000  0.000000      1.000000
  0.000000  0.000000  0.250000      2.000000
  0.250000  0.000000  0.250000      2.000000
  0.500000  0.000000  0.250000      2.000000
 -0.250000  0.000000  0.250000      2.000000
  0.000000  0.250000  0.250000      4.000000
  0.250000  0.250000  0.250000      4.000000
  0.500000  0.250000  0.250000      4.000000
 -0.250000  0.250000  0.250000      4.000000
  0.000000  0.500000  0.250000      2.000000
  0.250000  0.500000  0.250000      2.000000
  0.500000  0.500000  0.250000      2.000000
 -0.250000  0.500000  0.250000      2.000000
  0.000000  0.000000  0.500000      1.000000
  0.250000  0.000000  0.500000      2.000000
  0.500000  0.000000  0.500000      1.000000
  0.000000  0.250000  0.500000      2.000000
  0.250000  0.250000  0.500000      4.000000
  0.500000  0.250000  0.500000      2.000000
  0.000000  0.500000  0.500000      1.000000
  0.250000  0.500000  0.500000      2.000000
  0.500000  0.500000  0.500000      1.000000
 
 Following cartesian coordinates:
            Coordinates               Weight
  0.000000  0.000000  0.000000      1.000000
  0.023773  0.000000 -0.004192      2.000000
  0.047547  0.000000 -0.008384      1.000000
  0.000000  0.023699  0.000000      2.000000
  0.023773  0.023699 -0.004192      4.000000
  0.047547  0.023699 -0.008384      2.000000
  0.000000  0.047399  0.000000      1.000000
  0.023773  0.047399 -0.004192      2.000000
  0.047547  0.047399 -0.008384      1.000000
  0.000000  0.000000  0.024384      2.000000
  0.023773  0.000000  0.020192      2.000000
  0.047547  0.000000  0.016000      2.000000
 -0.023773  0.000000  0.028576      2.000000
  0.000000  0.023699  0.024384      4.000000
  0.023773  0.023699  0.020192      4.000000
  0.047547  0.023699  0.016000      4.000000
 -0.023773  0.023699  0.028576      4.000000
  0.000000  0.047399  0.024384      2.000000
  0.023773  0.047399  0.020192      2.000000
  0.047547  0.047399  0.016000      2.000000
 -0.023773  0.047399  0.028576      2.000000
  0.000000  0.000000  0.048768      1.000000
  0.023773  0.000000  0.044576      2.000000
  0.047547  0.000000  0.040384      1.000000
  0.000000  0.023699  0.048768      2.000000
  0.023773  0.023699  0.044576      4.000000
  0.047547  0.023699  0.040384      2.000000
  0.000000  0.047399  0.048768      1.000000
  0.023773  0.047399  0.044576      2.000000
  0.047547  0.047399  0.040384      1.000000
 
 TETIRR: Found    192 inequivalent tetrahedra from      384
 
 Subroutine IBZKPT_HF returns following result:
 ==============================================
 
 Found     64 k-points in 1st BZ
 the following     64 k-points will be used (e.g. in the exchange kernel)
 Following reciprocal coordinates:   # in IRBZ
  0.000000  0.000000  0.000000    0.01562500   1 t-inv F
  0.250000  0.000000  0.000000    0.01562500   2 t-inv F
  0.500000  0.000000  0.000000    0.01562500   3 t-inv F
  0.000000  0.250000  0.000000    0.01562500   4 t-inv F
  0.250000  0.250000  0.000000    0.01562500   5 t-inv F
  0.500000  0.250000  0.000000    0.01562500   6 t-inv F
  0.000000  0.500000  0.000000    0.01562500   7 t-inv F
  0.250000  0.500000  0.000000    0.01562500   8 t-inv F
  0.500000  0.500000  0.000000    0.01562500   9 t-inv F
  0.000000  0.000000  0.250000    0.01562500  10 t-inv F
  0.250000  0.000000  0.250000    0.01562500  11 t-inv F
  0.500000  0.000000  0.250000    0.01562500  12 t-inv F
 -0.250000  0.000000  0.250000    0.01562500  13 t-inv F
  0.000000  0.250000  0.250000    0.01562500  14 t-inv F
  0.250000  0.250000  0.250000    0.01562500  15 t-inv F
  0.500000  0.250000  0.250000    0.01562500  16 t-inv F
 -0.250000  0.250000  0.250000    0.01562500  17 t-inv F
  0.000000  0.500000  0.250000    0.01562500  18 t-inv F
  0.250000  0.500000  0.250000    0.01562500  19 t-inv F
  0.500000  0.500000  0.250000    0.01562500  20 t-inv F
 -0.250000  0.500000  0.250000    0.01562500  21 t-inv F
  0.000000  0.000000  0.500000    0.01562500  22 t-inv F
  0.250000  0.000000  0.500000    0.01562500  23 t-inv F
  0.500000  0.000000  0.500000    0.01562500  24 t-inv F
  0.000000  0.250000  0.500000    0.01562500  25 t-inv F
  0.250000  0.250000  0.500000    0.01562500  26 t-inv F
  0.500000  0.250000  0.500000    0.01562500  27 t-inv F
  0.000000  0.500000  0.500000    0.01562500  28 t-inv F
  0.250000  0.500000  0.500000    0.01562500  29 t-inv F
  0.500000  0.500000  0.500000    0.01562500  30 t-inv F
 -0.250000  0.000000 -0.000000    0.01562500   2 t-inv F spinflp
 -0.250000  0.250000 -0.000000    0.01562500   5 t-inv F spinflp
 -0.250000  0.500000 -0.000000    0.01562500   8 t-inv F spinflp
  0.000000  0.000000 -0.250000    0.01562500  10 t-inv F spinflp
 -0.250000  0.000000 -0.250000    0.01562500  11 t-inv F spinflp
 -0.500000  0.000000 -0.250000    0.01562500  12 t-inv F spinflp
  0.250000  0.000000 -0.250000    0.01562500  13 t-inv F spinflp
  0.000000  0.250000 -0.250000    0.01562500  14 t-inv F spinflp
 -0.250000  0.250000 -0.250000    0.01562500  15 t-inv F spinflp
 -0.500000  0.250000 -0.250000    0.01562500  16 t-inv F spinflp
  0.250000  0.250000 -0.250000    0.01562500  17 t-inv F spinflp
  0.000000  0.500000 -0.250000    0.01562500  18 t-inv F spinflp
 -0.250000  0.500000 -0.250000    0.01562500  19 t-inv F spinflp
 -0.500000  0.500000 -0.250000    0.01562500  20 t-inv F spinflp
  0.250000  0.500000 -0.250000    0.01562500  21 t-inv F spinflp
 -0.250000  0.000000 -0.500000    0.01562500  23 t-inv F spinflp
 -0.250000  0.250000 -0.500000    0.01562500  26 t-inv F spinflp
 -0.250000  0.500000 -0.500000    0.01562500  29 t-inv F spinflp
  0.000000 -0.250000  0.000000    0.01562500   4 t-inv T
 -0.250000 -0.250000 -0.000000    0.01562500   5 t-inv T
  0.250000 -0.250000  0.000000    0.01562500   5 t-inv T spinflp
 -0.500000 -0.250000 -0.000000    0.01562500   6 t-inv T
  0.000000 -0.250000 -0.250000    0.01562500  14 t-inv T
  0.000000 -0.250000  0.250000    0.01562500  14 t-inv T spinflp
 -0.250000 -0.250000 -0.250000    0.01562500  15 t-inv T
  0.250000 -0.250000  0.250000    0.01562500  15 t-inv T spinflp
 -0.500000 -0.250000 -0.250000    0.01562500  16 t-inv T
  0.500000 -0.250000  0.250000    0.01562500  16 t-inv T spinflp
  0.250000 -0.250000 -0.250000    0.01562500  17 t-inv T
 -0.250000 -0.250000  0.250000    0.01562500  17 t-inv T spinflp
  0.000000 -0.250000 -0.500000    0.01562500  25 t-inv T
 -0.250000 -0.250000 -0.500000    0.01562500  26 t-inv T
  0.250000 -0.250000  0.500000    0.01562500  26 t-inv T spinflp
 -0.500000 -0.250000 -0.500000    0.01562500  27 t-inv T


--------------------------------------------------------------------------------------------------------




 Dimension of arrays:
   k-points           NKPTS =     30   k-points in BZ     NKDIM =     30   number of bands    NBANDS=    512
   number of dos      NEDOS =    301   number of ions     NIONS =     64
   non local maximal  LDIM  =      6   non local SUM 2l+1 LMDIM =     18
   total plane-waves  NPLWV = 829440
   max r-space proj   IRMAX =      1   max aug-charges    IRDMAX=  23173
   dimension x,y,z NGX =    96 NGY =   96 NGZ =   90
   dimension x,y,z NGXF=   192 NGYF=  192 NGZF=  180
   support grid    NGXF=   192 NGYF=  192 NGZF=  180
   ions per type =              32  16  16
   NGX,Y,Z   is equivalent  to a cutoff of  15.18, 15.13, 14.37 a.u.
   NGXF,Y,Z  is equivalent  to a cutoff of  30.35, 30.26, 28.74 a.u.

 SYSTEM =  CuFeS2                                  
 POSCAR =  generated by phonopy                    

 Startparameter for this run:
   NWRITE =      2    write-flag & timer
   PREC   = accura    normal or accurate (medium, high low for compatibility)
   ISTART =      1    job   : 0-new  1-cont  2-samecut
   ICHARG =      1    charge: 1-file 2-atom 10-const
   ISPIN  =      2    spin polarized calculation?
   LNONCOLLINEAR =      F non collinear calculations
   LSORBIT =      F    spin-orbit coupling
   INIWAV =      1    electr: 0-lowe 1-rand  2-diag
   LASPH  =      F    aspherical Exc in radial PAW
   METAGGA=      F    non-selfconsistent MetaGGA calc.

 Electronic Relaxation 1
   ENCUT  =  700.0 eV  51.45 Ry    7.17 a.u.  22.69 22.76 22.46*2*pi/ulx,y,z
   ENINI  =  700.0     initial cutoff
   ENAUG  =  758.2 eV  augmentation charge cutoff
   NELM   =    500;   NELMIN=  2; NELMDL=  0     # of ELM steps 
   EDIFF  = 0.1E-07   stopping-criterion for ELM
   LREAL  =      F    real-space projection
   NLSPLINE    = F    spline interpolate recip. space projectors
   LCOMPAT=      F    compatible to vasp.4.4
   GGA_COMPAT  = T    GGA compatible to vasp.4.4-vasp.4.6
   LMAXPAW     = -100 max onsite density
   LMAXMIX     =    4 max onsite mixed and CHGCAR
   VOSKOWN=      0    Vosko Wilk Nusair interpolation
   ROPT   =    0.00000   0.00000   0.00000
 Ionic relaxation
   EDIFFG = -.1E-04   stopping-criterion for IOM
   NSW    =      0    number of steps for IOM
   NBLOCK =      1;   KBLOCK =      1    inner block; outer block 
   IBRION =     -1    ionic relax: 0-MD 1-quasi-New 2-CG
   NFREE  =      0    steps in history (QN), initial steepest desc. (CG)
   ISIF   =      2    stress and relaxation
   IWAVPR =     10    prediction:  0-non 1-charg 2-wave 3-comb
   ISYM   =      2    0-nonsym 1-usesym 2-fastsym
   LCORR  =      T    Harris-Foulkes like correction to forces

   POTIM  = 0.5000    time-step for ionic-motion
   TEIN   =    0.0    initial temperature
   TEBEG  =    0.0;   TEEND  =   0.0 temperature during run
   SMASS  =  -3.00    Nose mass-parameter (am)
   estimated Nose-frequenzy (Omega)   =  0.10E-29 period in steps =****** mass=  -0.253E-26a.u.
   SCALEE = 1.0000    scale energy and forces
   NPACO  =    256;   APACO  = 16.0  distance and # of slots for P.C.
   PSTRESS=    0.0 pullay stress

  Mass of Ions in am
   POMASS =  32.07 63.55 55.85
  Ionic Valenz
   ZVAL   =   6.00 17.00 14.00
  Atomic Wigner-Seitz radii
   RWIGS  =  -1.00 -1.00 -1.00
  virtual crystal weights 
   VCA    =   1.00  1.00  1.00
   NELECT =     688.0000    total number of electrons
   NUPDOWN=      -1.0000    fix difference up-down

 DOS related values:
   EMIN   =  10.00;   EMAX   =-10.00  energy-range for DOS
   EFERMI =   0.00
   ISMEAR =    -5;   SIGMA  =   0.03  broadening in eV -4-tet -1-fermi 0-gaus

 Electronic relaxation 2 (details)
   IALGO  =     38    algorithm
   LDIAG  =      T    sub-space diagonalisation (order eigenvalues)
   LSUBROT=      F    optimize rotation matrix (better conditioning)
   TURBO    =      0    0=normal 1=particle mesh
   IRESTART =      0    0=no restart 2=restart with 2 vectors
   NREBOOT  =      0    no. of reboots
   NMIN     =      0    reboot dimension
   EREF     =   0.00    reference energy to select bands
   IMIX   =      4    mixing-type and parameters
     AMIX     =   0.40;   BMIX     =  1.00
     AMIX_MAG =   1.60;   BMIX_MAG =  1.00
     AMIN     =   0.10
     WC   =   100.;   INIMIX=   1;  MIXPRE=   1;  MAXMIX= -45

 Intra band minimization:
   WEIMIN = 0.0000     energy-eigenvalue tresh-hold
   EBREAK =  0.49E-11  absolut break condition
   DEPER  =   0.30     relativ break condition  

   TIME   =   0.40     timestep for ELM

  volume/ion in A,a.u.               =      17.77       119.92
  Fermi-wavevector in a.u.,A,eV,Ry     =   1.384548  2.616417 26.082018  1.916974
  Thomas-Fermi vector in A             =   2.509042
 
 Write flags
   LWAVE        =      T    write WAVECAR
   LDOWNSAMPLE  =      F    k-point downsampling of WAVECAR
   LCHARG       =      T    write CHGCAR
   LVTOT        =      F    write LOCPOT, total local potential
   LVHAR        =      F    write LOCPOT, Hartree potential only
   LELF         =      F    write electronic localiz. function (ELF)
   LORBIT       =     11    0 simple, 1 ext, 2 COOP (PROOUT), +10 PAW based schemes


 Dipole corrections
   LMONO  =      F    monopole corrections only (constant potential shift)
   LDIPOL =      F    correct potential (dipole corrections)
   IDIPOL =      0    1-x, 2-y, 3-z, 4-all directions 
   EPSILON=  1.0000000 bulk dielectric constant

 LDA+U is selected, type is set to LDAUTYPE =  2
   angular momentum for each species LDAUL =     2    2    2
   U (eV)           for each species LDAUU =   0.0  0.1  4.7
   J (eV)           for each species LDAUJ =   0.0  0.0  0.0
 Exchange correlation treatment:
   GGA     =    PS    GGA type
   LEXCH   =    14    internal setting for exchange type
   VOSKOWN=      0    Vosko Wilk Nusair interpolation
   LHFCALC =     F    Hartree Fock is set to
   LHFONE  =     F    Hartree Fock one center treatment
   AEXX    =    0.0000 exact exchange contribution

 Linear response parameters
   LEPSILON=     T    determine dielectric tensor
   LRPA    =     F    only Hartree local field effects (RPA)
   LNABLA  =     F    use nabla operator in PAW spheres
   LVEL    =     F    velocity operator in full k-point grid
   LINTERFAST=   F  fast interpolation
   KINTER  =     0    interpolate to denser k-point grid
   CSHIFT  =0.1000    complex shift for real part using Kramers Kronig
   OMEGAMAX=  -1.0    maximum frequency
   DEG_THRESHOLD= 0.2000000E-02 threshold for treating states as degnerate
   RTIME   =   -0.100 relaxation time in fs
  (WPLASMAI=    0.000 imaginary part of plasma frequency in eV, 0.658/RTIME)
   DFIELD  = 0.0000000 0.0000000 0.0000000 field for delta impulse in time
 
 Orbital magnetization related:
   ORBITALMAG=     F  switch on orbital magnetization
   LCHIMAG   =     F  perturbation theory with respect to B field
   DQ        =  0.001000  dq finite difference perturbation B field
   LLRAUG    =     F  two centre corrections for induced B field

 PEAD related settings:
   LPEAD      =     T    switch on PEAD
   IPEAD      =     4    finite difference order for dpsi/dk
   LCALCPOL   =     T    calculate macroscopic polarization
   LCALCEPS   =     F    calculate dielectric tensor
   EFIELD_PEAD=    0.0000    0.0000    0.0000
   SKIP_EDOTP =     F
   LRPA       =     F
   SKIP_SCF   =     F


--------------------------------------------------------------------------------------------------------


 Static calculation
 charge density and potential will be updated during run
 spin polarized calculation
 Variant of blocked Davidson
 Davidson routine will perform the subspace rotation
 perform sub-space diagonalisation
    after iterative eigenvector-optimisation
 modified Broyden-mixing scheme, WC =      100.0
 initial mixing is a Kerker type mixing with AMIX =  0.4000 and BMIX =      1.0000
 Hartree-type preconditioning will be used
 using additional bands          168
 reciprocal scheme for non local part
 use partial core corrections
 calculate Harris-corrections to forces 
   (improved forces if not selfconsistent)
 use gradient corrections 
 use of overlap-Matrix (Vanderbilt PP)
 Fermi weights with tetrahedron method with Bloechl corrections


--------------------------------------------------------------------------------------------------------


  energy-cutoff  :      700.00
  volume of cell :     1137.34
      direct lattice vectors                 reciprocal lattice vectors
    10.515934944  0.000000000  0.000000000     0.095093780  0.000000000 -0.016767599
     0.000000000 10.548793693  0.000000000     0.000000000  0.094797569  0.000000000
     1.807825884  0.000000000 10.252690069     0.000000000  0.000000000  0.097535378

  length of vectors
    10.515934944 10.548793693 10.410854340     0.096560754  0.094797569  0.097535378


 
 old parameters found on file WAVECAR:
  energy-cutoff  :      700.00
  volume of cell :     1137.35
      direct lattice vectors                 reciprocal lattice vectors
    10.515934944  0.000000000  0.000000000     0.095093780  0.000000000 -0.016767599
     0.000000000 10.548922019  0.000000000     0.000000000  0.094796416  0.000000000
     1.807825884  0.000000000 10.252690069     0.000000000  0.000000000  0.097535378

  length of vectors

 
 k-points in units of 2pi/SCALE and weight: Automatic mesh                          
   0.00000000  0.00000000  0.00000000       0.016
   0.02377344  0.00000000 -0.00419190       0.031
   0.04754689  0.00000000 -0.00838380       0.016
   0.00000000  0.02369939  0.00000000       0.031
   0.02377344  0.02369939 -0.00419190       0.062
   0.04754689  0.02369939 -0.00838380       0.031
   0.00000000  0.04739878  0.00000000       0.016
   0.02377344  0.04739878 -0.00419190       0.031
   0.04754689  0.04739878 -0.00838380       0.016
   0.00000000  0.00000000  0.02438384       0.031
   0.02377344  0.00000000  0.02019194       0.031
   0.04754689  0.00000000  0.01600004       0.031
  -0.02377344  0.00000000  0.02857574       0.031
   0.00000000  0.02369939  0.02438384       0.062
   0.02377344  0.02369939  0.02019194       0.062
   0.04754689  0.02369939  0.01600004       0.062
  -0.02377344  0.02369939  0.02857574       0.062
   0.00000000  0.04739878  0.02438384       0.031
   0.02377344  0.04739878  0.02019194       0.031
   0.04754689  0.04739878  0.01600004       0.031
  -0.02377344  0.04739878  0.02857574       0.031
   0.00000000  0.00000000  0.04876769       0.016
   0.02377344  0.00000000  0.04457579       0.031
   0.04754689  0.00000000  0.04038389       0.016
   0.00000000  0.02369939  0.04876769       0.031
   0.02377344  0.02369939  0.04457579       0.062
   0.04754689  0.02369939  0.04038389       0.031
   0.00000000  0.04739878  0.04876769       0.016
   0.02377344  0.04739878  0.04457579       0.031
   0.04754689  0.04739878  0.04038389       0.016
 
 k-points in reciprocal lattice and weights: Automatic mesh                          
   0.00000000  0.00000000  0.00000000       0.016
   0.25000000  0.00000000  0.00000000       0.031
   0.50000000  0.00000000  0.00000000       0.016
   0.00000000  0.25000000  0.00000000       0.031
   0.25000000  0.25000000  0.00000000       0.062
   0.50000000  0.25000000  0.00000000       0.031
   0.00000000  0.50000000  0.00000000       0.016
   0.25000000  0.50000000  0.00000000       0.031
   0.50000000  0.50000000  0.00000000       0.016
   0.00000000  0.00000000  0.25000000       0.031
   0.25000000  0.00000000  0.25000000       0.031
   0.50000000  0.00000000  0.25000000       0.031
  -0.25000000  0.00000000  0.25000000       0.031
   0.00000000  0.25000000  0.25000000       0.062
   0.25000000  0.25000000  0.25000000       0.062
   0.50000000  0.25000000  0.25000000       0.062
  -0.25000000  0.25000000  0.25000000       0.062
   0.00000000  0.50000000  0.25000000       0.031
   0.25000000  0.50000000  0.25000000       0.031
   0.50000000  0.50000000  0.25000000       0.031
  -0.25000000  0.50000000  0.25000000       0.031
   0.00000000  0.00000000  0.50000000       0.016
   0.25000000  0.00000000  0.50000000       0.031
   0.50000000  0.00000000  0.50000000       0.016
   0.00000000  0.25000000  0.50000000       0.031
   0.25000000  0.25000000  0.50000000       0.062
   0.50000000  0.25000000  0.50000000       0.031
   0.00000000  0.50000000  0.50000000       0.016
   0.25000000  0.50000000  0.50000000       0.031
   0.50000000  0.50000000  0.50000000       0.016
 
 position of ions in fractional coordinates (direct lattice) 
   0.12693630  0.11347705  0.12662978
   0.62693628  0.11347705  0.12662978
   0.12693630  0.61347705  0.12662978
   0.62693628  0.61347705  0.12662978
   0.37306372  0.36347705  0.12337022
   0.87306372  0.36347705  0.12337022
   0.37306372  0.86347705  0.12337022
   0.87306372  0.86347705  0.12337022
   0.12500000  0.36834858  0.87500000
   0.62500000  0.36834858  0.87500000
   0.12500000  0.86834858  0.87500000
   0.62500000  0.86834858  0.87500000
   0.37500000  0.11880242  0.87500000
   0.87500000  0.11880242  0.87500000
   0.37500000  0.61880241  0.87500000
   0.87500000  0.61880241  0.87500000
   0.12306371  0.11347705  0.62337022
   0.62306372  0.11347705  0.62337022
   0.12306371  0.61347705  0.62337022
   0.62306372  0.61347705  0.62337022
   0.37693628  0.36347705  0.62662978
   0.87693628  0.36347705  0.62662978
   0.37693628  0.86347705  0.62662978
   0.87693628  0.86347705  0.62662978
   0.37500000  0.11834858  0.37500000
   0.87500000  0.11834858  0.37500000
   0.37500000  0.61834858  0.37500000
   0.87500000  0.61834858  0.37500000
   0.12500000  0.36880241  0.37500000
   0.62500000  0.36880241  0.37500000
   0.12500000  0.86880241  0.37500000
   0.62500000  0.86880241  0.37500000
   0.99510636  0.00896248  0.50010861
   0.49510636  0.00896248  0.50010861
   0.99510636  0.50896248  0.50010861
   0.49510636  0.50896248  0.50010861
   0.25489364  0.00896248  0.24989139
   0.75489364  0.00896248  0.24989139
   0.25489364  0.50896248  0.24989139
   0.75489364  0.50896248  0.24989139
   0.24510636  0.25896248  0.00010861
   0.74510636  0.25896248  0.00010861
   0.24510636  0.75896248  0.00010861
   0.74510636  0.75896248  0.00010861
   0.00489364  0.25896248  0.74989139
   0.50489364  0.25896248  0.74989139
   0.00489364  0.75896248  0.74989139
   0.50489364  0.75896248  0.74989139
   0.99686568  0.00898498  0.00222484
   0.49686568  0.00898498  0.00222484
   0.99686568  0.50898498  0.00222484
   0.49686568  0.50898498  0.00222484
   0.25313432  0.00898498  0.74777516
   0.75313432  0.00898498  0.74777516
   0.25313432  0.50898498  0.74777516
   0.75313432  0.50898498  0.74777516
   0.24686568  0.25898498  0.50222484
   0.74686568  0.25898498  0.50222484
   0.24686568  0.75898498  0.50222484
   0.74686568  0.75898498  0.50222484
   0.00313432  0.25898498  0.24777516
   0.50313432  0.25898498  0.24777516
   0.00313432  0.75898498  0.24777516
   0.50313432  0.75898498  0.24777516
 
 position of ions in cartesian coordinates  (Angst):
   1.56377844  1.19704595  1.29829593
   6.82174575  1.19704595  1.29829593
   1.56377844  6.47144280  1.29829593
   6.82174575  6.47144280  1.29829593
   4.14614566  3.83424438  1.26487659
   9.40411313  3.83424438  1.26487659
   4.14614566  9.10864122  1.26487659
   9.40411313  9.10864122  1.26487659
   2.89633952  3.88563323  8.97110381
   8.15430699  3.88563323  8.97110381
   2.89633952  9.16003007  8.97110381
   8.15430699  9.16003007  8.97110381
   5.52532325  1.25322225  8.97110381
  10.78329072  1.25322225  8.97110381
   5.52532325  6.52761893  8.97110381
  10.78329072  6.52761893  8.97110381
   2.42107478  1.19704595  6.39122162
   7.67904234  1.19704595  6.39122162
   2.42107478  6.47144280  6.39122162
   7.67904234  6.47144280  6.39122162
   5.09667496  3.83424438  6.42464096
  10.35464243  3.83424438  6.42464096
   5.09667496  9.10864122  6.42464096
  10.35464243  9.10864122  6.42464096
   4.62141031  1.24843472  3.84475878
   9.87937778  1.24843472  3.84475878
   4.62141031  6.52283165  3.84475878
   9.87937778  6.52283165  3.84475878
   1.99242657  3.89042051  3.84475878
   7.25039405  3.89042051  3.84475878
   1.99242657  9.16481736  3.84475878
   7.25039405  9.16481736  3.84475878
  11.36858307  0.09454336  5.12745859
   6.11061560  0.09454336  5.12745859
  11.36858307  5.36894020  5.12745859
   6.11061560  5.36894020  5.12745859
   3.13220502  0.09454336  2.56205897
   8.39017249  0.09454336  2.56205897
   3.13220502  5.36894020  2.56205897
   8.39017249  5.36894020  2.56205897
   2.57771892  2.73174178  0.00111355
   7.83568640  2.73174178  0.00111355
   2.57771892  8.00613863  0.00111355
   7.83568640  8.00613863  0.00111355
   1.40713422  2.73174178  7.68840400
   6.66510170  2.73174178  7.68840400
   1.40713422  8.00613863  7.68840400
   6.66510170  8.00613863  7.68840400
  10.48699672  0.09478066  0.02281064
   5.22902925  0.09478066  0.02281064
  10.48699672  5.36917751  0.02281064
   5.22902925  5.36917751  0.02281064
   4.01379137  0.09478066  7.66670691
   9.27175885  0.09478066  7.66670691
   4.01379137  5.36917751  7.66670691
   9.27175885  5.36917751  7.66670691
   3.50395845  2.73197909  5.14915568
   8.76192592  2.73197909  5.14915568
   3.50395845  8.00637593  5.14915568
   8.76192592  8.00637593  5.14915568
   0.48089470  2.73197909  2.54036188
   5.73886217  2.73197909  2.54036188
   0.48089470  8.00637593  2.54036188
   5.73886217  8.00637593  2.54036188
 


--------------------------------------------------------------------------------------------------------


 k-point  1 :   0.0000 0.0000 0.0000  plane waves:   47819
 k-point  2 :   0.2500 0.0000 0.0000  plane waves:   47854
 k-point  3 :   0.5000 0.0000 0.0000  plane waves:   47872
 k-point  4 :   0.0000 0.2500 0.0000  plane waves:   47828
 k-point  5 :   0.2500 0.2500 0.0000  plane waves:   47842
 k-point  6 :   0.5000 0.2500 0.0000  plane waves:   47830
 k-point  7 :   0.0000 0.5000 0.0000  plane waves:   47882
 k-point  8 :   0.2500 0.5000 0.0000  plane waves:   47842
 k-point  9 :   0.5000 0.5000 0.0000  plane waves:   47852
 k-point 10 :   0.0000 0.0000 0.2500  plane waves:   47836
 k-point 11 :   0.2500 0.0000 0.2500  plane waves:   47784
 k-point 12 :   0.5000 0.0000 0.2500  plane waves:   47828
 k-point 13 :  -0.2500 0.0000 0.2500  plane waves:   47868
 k-point 14 :   0.0000 0.2500 0.2500  plane waves:   47834
 k-point 15 :   0.2500 0.2500 0.2500  plane waves:   47804
 k-point 16 :   0.5000 0.2500 0.2500  plane waves:   47804
 k-point 17 :  -0.2500 0.2500 0.2500  plane waves:   47836
 k-point 18 :   0.0000 0.5000 0.2500  plane waves:   47846
 k-point 19 :   0.2500 0.5000 0.2500  plane waves:   47842
 k-point 20 :   0.5000 0.5000 0.2500  plane waves:   47854
 k-point 21 :  -0.2500 0.5000 0.2500  plane waves:   47820
 k-point 22 :   0.0000 0.0000 0.5000  plane waves:   47824
 k-point 23 :   0.2500 0.0000 0.5000  plane waves:   47835
 k-point 24 :   0.5000 0.0000 0.5000  plane waves:   47836
 k-point 25 :   0.0000 0.2500 0.5000  plane waves:   47838
 k-point 26 :   0.2500 0.2500 0.5000  plane waves:   47793
 k-point 27 :   0.5000 0.2500 0.5000  plane waves:   47820
 k-point 28 :   0.0000 0.5000 0.5000  plane waves:   47828
 k-point 29 :   0.2500 0.5000 0.5000  plane waves:   47782
 k-point 30 :   0.5000 0.5000 0.5000  plane waves:   47760

 maximum and minimum number of plane-waves per node :     47882    47760

 maximum number of plane-waves:     47882
 maximum index in each direction: 
   IXMAX=   22   IYMAX=   22   IZMAX=   22
   IXMIN=  -23   IYMIN=  -23   IZMIN=  -22


 serial   3D FFT for wavefunctions
 parallel 3D FFT for charge:
    minimum data exchange during FFTs selected (reduces bandwidth)


 total amount of memory used by VASP MPI-rank0   873689. kBytes
=======================================================================

   base      :      30000. kBytes
   nonl-proj :     673021. kBytes
   fftplans  :       4588. kBytes
   grid      :      69719. kBytes
   one-center:       1990. kBytes
   wavefun   :      94371. kBytes
 
     INWAV:  cpu time   58.4048: real time   58.7602
 Broyden mixing: mesh for mixing (old mesh)
   NGX = 45   NGY = 45   NGZ = 45
  (NGX  =192   NGY  =192   NGZ  =180)
  gives a total of  91125 points

 initial charge density was supplied:
 number of electron     688.0000140 magnetization       0.0000000
 keeping initial charge density in first step


--------------------------------------------------------------------------------------------------------


 Maximum index for augmentation-charges          888 (set IRDMAX)


--------------------------------------------------------------------------------------------------------


 First call to EWALD:  gamma=   0.170
 Maximum number of real-space cells 3x 3x 3
 Maximum number of reciprocal cells 3x 3x 3

    FEWALD:  cpu time    0.0029: real time    0.0030


--------------------------------------- Iteration      1(   1)  ---------------------------------------


    POTLOK:  cpu time    0.3329: real time    0.3810
    SETDIJ:  cpu time    0.0141: real time    0.0142
     EDDAV:  cpu time  786.5963: real time  791.5715
 BZINTS: Fermi energy:  5.199957;688.000000 electrons
         Band energy:***********;  BLOECHL correction:  0.000000
       DOS:  cpu time    0.0411: real time    0.0413
    CHARGE:  cpu time    9.3068: real time    9.3496
    MIXING:  cpu time    0.0024: real time    0.0024
    --------------------------------------------
      LOOP:  cpu time  796.2935: real time  801.3601

 eigenvalue-minimisations  : 92160
 total energy-change (2. order) :-0.3248288E+03  (-0.1999858E-05)
 number of electron     688.0000140 magnetization       0.0000000
 augmentation part      282.3021658 magnetization       0.0000000

 Broyden mixing:
  rms(total) = 0.14842E-02    rms(broyden)= 0.14841E-02
  rms(prec ) = 0.18233E-02
  weight for this iteration     100.00

 Free energy of the ion-electron system (eV)
  ---------------------------------------------------
  alpha Z        PSCENC =      2383.77420049
  Ewald energy   TEWEN  =    -62821.39891510
  -Hartree energ DENC   =    -42740.30206269
  -exchange      EXHF   =         0.00000000
  -V(xc)+E(xc)   XCENC  =      3286.44634983
  PAW double counting   =    112006.06846245  -115695.00785550
  entropy T*S    EENTRO =         0.00000000
  eigenvalues    EBANDS =    -10764.47407089
  atomic energy  EATOM  =    114020.06510763
  Solvation  Ediel_sol  =         0.00000000
  ---------------------------------------------------
  free energy    TOTEN  =      -324.82878378 eV

  energy without entropy =     -324.82878378  energy(sigma->0) =     -324.82878378


--------------------------------------------------------------------------------------------------------




--------------------------------------- Iteration      1(   2)  ---------------------------------------


    POTLOK:  cpu time    0.1298: real time    0.1317
    SETDIJ:  cpu time    0.0130: real time    0.0130
     EDDAV:  cpu time  523.4913: real time  527.1325
 BZINTS: Fermi energy:  5.259830;688.000000 electrons
         Band energy:***********;  BLOECHL correction:  0.000000
       DOS:  cpu time    0.0482: real time    0.0489
    CHARGE:  cpu time    3.9796: real time    4.0059
    MIXING:  cpu time    0.0021: real time    0.0059
    --------------------------------------------
      LOOP:  cpu time  527.6641: real time  531.3378

 eigenvalue-minimisations  : 77056
 total energy-change (2. order) : 0.5918089E-05  (-0.1149880E-05)
 number of electron     688.0000140 magnetization       0.0000000
 augmentation part      282.3015868 magnetization       0.0000000

 Broyden mixing:
  rms(total) = 0.11504E-02    rms(broyden)= 0.11504E-02
  rms(prec ) = 0.13614E-02
  weight for this iteration     100.00

 eigenvalues of (default mixing * dielectric matrix)
  average eigenvalue GAMMA=   0.5304
  0.5304

 Free energy of the ion-electron system (eV)
  ---------------------------------------------------
  alpha Z        PSCENC =      2383.77420049
  Ewald energy   TEWEN  =    -62821.39891510
  -Hartree energ DENC   =    -42740.30113726
  -exchange      EXHF   =         0.00000000
  -V(xc)+E(xc)   XCENC  =      3286.44572229
  PAW double counting   =    112006.06713368  -115695.00808926
  entropy T*S    EENTRO =         0.00000000
  eigenvalues    EBANDS =    -10764.47280033
  atomic energy  EATOM  =    114020.06510763
  Solvation  Ediel_sol  =         0.00000000
  ---------------------------------------------------
  free energy    TOTEN  =      -324.82877786 eV

  energy without entropy =     -324.82877786  energy(sigma->0) =     -324.82877786


--------------------------------------------------------------------------------------------------------




--------------------------------------- Iteration      1(   3)  ---------------------------------------


    POTLOK:  cpu time    0.1338: real time    0.1378
    SETDIJ:  cpu time    0.0128: real time    0.0129
     EDDAV:  cpu time  790.3885: real time  795.6517
 BZINTS: Fermi energy:  5.120765;688.000000 electrons
         Band energy:***********;  BLOECHL correction:  0.000000
       DOS:  cpu time    0.0405: real time    0.0406
    CHARGE:  cpu time    3.9537: real time    3.9801
    MIXING:  cpu time    0.0015: real time    0.0020
    --------------------------------------------
      LOOP:  cpu time  794.5307: real time  799.8252

 eigenvalue-minimisations  :105472
 total energy-change (2. order) : 0.1070628E-05  (-0.1430011E-05)
 number of electron     688.0000140 magnetization       0.0000000
 augmentation part      282.3020175 magnetization       0.0000000

 Broyden mixing:
  rms(total) = 0.12042E-02    rms(broyden)= 0.12042E-02
  rms(prec ) = 0.13938E-02
  weight for this iteration     100.00

 eigenvalues of (default mixing * dielectric matrix)
  average eigenvalue GAMMA=   0.9806
  1.6465  0.3147

 Free energy of the ion-electron system (eV)
  ---------------------------------------------------
  alpha Z        PSCENC =      2383.77420049
  Ewald energy   TEWEN  =    -62821.39891510
  -Hartree energ DENC   =    -42740.32384777
  -exchange      EXHF   =         0.00000000
  -V(xc)+E(xc)   XCENC  =      3286.44806651
  PAW double counting   =    112006.05634593  -115694.99530958
  entropy T*S    EENTRO =         0.00000000
  eigenvalues    EBANDS =    -10764.45442491
  atomic energy  EATOM  =    114020.06510763
  Solvation  Ediel_sol  =         0.00000000
  ---------------------------------------------------
  free energy    TOTEN  =      -324.82877679 eV

  energy without entropy =     -324.82877679  energy(sigma->0) =     -324.82877679


--------------------------------------------------------------------------------------------------------




--------------------------------------- Iteration      1(   4)  ---------------------------------------


    POTLOK:  cpu time    0.1253: real time    0.1264
    SETDIJ:  cpu time    0.0128: real time    0.0128
     EDDAV:  cpu time  501.8797: real time  505.4602
 BZINTS: Fermi energy:  5.260371;688.000000 electrons
         Band energy:***********;  BLOECHL correction:  0.000000
       DOS:  cpu time    0.0479: real time    0.0481
    CHARGE:  cpu time    3.9466: real time    3.9745
    MIXING:  cpu time    0.0014: real time    0.0014
    --------------------------------------------
      LOOP:  cpu time  506.0137: real time  509.6234

 eigenvalue-minimisations  : 80384
 total energy-change (2. order) : 0.1113047E-05  (-0.5173446E-06)
 number of electron     688.0000140 magnetization       0.0000000
 augmentation part      282.3022265 magnetization       0.0000000

 Broyden mixing:
  rms(total) = 0.29175E-03    rms(broyden)= 0.29173E-03
  rms(prec ) = 0.33024E-03
  weight for this iteration     100.00

 eigenvalues of (default mixing * dielectric matrix)
  average eigenvalue GAMMA=   0.9756
  1.9184  0.6532  0.3551

 Free energy of the ion-electron system (eV)
  ---------------------------------------------------
  alpha Z        PSCENC =      2383.77420049
  Ewald energy   TEWEN  =    -62821.39891510
  -Hartree energ DENC   =    -42740.29248259
  -exchange      EXHF   =         0.00000000
  -V(xc)+E(xc)   XCENC  =      3286.44662932
  PAW double counting   =    112005.98424110  -115694.92209822
  entropy T*S    EENTRO =         0.00000000
  eigenvalues    EBANDS =    -10764.48545831
  atomic energy  EATOM  =    114020.06510763
  Solvation  Ediel_sol  =         0.00000000
  ---------------------------------------------------
  free energy    TOTEN  =      -324.82877568 eV

  energy without entropy =     -324.82877568  energy(sigma->0) =     -324.82877568


--------------------------------------------------------------------------------------------------------




--------------------------------------- Iteration      1(   5)  ---------------------------------------


    POTLOK:  cpu time    0.1236: real time    0.1246
    SETDIJ:  cpu time    0.0128: real time    0.0128
     EDDAV:  cpu time  674.2830: real time  678.8361
 BZINTS: Fermi energy:  5.247526;688.000000 electrons
         Band energy:***********;  BLOECHL correction:  0.000000
       DOS:  cpu time    0.0480: real time    0.0481
    CHARGE:  cpu time    3.9571: real time    3.9862
    MIXING:  cpu time    0.0014: real time    0.0014
    --------------------------------------------
      LOOP:  cpu time  678.4257: real time  683.0092

 eigenvalue-minimisations  : 92160
 total energy-change (2. order) : 0.3474997E-07  (-0.9233034E-07)
 number of electron     688.0000140 magnetization       0.0000000
 augmentation part      282.3018758 magnetization       0.0000000

 Broyden mixing:
  rms(total) = 0.13127E-03    rms(broyden)= 0.13126E-03
  rms(prec ) = 0.14296E-03
  weight for this iteration     100.00

 eigenvalues of (default mixing * dielectric matrix)
  average eigenvalue GAMMA=   1.0245
  1.7629  1.2474  0.3524  0.7353

 Free energy of the ion-electron system (eV)
  ---------------------------------------------------
  alpha Z        PSCENC =      2383.77420049
  Ewald energy   TEWEN  =    -62821.39891510
  -Hartree energ DENC   =    -42740.30916740
  -exchange      EXHF   =         0.00000000
  -V(xc)+E(xc)   XCENC  =      3286.44680844
  PAW double counting   =    112006.02715345  -115694.96808120
  entropy T*S    EENTRO =         0.00000000
  eigenvalues    EBANDS =    -10764.46588195
  atomic energy  EATOM  =    114020.06510763
  Solvation  Ediel_sol  =         0.00000000
  ---------------------------------------------------
  free energy    TOTEN  =      -324.82877565 eV

  energy without entropy =     -324.82877565  energy(sigma->0) =     -324.82877565


--------------------------------------------------------------------------------------------------------




--------------------------------------- Iteration      1(   6)  ---------------------------------------


    POTLOK:  cpu time    0.1252: real time    0.1260
    SETDIJ:  cpu time    0.0127: real time    0.0128
     EDDAV:  cpu time  383.2493: real time  386.1488
 BZINTS: Fermi energy:  5.245675;688.000000 electrons
         Band energy:***********;  BLOECHL correction:  0.000000
       DOS:  cpu time    0.0508: real time    0.0512
    CHARGE:  cpu time    3.9525: real time    3.9805
    MIXING:  cpu time    0.0015: real time    0.0015
    --------------------------------------------
      LOOP:  cpu time  387.3920: real time  390.3208

 eigenvalue-minimisations  : 68096
 total energy-change (2. order) : 0.1472654E-07  (-0.7022593E-08)
 number of electron     688.0000140 magnetization       0.0000000
 augmentation part      282.3019489 magnetization       0.0000000

 Broyden mixing:
  rms(total) = 0.85129E-04    rms(broyden)= 0.85128E-04
  rms(prec ) = 0.88767E-04
  weight for this iteration     100.00

 eigenvalues of (default mixing * dielectric matrix)
  average eigenvalue GAMMA=   1.0235
  1.7476  1.7476  0.3514  0.6355  0.6355

 Free energy of the ion-electron system (eV)
  ---------------------------------------------------
  alpha Z        PSCENC =      2383.77420049
  Ewald energy   TEWEN  =    -62821.39891510
  -Hartree energ DENC   =    -42740.30309666
  -exchange      EXHF   =         0.00000000
  -V(xc)+E(xc)   XCENC  =      3286.44657816
  PAW double counting   =    112006.04715055  -115694.98674389
  entropy T*S    EENTRO =         0.00000000
  eigenvalues    EBANDS =    -10764.47305681
  atomic energy  EATOM  =    114020.06510763
  Solvation  Ediel_sol  =         0.00000000
  ---------------------------------------------------
  free energy    TOTEN  =      -324.82877563 eV

  energy without entropy =     -324.82877563  energy(sigma->0) =     -324.82877563


--------------------------------------------------------------------------------------------------------




--------------------------------------- Iteration      1(   7)  ---------------------------------------


    POTLOK:  cpu time    0.1217: real time    0.1262
    SETDIJ:  cpu time    0.0129: real time    0.0130
     EDDAV:  cpu time  601.9691: real time  606.4970
 BZINTS: Fermi energy:  5.244586;688.000000 electrons
         Band energy:***********;  BLOECHL correction:  0.000000
       DOS:  cpu time    0.0488: real time    0.0505
    CHARGE:  cpu time    4.0089: real time    4.0667
    MIXING:  cpu time    0.0065: real time    0.0572
    --------------------------------------------
      LOOP:  cpu time  606.1679: real time  610.8106

 eigenvalue-minimisations  : 77824
 total energy-change (2. order) : 0.1021544E-07  (-0.1908141E-08)
 number of electron     688.0000140 magnetization       0.0000000
 augmentation part      282.3018913 magnetization       0.0000000

 Broyden mixing:
  rms(total) = 0.43386E-04    rms(broyden)= 0.43386E-04
  rms(prec ) = 0.48026E-04
  weight for this iteration     100.00

 eigenvalues of (default mixing * dielectric matrix)
  average eigenvalue GAMMA=   1.0852
  2.0002  2.0002  0.3507  0.8795  0.6403  0.6403

 Free energy of the ion-electron system (eV)
  ---------------------------------------------------
  alpha Z        PSCENC =      2383.77420049
  Ewald energy   TEWEN  =    -62821.39891510
  -Hartree energ DENC   =    -42740.30800046
  -exchange      EXHF   =         0.00000000
  -V(xc)+E(xc)   XCENC  =      3286.44674658
  PAW double counting   =    112006.05781015  -115694.99821980
  entropy T*S    EENTRO =         0.00000000
  eigenvalues    EBANDS =    -10764.46750511
  atomic energy  EATOM  =    114020.06510763
  Solvation  Ediel_sol  =         0.00000000
  ---------------------------------------------------
  free energy    TOTEN  =      -324.82877562 eV

  energy without entropy =     -324.82877562  energy(sigma->0) =     -324.82877562


--------------------------------------------------------------------------------------------------------




--------------------------------------- Iteration      1(   8)  ---------------------------------------


    POTLOK:  cpu time    0.1601: real time    0.1642
    SETDIJ:  cpu time    0.0141: real time    0.0142
     EDDAV:  cpu time  257.5280: real time  259.5587
 BZINTS: Fermi energy:  5.244180;688.000000 electrons
         Band energy:***********;  BLOECHL correction:  0.000000
       DOS:  cpu time    0.0480: real time    0.0481
    --------------------------------------------
      LOOP:  cpu time  257.7502: real time  259.7852

 eigenvalue-minimisations  : 47872
 total energy-change (2. order) :-0.9706127E-08  (-0.3652170E-09)
 number of electron     688.0000140 magnetization       0.0000000
 augmentation part      282.3018913 magnetization       0.0000000

 Free energy of the ion-electron system (eV)
  ---------------------------------------------------
  alpha Z        PSCENC =      2383.77420049
  Ewald energy   TEWEN  =    -62821.39891510
  -Hartree energ DENC   =    -42740.30503081
  -exchange      EXHF   =         0.00000000
  -V(xc)+E(xc)   XCENC  =      3286.44666891
  PAW double counting   =    112006.04614713  -115694.98613526
  entropy T*S    EENTRO =         0.00000000
  eigenvalues    EBANDS =    -10764.47081861
  atomic energy  EATOM  =    114020.06510763
  Solvation  Ediel_sol  =         0.00000000
  ---------------------------------------------------
  free energy    TOTEN  =      -324.82877563 eV

  energy without entropy =     -324.82877563  energy(sigma->0) =     -324.82877563


--------------------------------------------------------------------------------------------------------




 average (electrostatic) potential at core
  the test charge radii are     0.9698  0.8297  0.9500
  (the norm of the test charge is              1.0000)
       1 -86.4991       2 -86.4991       3 -86.4991       4 -86.4991       5 -86.4991
       6 -86.4991       7 -86.4991       8 -86.4991       9 -86.5894      10 -86.5894
      11 -86.5894      12 -86.5894      13 -86.3684      14 -86.3684      15 -86.3684
      16 -86.3684      17 -86.4991      18 -86.4991      19 -86.4991      20 -86.4991
      21 -86.4991      22 -86.4991      23 -86.4991      24 -86.4991      25 -86.5894
      26 -86.5894      27 -86.5894      28 -86.5894      29 -86.3684      30 -86.3684
      31 -86.3684      32 -86.3684      33 -80.5758      34 -80.5758      35 -80.5758
      36 -80.5758      37 -80.5758      38 -80.5758      39 -80.5758      40 -80.5758
      41 -80.5758      42 -80.5758      43 -80.5758      44 -80.5758      45 -80.5758
      46 -80.5758      47 -80.5758      48 -80.5758      49 -80.0090      50 -80.0090
      51 -80.0090      52 -80.0090      53 -80.0090      54 -80.0090      55 -80.0090
      56 -80.0090      57 -80.0090      58 -80.0090      59 -80.0090      60 -80.0090
      61 -80.0090      62 -80.0090      63 -80.0090      64 -80.0090
 
 
 
 E-fermi :   5.2442     XC(G=0): -10.5465     alpha+bet :-10.6700


 spin component 1

 k-point     1 :       0.0000    0.0000    0.0000
  band No.  band energies     occupation 
      1     -64.1833      1.00000
      2     -64.1833      1.00000
      3     -64.1833      1.00000
      4     -64.1833      1.00000
      5     -64.1833      1.00000
      6     -64.1833      1.00000
      7     -64.1833      1.00000
      8     -64.1833      1.00000
      9     -64.1735      1.00000
     10     -64.1735      1.00000
     11     -64.1735      1.00000
     12     -64.1735      1.00000
     13     -64.1735      1.00000
     14     -64.1735      1.00000
     15     -64.1735      1.00000
     16     -64.1735      1.00000
     17     -64.1638      1.00000
     18     -64.1638      1.00000
     19     -64.1638      1.00000
     20     -64.1638      1.00000
     21     -64.1638      1.00000
     22     -64.1638      1.00000
     23     -64.1638      1.00000
     24     -64.1637      1.00000
     25     -64.1460      1.00000
     26     -64.1460      1.00000
     27     -64.1460      1.00000
     28     -64.1460      1.00000
     29     -64.1460      1.00000
     30     -64.1460      1.00000
     31     -64.1460      1.00000
     32     -64.1460      1.00000
     33     -64.1287      1.00000
     34     -64.1287      1.00000
     35     -64.1287      1.00000
     36     -64.1287      1.00000
     37     -64.1287      1.00000
     38     -64.1287      1.00000
     39     -64.1287      1.00000
     40     -64.1287      1.00000
     41     -64.1215      1.00000
     42     -64.1215      1.00000
     43     -64.1215      1.00000
     44     -64.1215      1.00000
     45     -64.1215      1.00000
     46     -64.1215      1.00000
     47     -64.1215      1.00000
     48     -64.1215      1.00000
     49     -51.7916      1.00000
     50     -51.7916      1.00000
     51     -51.7916      1.00000
     52     -51.7916      1.00000
     53     -51.7916      1.00000
     54     -51.7916      1.00000
     55     -51.7916      1.00000
     56     -51.7916      1.00000
     57     -51.5612      1.00000
     58     -51.5612      1.00000
     59     -51.5612      1.00000
     60     -51.5612      1.00000
     61     -51.5612      1.00000
     62     -51.5612      1.00000
     63     -51.5612      1.00000
     64     -51.5612      1.00000
     65     -51.5390      1.00000
     66     -51.5390      1.00000
     67     -51.5390      1.00000
     68     -51.5390      1.00000
     69     -51.5390      1.00000
     70     -51.5390      1.00000
     71     -51.5390      1.00000
     72     -51.5389      1.00000
     73     -47.5694      1.00000
     74     -47.5694      1.00000
     75     -47.5694      1.00000
     76     -47.5694      1.00000
     77     -47.5694      1.00000
     78     -47.5694      1.00000
     79     -47.5694      1.00000
     80     -47.5694      1.00000
     81     -47.5043      1.00000
     82     -47.5043      1.00000
     83     -47.5043      1.00000
     84     -47.5043      1.00000
     85     -47.5043      1.00000
     86     -47.5043      1.00000
     87     -47.5043      1.00000
     88     -47.5043      1.00000
     89     -47.4897      1.00000
     90     -47.4897      1.00000
     91     -47.4897      1.00000
     92     -47.4897      1.00000
     93     -47.4897      1.00000
     94     -47.4897      1.00000
     95     -47.4897      1.00000
     96     -47.4897      1.00000
     97      -9.0292      1.00000
     98      -8.4288      1.00000
     99      -8.4288      1.00000
    100      -8.3680      1.00000
    101      -8.3680      1.00000
    102      -8.3662      1.00000
    103      -8.3369      1.00000
    104      -8.1745      1.00000
    105      -8.1745      1.00000
    106      -8.1588      1.00000
    107      -8.1515      1.00000
    108      -8.0237      1.00000
    109      -8.0030      1.00000
    110      -8.0030      1.00000
    111      -7.9987      1.00000
    112      -7.9730      1.00000
    113      -7.9659      1.00000
    114      -7.9659      1.00000
    115      -7.9573      1.00000
    116      -7.7785      1.00000
    117      -7.7785      1.00000
    118      -7.7205      1.00000
    119      -7.7190      1.00000
    120      -7.6968      1.00000
    121      -7.6557      1.00000
    122      -7.6287      1.00000
    123      -7.5865      1.00000
    124      -7.5865      1.00000
    125      -7.5258      1.00000
    126      -7.5048      1.00000
    127      -7.5048      1.00000
    128      -7.4600      1.00000
    129      -1.9166      1.00000
    130      -1.9166      1.00000
    131      -1.8611      1.00000
    132      -1.8452      1.00000
    133      -1.8452      1.00000
    134      -1.8291      1.00000
    135      -1.8119      1.00000
    136      -1.8110      1.00000
    137      -1.8092      1.00000
    138      -1.7483      1.00000
    139      -1.7483      1.00000
    140      -1.7398      1.00000
    141      -1.7398      1.00000
    142      -1.6930      1.00000
    143      -1.6881      1.00000
    144      -1.6833      1.00000
    145      -1.6797      1.00000
    146      -1.6741      1.00000
    147      -1.6503      1.00000
    148      -1.6503      1.00000
    149      -1.6475      1.00000
    150      -1.6475      1.00000
    151      -1.6472      1.00000
    152      -1.6334      1.00000
    153      -1.6040      1.00000
    154      -1.5984      1.00000
    155      -1.5715      1.00000
    156      -1.5715      1.00000
    157      -1.5559      1.00000
    158      -1.5559      1.00000
    159      -1.5358      1.00000
    160      -1.5250      1.00000
    161      -1.5247      1.00000
    162      -1.4803      1.00000
    163      -1.4803      1.00000
    164      -1.4368      1.00000
    165      -1.4368      1.00000
    166      -1.4286      1.00000
    167      -1.4149      1.00000
    168      -1.4142      1.00000
    169      -1.0087      1.00000
    170      -0.9800      1.00000
    171      -0.6365      1.00000
    172      -0.6358      1.00000
    173      -0.5884      1.00000
    174      -0.3262      1.00000
    175      -0.1711      1.00000
    176      -0.1711      1.00000
    177      -0.1094      1.00000
    178      -0.1094      1.00000
    179      -0.0896      1.00000
    180      -0.0469      1.00000
    181       0.0225      1.00000
    182       0.0244      1.00000
    183       0.0244      1.00000
    184       0.0589      1.00000
    185       0.0589      1.00000
    186       0.1744      1.00000
    187       0.1744      1.00000
    188       0.2019      1.00000
    189       0.2072      1.00000
    190       0.2216      1.00000
    191       0.2677      1.00000
    192       0.2677      1.00000
    193       0.3120      1.00000
    194       0.4431      1.00000
    195       0.4431      1.00000
    196       0.4447      1.00000
    197       0.4447      1.00000
    198       0.4753      1.00000
    199       0.5048      1.00000
    200       0.7922      1.00000
    201       0.8489      1.00000
    202       0.8904      1.00000
    203       0.8904      1.00000
    204       0.9120      1.00000
    205       0.9144      1.00000
    206       0.9246      1.00000
    207       0.9246      1.00000
    208       0.9973      1.00000
    209       0.9973      1.00000
    210       1.0377      1.00000
    211       1.0377      1.00000
    212       1.1238      1.00000
    213       1.1238      1.00000
    214       1.1550      1.00000
    215       1.2151      1.00000
    216       1.2151      1.00000
    217       1.2366      1.00000
    218       1.2417      1.00000
    219       1.2788      1.00000
    220       1.3284      1.00000
    221       1.3327      1.00000
    222       1.3327      1.00000
    223       1.3545      1.00000
    224       1.3715      1.00000
    225       1.3844      1.00000
    226       1.4049      1.00000
    227       1.4125      1.00000
    228       1.4125      1.00000
    229       1.4432      1.00000
    230       1.4434      1.00000
    231       1.4615      1.00000
    232       1.4838      1.00000
    233       1.4838      1.00000
    234       1.4886      1.00000
    235       1.4901      1.00000
    236       1.4915      1.00000
    237       1.4915      1.00000
    238       1.6734      1.00000
    239       1.6934      1.00000
    240       1.7317      1.00000
    241       1.8101      1.00000
    242       1.8669      1.00000
    243       1.9067      1.00000
    244       1.9067      1.00000
    245       1.9643      1.00000
    246       1.9643      1.00000
    247       2.0034      1.00000
    248       2.0058      1.00000
    249       2.0297      1.00000
    250       2.0297      1.00000
    251       2.0354      1.00000
    252       2.0435      1.00000
    253       2.0435      1.00000
    254       2.1558      1.00000
    255       2.2353      1.00000
    256       2.2825      1.00000
    257       2.3028      1.00000
    258       2.3744      1.00000
    259       2.3744      1.00000
    260       2.3886      1.00000
    261       2.4325      1.00000
    262       2.4865      1.00000
    263       2.4865      1.00000
    264       2.6293      1.00000
    265       2.7855      1.00000
[...]
 simple monoclinic supercell.


 Subroutine GETGRP returns: Found  2 space group operations
 (whereof  1 operations were pure point group operations)
 out of a pool of  4 trial point group operations.


The static configuration has the point symmetry C_1 .
 The point group associated with its full space group is C_2 .


Analysis of symmetry for dynamics (positions and initial velocities):
=====================================================================
 Subroutine PRICEL returns following result:
 
  LATTYP: Found a base centered monoclinic cell.
 ALAT       =    10.8176305461
 B/A-ratio  =     0.4875741341
 C/A-ratio  =     0.9623969219
 COS(beta)  =    -0.7891853060
  
  Lattice vectors:
  
 A1 = (  -1.7250707941,  -2.6371984233,   5.1263450346)
 A2 = (  -1.7250707941,   2.6371984233,   5.1263450346)
 A3 = (  -1.8078258840,   0.0000000000, -10.2526900691)
 
   8 primitive cells build up your supercell.
 

 Routine SETGRP: Setting up the symmetry group for a 
 simple monoclinic supercell.


 Subroutine GETGRP returns: Found  2 space group operations
 (whereof  1 operations were pure point group operations)
 out of a pool of  4 trial point group operations.


The dynamic configuration has the point symmetry C_1 .
 The point group associated with its full space group is C_2 .


Analysis of structural, dynamic, and magnetic symmetry:
=====================================================================
 Subroutine PRICEL returns following result:
 
  LATTYP: Found a base centered monoclinic cell.
 ALAT       =    10.8176305461
 B/A-ratio  =     0.4875741341
 C/A-ratio  =     0.9623969219
 COS(beta)  =    -0.7891853060
  
  Lattice vectors:
  
 A1 = (  -1.7250707941,  -2.6371984233,   5.1263450346)
 A2 = (  -1.7250707941,   2.6371984233,   5.1263450346)
 A3 = (  -1.8078258840,   0.0000000000, -10.2526900691)
 
   8 primitive cells build up your supercell.
 

 Routine SETGRP: Setting up the symmetry group for a 
 simple monoclinic supercell.


 Subroutine GETGRP returns: Found  2 space group operations
 (whereof  1 operations were pure point group operations)
 out of a pool of  4 trial point group operations.


The magnetic configuration has the point symmetry C_1 .
 The point group associated with its full space group is C_2 .


 Subroutine INISYM returns: Found  2 space group operations
 (whereof  1 operations are pure point group operations),
 and found     8 'primitive' translations



--------------------------------------------------------------------------------------------------------




 MACROSCOPIC STATIC DIELECTRIC TENSOR (including local field effects in DFT)
 ------------------------------------------------------
       50126.231489     0.000000 14909.343211
           0.000000 53458.185335     0.000000
       14942.748116     0.000000 83481.153398
 ------------------------------------------------------


 PIEZOELECTRIC TENSOR (including local field effects)  for field in x, y, z        (e  Angst)
          XX          YY          ZZ          XY          YZ          ZX
  --------------------------------------------------------------------------------
  x   375.09992   347.87487   373.28943     3.13245   -31.62051   -36.83245
  y   -22.75936    20.50705     2.84970     0.00000     0.00000   -77.29573
  z  -341.05588  -250.28877  -293.57766   144.75832   154.31020     1.47971

 PIEZOELECTRIC TENSOR (including local field effects)  for field in x, y, z        (C/m^2)
          XX          YY          ZZ          XY          YZ          ZX
  --------------------------------------------------------------------------------
  x     0.00000     0.00000     0.00000     0.04413    -0.44544     0.00000
  y    -0.32061     0.28889     0.04014     0.00000     0.00000    -1.08887
  z     0.00000     0.00000     0.00000     2.03923     2.17379     0.00000
 
 BORN EFFECTIVE CHARGES (including local field effects) (in e, cummulative output)
 ---------------------------------------------------------------------------------
 ion    1
    1    -8.29905     0.62468     0.95076
    2    -0.81551    -3.81685    -1.41598
    3    -4.15939    -4.43828   -16.86389
 ion    2
    1    -8.29905     0.62468     0.95076
    2    -0.81551    -3.81685    -1.41598
    3    -4.15939    -4.43828   -16.86389
 ion    3
    1    -8.29905     0.62468     0.95076
    2    -0.81551    -3.81685    -1.41598
    3    -4.15939    -4.43828   -16.86389
 ion    4
    1    -8.29905     0.62468     0.95076
    2    -0.81551    -3.81685    -1.41598
    3    -4.15939    -4.43828   -16.86389
 ion    5
    1    -8.42596    -0.52474     2.76052
    2     0.81551    -3.81685     1.41598
    3    -2.73492    -2.82235   -16.14248
 ion    6
    1    -8.42596    -0.52474     2.76052
    2     0.81551    -3.81685     1.41598
    3    -2.73492    -2.82235   -16.14248
 ion    7
    1    -8.42596    -0.52474     2.76052
    2     0.81551    -3.81685     1.41598
    3    -2.73492    -2.82235   -16.14248
 ion    8
    1    -8.42596    -0.52474     2.76052
    2     0.81551    -3.81685     1.41598
    3    -2.73492    -2.82235   -16.14248
 ion    9
    1    -8.70053     0.52040     1.78148
    2     0.00000     0.84191     0.00000
    3    -5.37924    -3.40325   -15.52099
 ion   10
    1    -8.70053     0.52040     1.78148
    2     0.00000     0.84191     0.00000
    3    -5.37924    -3.40325   -15.52099
 ion   11
    1    -8.70053     0.52040     1.78148
    2     0.00000     0.84191     0.00000
    3    -5.37924    -3.40325   -15.52099
 ion   12
    1    -8.70053     0.52040     1.78148
    2     0.00000     0.84191     0.00000
    3    -5.37924    -3.40325   -15.52099
 ion   13
    1    -9.18989     0.34406     0.23099
    2     0.00000    -2.26825     0.00000
    3    -7.49195    -3.54513   -18.05409
 ion   14
    1    -9.18989     0.34406     0.23099
    2     0.00000    -2.26825     0.00000
    3    -7.49195    -3.54513   -18.05409
 ion   15
    1    -9.18989     0.34406     0.23099
    2     0.00000    -2.26825     0.00000
    3    -7.49195    -3.54513   -18.05409
 ion   16
    1    -9.18989     0.34406     0.23099
    2     0.00000    -2.26825     0.00000
    3    -7.49195    -3.54513   -18.05409
 ion   17
    1    -8.42596    -0.52474     2.76052
    2     0.81551    -3.81685     1.41598
    3    -2.73492    -2.82235   -16.14248
 ion   18
    1    -8.42596    -0.52474     2.76052
    2     0.81551    -3.81685     1.41598
    3    -2.73492    -2.82235   -16.14248
 ion   19
    1    -8.42596    -0.52474     2.76052
    2     0.81551    -3.81685     1.41598
    3    -2.73492    -2.82235   -16.14248
 ion   20
    1    -8.42596    -0.52474     2.76052
    2     0.81551    -3.81685     1.41598
    3    -2.73492    -2.82235   -16.14248
 ion   21
    1    -8.29905     0.62468     0.95076
    2    -0.81551    -3.81685    -1.41598
    3    -4.15939    -4.43828   -16.86389
 ion   22
    1    -8.29905     0.62468     0.95076
    2    -0.81551    -3.81685    -1.41598
    3    -4.15939    -4.43828   -16.86389
 ion   23
    1    -8.29905     0.62468     0.95076
    2    -0.81551    -3.81685    -1.41598
    3    -4.15939    -4.43828   -16.86389
 ion   24
    1    -8.29905     0.62468     0.95076
    2    -0.81551    -3.81685    -1.41598
    3    -4.15939    -4.43828   -16.86389
 ion   25
    1    -8.70053     0.52040     1.78148
    2     0.00000     0.84191     0.00000
    3    -5.37924    -3.40325   -15.52099
 ion   26
    1    -8.70053     0.52040     1.78148
    2     0.00000     0.84191     0.00000
    3    -5.37924    -3.40325   -15.52099
 ion   27
    1    -8.70053     0.52040     1.78148
    2     0.00000     0.84191     0.00000
    3    -5.37924    -3.40325   -15.52099
 ion   28
    1    -8.70053     0.52040     1.78148
    2     0.00000     0.84191     0.00000
    3    -5.37924    -3.40325   -15.52099
 ion   29
    1    -9.18989     0.34406     0.23099
    2     0.00000    -2.26825     0.00000
    3    -7.49195    -3.54513   -18.05409
 ion   30
    1    -9.18989     0.34406     0.23099
    2     0.00000    -2.26825     0.00000
    3    -7.49195    -3.54513   -18.05409
 ion   31
    1    -9.18989     0.34406     0.23099
    2     0.00000    -2.26825     0.00000
    3    -7.49195    -3.54513   -18.05409
 ion   32
    1    -9.18989     0.34406     0.23099
    2     0.00000    -2.26825     0.00000
    3    -7.49195    -3.54513   -18.05409
 ion   33
    1    -0.82656     0.51474     2.95810
    2    -0.01730     1.62765    -0.03887
    3     3.01335    -2.82487    62.25898
 ion   34
    1    -0.82656     0.51474     2.95810
    2    -0.01730     1.62765    -0.03887
    3     3.01335    -2.82487    62.25898
 ion   35
    1    -0.82656     0.51474     2.95810
    2    -0.01730     1.62765    -0.03887
    3     3.01335    -2.82487    62.25898
 ion   36
    1    -0.82656     0.51474     2.95810
    2    -0.01730     1.62765    -0.03887
    3     3.01335    -2.82487    62.25898
 ion   37
    1    50.46053    -5.59370   -14.05562
    2     0.01730     1.62765     0.03887
    3    17.44120    24.01676    28.48612
 ion   38
    1    50.46053    -5.59370   -14.05562
    2     0.01730     1.62765     0.03887
    3    17.44120    24.01676    28.48612
 ion   39
    1    50.46053    -5.59370   -14.05562
    2     0.01730     1.62765     0.03887
    3    17.44120    24.01676    28.48612
 ion   40
    1    50.46053    -5.59370   -14.05562
    2     0.01730     1.62765     0.03887
    3    17.44120    24.01676    28.48612
 ion   41
    1    -0.82656     0.51474     2.95810
    2    -0.01730     1.62765    -0.03887
    3     3.01335    -2.82487    62.25898
 ion   42
    1    -0.82656     0.51474     2.95810
    2    -0.01730     1.62765    -0.03887
    3     3.01335    -2.82487    62.25898
 ion   43
    1    -0.82656     0.51474     2.95810
    2    -0.01730     1.62765    -0.03887
    3     3.01335    -2.82487    62.25898
 ion   44
    1    -0.82656     0.51474     2.95810
    2    -0.01730     1.62765    -0.03887
    3     3.01335    -2.82487    62.25898
 ion   45
    1    50.46053    -5.59370   -14.05562
    2     0.01730     1.62765     0.03887
    3    17.44120    24.01676    28.48612
 ion   46
    1    50.46053    -5.59370   -14.05562
    2     0.01730     1.62765     0.03887
    3    17.44120    24.01676    28.48612
 ion   47
    1    50.46053    -5.59370   -14.05562
    2     0.01730     1.62765     0.03887
    3    17.44120    24.01676    28.48612
 ion   48
    1    50.46053    -5.59370   -14.05562
    2     0.01730     1.62765     0.03887
    3    17.44120    24.01676    28.48612
 ion   49
    1    -6.74551     0.78944     2.82044
    2     0.78821     2.90238     0.66703
    3    -1.52421    -3.95448   -12.24462
 ion   50
    1    -6.74551     0.78944     2.82044
    2     0.78821     2.90238     0.66703
    3    -1.52421    -3.95448   -12.24462
 ion   51
    1    -6.74551     0.78944     2.82044
    2     0.78821     2.90238     0.66703
    3    -1.52421    -3.95448   -12.24462
 ion   52
    1    -6.74551     0.78944     2.82044
    2     0.78821     2.90238     0.66703
    3    -1.52421    -3.95448   -12.24462
 ion   53
    1    -8.27303     3.32513     2.55333
    2    -0.78821     2.90238    -0.66703
    3     0.83517    -3.02841   -11.91901
 ion   54
    1    -8.27303     3.32513     2.55333
    2    -0.78821     2.90238    -0.66703
    3     0.83517    -3.02841   -11.91901
 ion   55
    1    -8.27303     3.32513     2.55333
    2    -0.78821     2.90238    -0.66703
    3     0.83517    -3.02841   -11.91901
 ion   56
    1    -8.27303     3.32513     2.55333
    2    -0.78821     2.90238    -0.66703
    3     0.83517    -3.02841   -11.91901
 ion   57
    1    -6.74551     0.78944     2.82044
    2     0.78821     2.90238     0.66703
    3    -1.52421    -3.95448   -12.24462
 ion   58
    1    -6.74551     0.78944     2.82044
    2     0.78821     2.90238     0.66703
    3    -1.52421    -3.95448   -12.24462
 ion   59
    1    -6.74551     0.78944     2.82044
    2     0.78821     2.90238     0.66703
    3    -1.52421    -3.95448   -12.24462
 ion   60
    1    -6.74551     0.78944     2.82044
    2     0.78821     2.90238     0.66703
    3    -1.52421    -3.95448   -12.24462
 ion   61
    1    -8.27303     3.32513     2.55333
    2    -0.78821     2.90238    -0.66703
    3     0.83517    -3.02841   -11.91901
 ion   62
    1    -8.27303     3.32513     2.55333
    2    -0.78821     2.90238    -0.66703
    3     0.83517    -3.02841   -11.91901
 ion   63
    1    -8.27303     3.32513     2.55333
    2    -0.78821     2.90238    -0.66703
    3     0.83517    -3.02841   -11.91901
 ion   64
    1    -8.27303     3.32513     2.55333
    2    -0.78821     2.90238    -0.66703
    3     0.83517    -3.02841   -11.91901


--------------------------------------------------------------------------------------------------------


 writing wavefunctions
     LOOP+:  cpu time63038.4775: real time64279.4224
    4ORBIT:  cpu time    0.0001: real time    0.0008
 


 total charge     
 
# of ion       s       p       d       tot
------------------------------------------
    1        1.318   2.398   0.000   3.716
    2        1.318   2.398   0.000   3.716
    3        1.318   2.398   0.000   3.716
    4        1.318   2.398   0.000   3.716
    5        1.318   2.398   0.000   3.716
    6        1.318   2.398   0.000   3.716
    7        1.318   2.398   0.000   3.716
    8        1.318   2.398   0.000   3.716
    9        1.320   2.390   0.000   3.710
   10        1.320   2.390   0.000   3.710
   11        1.320   2.390   0.000   3.710
   12        1.320   2.390   0.000   3.710
   13        1.314   2.408   0.000   3.721
   14        1.314   2.408   0.000   3.721
   15        1.314   2.408   0.000   3.721
   16        1.314   2.408   0.000   3.721
   17        1.318   2.398   0.000   3.716
   18        1.318   2.398   0.000   3.716
   19        1.318   2.398   0.000   3.716
   20        1.318   2.398   0.000   3.716
   21        1.318   2.398   0.000   3.716
   22        1.318   2.398   0.000   3.716
   23        1.318   2.398   0.000   3.716
   24        1.318   2.398   0.000   3.716
   25        1.320   2.390   0.000   3.710
   26        1.320   2.390   0.000   3.710
   27        1.320   2.390   0.000   3.710
   28        1.320   2.390   0.000   3.710
   29        1.314   2.408   0.000   3.721
   30        1.314   2.408   0.000   3.721
   31        1.314   2.408   0.000   3.721
   32        1.314   2.408   0.000   3.721
   33        0.256   6.198   8.918  15.371
   34        0.256   6.198   8.918  15.371
   35        0.256   6.198   8.918  15.371
   36        0.256   6.198   8.918  15.371
   37        0.256   6.198   8.918  15.371
   38        0.256   6.198   8.918  15.371
   39        0.256   6.198   8.918  15.371
   40        0.256   6.198   8.918  15.371
   41        0.256   6.198   8.918  15.371
   42        0.256   6.198   8.918  15.371
   43        0.256   6.198   8.918  15.371
   44        0.256   6.198   8.918  15.371
   45        0.256   6.198   8.918  15.371
   46        0.256   6.198   8.918  15.371
   47        0.256   6.198   8.918  15.371
   48        0.256   6.198   8.918  15.371
   49        0.343   6.341   5.831  12.515
   50        0.343   6.341   5.831  12.515
   51        0.343   6.341   5.831  12.515
   52        0.343   6.341   5.831  12.515
   53        0.343   6.341   5.831  12.515
   54        0.343   6.341   5.831  12.515
   55        0.343   6.341   5.831  12.515
   56        0.343   6.341   5.831  12.515
   57        0.343   6.341   5.831  12.515
   58        0.343   6.341   5.831  12.515
   59        0.343   6.341   5.831  12.515
   60        0.343   6.341   5.831  12.515
   61        0.343   6.341   5.831  12.515
   62        0.343   6.341   5.831  12.515
   63        0.343   6.341   5.831  12.515
   64        0.343   6.341   5.831  12.515
--------------------------------------------------
tot         51.731 277.381 235.978 565.090
 


 magnetization (x)
 
# of ion       s       p       d       tot
------------------------------------------
    1       -0.000  -0.045   0.000  -0.045
    2       -0.000  -0.045   0.000  -0.045
    3       -0.000  -0.045   0.000  -0.045
    4       -0.000  -0.045   0.000  -0.045
    5        0.000   0.044   0.000   0.045
    6        0.000   0.044   0.000   0.045
    7        0.000   0.044   0.000   0.045
    8        0.000   0.044   0.000   0.045
    9       -0.000   0.000   0.000   0.000
   10       -0.000   0.000   0.000   0.000
   11       -0.000   0.000   0.000   0.000
   12       -0.000   0.000   0.000   0.000
   13       -0.000   0.000   0.000   0.000
   14       -0.000   0.000   0.000   0.000
   15       -0.000   0.000   0.000   0.000
   16       -0.000   0.000   0.000   0.000
   17        0.000   0.044   0.000   0.045
   18        0.000   0.044   0.000   0.045
   19        0.000   0.044   0.000   0.045
   20        0.000   0.044   0.000   0.045
   21       -0.000  -0.045   0.000  -0.045
   22       -0.000  -0.045   0.000  -0.045
   23       -0.000  -0.045   0.000  -0.045
   24       -0.000  -0.045   0.000  -0.045
   25       -0.000   0.000   0.000   0.000
   26       -0.000   0.000   0.000   0.000
   27       -0.000   0.000   0.000   0.000
   28       -0.000   0.000   0.000   0.000
   29       -0.000   0.000   0.000   0.000
   30       -0.000   0.000   0.000   0.000
   31       -0.000   0.000   0.000   0.000
   32       -0.000   0.000   0.000   0.000
   33        0.001   0.002  -0.009  -0.007
   34        0.001   0.002  -0.009  -0.007
   35        0.001   0.002  -0.009  -0.007
   36        0.001   0.002  -0.009  -0.007
   37       -0.001  -0.002   0.010   0.007
   38       -0.001  -0.002   0.010   0.007
   39       -0.001  -0.002   0.010   0.007
   40       -0.001  -0.002   0.010   0.007
   41        0.001   0.002  -0.009  -0.007
   42        0.001   0.002  -0.009  -0.007
   43        0.001   0.002  -0.009  -0.007
   44        0.001   0.002  -0.009  -0.007
   45       -0.001  -0.002   0.010   0.007
   46       -0.001  -0.002   0.010   0.007
   47       -0.001  -0.002   0.010   0.007
   48       -0.001  -0.002   0.010   0.007
   49        0.021   0.053   3.653   3.728
   50        0.021   0.053   3.653   3.728
   51        0.021   0.053   3.653   3.728
   52        0.021   0.053   3.653   3.728
   53       -0.021  -0.053  -3.654  -3.728
   54       -0.021  -0.053  -3.654  -3.728
   55       -0.021  -0.053  -3.654  -3.728
   56       -0.021  -0.053  -3.654  -3.728
   57        0.021   0.053   3.653   3.728
   58        0.021   0.053   3.653   3.728
   59        0.021   0.053   3.653   3.728
   60        0.021   0.053   3.653   3.728
   61       -0.021  -0.053  -3.654  -3.728
   62       -0.021  -0.053  -3.654  -3.728
   63       -0.021  -0.053  -3.654  -3.728
   64       -0.021  -0.053  -3.654  -3.728
--------------------------------------------------
tot         -0.001   0.003  -0.001   0.001
 
 BZINTS: Fermi energy:  5.243668;688.000000 electrons
         Band energy:***********;  BLOECHL correction:  0.000000

 total amount of memory used by VASP MPI-rank0   873689. kBytes
=======================================================================

   base      :      30000. kBytes
   nonl-proj :     673021. kBytes
   fftplans  :       4588. kBytes
   grid      :      69719. kBytes
   one-center:       1990. kBytes
   wavefun   :      94371. kBytes
 
  
  
 General timing and accounting informations for this job:
 ========================================================
  
                  Total CPU time used (sec):    63184.699
                            User time (sec):    62974.937
                          System time (sec):      209.763
                         Elapsed time (sec):    64430.154
  
                   Maximum memory used (kb):     1920556.
                   Average memory used (kb):           0.
  
                          Minor page faults:     58981064
                          Major page faults:        28587
                 Voluntary context switches:        41884
