       N       E                     dE             d eps       ncg     rms          rms(c)
DAV:   1     0.605169361031E+04    0.60517E+04   -0.51611E+05 12288   0.196E+03
DAV:   2    -0.780674714626E+02   -0.61298E+04   -0.60193E+04 13568   0.445E+02
DAV:   3    -0.324421617522E+03   -0.24635E+03   -0.24549E+03 17408   0.968E+01
DAV:   4    -0.327812108544E+03   -0.33905E+01   -0.33904E+01 14080   0.114E+01
DAV:   5    -0.327915538836E+03   -0.10343E+00   -0.10343E+00 16640   0.196E+00    0.253E-01
DAV:   6    -0.327920637010E+03   -0.50982E-02   -0.51168E-02 16384   0.434E-01    0.965E-02
DAV:   7    -0.327920935751E+03   -0.29874E-03   -0.33985E-03 16384   0.138E-01    0.869E-02
DAV:   8    -0.327920949619E+03   -0.13868E-04   -0.33507E-04 16384   0.497E-02    0.758E-02
DAV:   9    -0.327920949525E+03    0.93904E-07   -0.17625E-05 15616   0.108E-02    0.679E-02
DAV:  10    -0.327920949302E+03    0.22266E-06   -0.10048E-06 17664   0.199E-03    0.582E-02
DAV:  11    -0.327920948421E+03    0.88110E-06   -0.12367E-06 14592   0.315E-03    0.271E-02
DAV:  12    -0.327920947880E+03    0.54135E-06   -0.12949E-06 18176   0.291E-03    0.177E-03
DAV:  13    -0.327920947864E+03    0.15905E-07   -0.10493E-07 14080   0.501E-04    0.275E-03
DAV:  14    -0.327920947886E+03   -0.21697E-07   -0.79553E-08 12288   0.330E-04    0.161E-03
DAV:  15    -0.327920947869E+03    0.16400E-07   -0.24032E-08 10240   0.237E-04    0.219E-03
DAV:  16    -0.327920947887E+03   -0.17710E-07   -0.27425E-09 10752   0.134E-04    0.169E-03
DAV:  17    -0.327920947913E+03   -0.26455E-07   -0.39280E-09 11008   0.120E-04    0.582E-04
DAV:  18    -0.327920947919E+03   -0.52969E-08    0.32310E-10  9728   0.396E-05
   1 F= -.32792095E+03 E0= -.32792095E+03  d E =0.000000E+00  mag=     0.0000
