 vasp.5.4.4.18Apr17-6-g9f103f2a35 (build Oct 30 2023 17:30:16) complex          
  
 executed on             LinuxIFC date 2024.06.29  18:38:22
 running on  256 total cores
 distrk:  each k-point on  256 cores,    1 groups
 distr:  one band on NCORES_PER_BAND=   1 cores,  256 groups


--------------------------------------------------------------------------------------------------------


 INCAR:
 POTCAR:    PAW_PBE S 06Sep2000                   
 POTCAR:     PAW_PBE Cu_pv 06Sep2000              
 POTCAR:     PAW_PBE Fe_pv 02Aug2007              

 ----------------------------------------------------------------------------- 
|                                                                             |
|           W    W    AA    RRRRR   N    N  II  N    N   GGGG   !!!           |
|           W    W   A  A   R    R  NN   N  II  NN   N  G    G  !!!           |
|           W    W  A    A  R    R  N N  N  II  N N  N  G       !!!           |
|           W WW W  AAAAAA  RRRRR   N  N N  II  N  N N  G  GGG   !            |
|           WW  WW  A    A  R   R   N   NN  II  N   NN  G    G                |
|           W    W  A    A  R    R  N    N  II  N    N   GGGG   !!!           |
|                                                                             |
|      For optimal performance we recommend to set                            |
|        NCORE= 4 - approx SQRT( number of cores)                             |
|      NCORE specifies how many cores store one orbital (NPAR=cpu/NCORE).     |
|      This setting can  greatly improve the performance of VASP for DFT.     |
|      The default,   NCORE=1            might be grossly inefficient         |
|      on modern multi-core architectures or massively parallel machines.     |
|      Do your own testing !!!!                                               |
|      Unfortunately you need to use the default for GW and RPA calculations. |
|      (for HF NCORE is supported but not extensively tested yet)             |
|                                                                             |
 ----------------------------------------------------------------------------- 

 POTCAR:    PAW_PBE S 06Sep2000                   
   SHA256 =  0fc7481fb0695f01bdc6462160264c5c84044ae9ec85a907d398b887a2bc3132 S/
   COPYR  = (c) Copyright 06Sep2000 Georg Kresse                                
   COPYR  = This file is part of the software VASP. Any use, copying, and all ot
   COPYR  = If you do not have a valid VASP license, you may not use, copy or di
   VRHFIN =S : s2p4                                                             
   LEXCH  = PE                                                                  
   EATOM  =   276.8230 eV,   20.3459 Ry                                         
                                                                                
   TITEL  = PAW_PBE S 06Sep2000                                                 
   LULTRA =        F    use ultrasoft PP ?                                      
   IUNSCR =        1    unscreen: 0-lin 1-nonlin 2-no                           
   RPACOR =    1.500    partial core radius                                     
   POMASS =   32.066; ZVAL   =    6.000    mass and valenz                      
   RCORE  =    1.900    outmost cutoff radius                                   
   RWIGS  =    2.200; RWIGS  =    1.164    wigner-seitz radius (au A)           
   ENMAX  =  258.689; ENMIN  =  194.016 eV                                      
   ICORE  =        2    local potential                                         
   LCOR   =        T    correct aug charges                                     
   LPAW   =        T    paw PP                                                  
   EAUG   =  335.092                                                            
   DEXC   =    0.000                                                            
   RMAX   =    1.942    core radius for proj-oper                               
   RAUG   =    1.300    factor for augmentation sphere                          
   RDEP   =    1.954    radius for radial grids                                 
   RDEPT  =    1.744    core radius for aug-charge                              
                                                                                
   Atomic configuration                                                         
    6 entries                                                                   
     n  l   j            E        occ.                                          
     1  0  0.50     -2405.8406   2.0000                                         
     2  0  0.50      -211.7007   2.0000                                         
     2  1  1.50      -156.4958   6.0000                                         
     3  0  0.50       -17.2562   2.0000                                         
     3  1  0.50        -7.0085   4.0000                                         
     3  2  1.50        -6.8029   0.0000                                         
   Description                                                                  
     l       E           TYP  RCUT    TYP  RCUT                                 
     0    -17.2561641     23  1.900                                             
     0    -15.8743224     23  1.900                                             
     1     -7.0085400     23  1.900                                             
     1     -2.7779785     23  1.900                                             
     2     -6.8029130     23  1.900                                             
  local pseudopotential read in
  partial core-charges read in
  partial kinetic energy density read in
  atomic valenz-charges read in
  non local Contribution for L=           0  read in
    real space projection operators read in
  non local Contribution for L=           0  read in
    real space projection operators read in
  non local Contribution for L=           1  read in
    real space projection operators read in
  non local Contribution for L=           1  read in
    real space projection operators read in
    PAW grid and wavefunctions read in
 
   number of l-projection  operators is LMAX  =           4
   number of lm-projection operators is LMMAX =           8
 
 POTCAR:     PAW_PBE Cu_pv 06Sep2000              
   SHA256 =  cb7b504e2ea725fe1f25c85a9ac77d4012ce94cd394135b722c4e25ec297f1cb Cu
   COPYR  = (c) Copyright 06Sep2000 Georg Kresse                                
   COPYR  = This file is part of the software VASP. Any use, copying, and all ot
   COPYR  = If you do not have a valid VASP license, you may not use, copy or di
   VRHFIN =Cu: d10 p1                                                           
   LEXCH  = PE                                                                  
   EATOM  =  4120.1201 eV,  302.8203 Ry                                         
                                                                                
   TITEL  = PAW_PBE Cu_pv 06Sep2000                                             
   LULTRA =        F    use ultrasoft PP ?                                      
   IUNSCR =        1    unscreen: 0-lin 1-nonlin 2-no                           
   RPACOR =    1.500    partial core radius                                     
   POMASS =   63.546; ZVAL   =   17.000    mass and valenz                      
   RCORE  =    2.000    outmost cutoff radius                                   
   RWIGS  =    2.000; RWIGS  =    1.058    wigner-seitz radius (au A)           
   ENMAX  =  368.648; ENMIN  =  276.486 eV                                      
   RCLOC  =    1.304    cutoff for local pot                                    
   LCOR   =        T    correct aug charges                                     
   LPAW   =        T    paw PP                                                  
   EAUG   =  758.233                                                            
   DEXC   =    0.000                                                            
   RMAX   =    2.046    core radius for proj-oper                               
   RAUG   =    1.300    factor for augmentation sphere                          
   RDEP   =    2.025    radius for radial grids                                 
   RDEPT  =    1.558    core radius for aug-charge                              
                                                                                
   Atomic configuration                                                         
    8 entries                                                                   
     n  l   j            E        occ.                                          
     1  0  0.50     -8850.2467   2.0000                                         
     2  0  0.50     -1062.3498   2.0000                                         
     2  1  1.50      -916.8226   6.0000                                         
     3  0  0.50      -114.6929   2.0000                                         
     3  1  1.50       -72.1325   6.0000                                         
     3  2  2.50        -5.0394  10.0000                                         
     4  0  0.50        -4.6097   1.0000                                         
     4  3  2.50        -1.3606   0.0000                                         
   Description                                                                  
     l       E           TYP  RCUT    TYP  RCUT                                 
     1    -72.1324777     23  1.700                                             
     1     -1.3605826     23  1.700                                             
     2     -5.0393776     23  2.000                                             
     2     -6.3999602     23  2.000                                             
     0     -4.6097062     23  1.800                                             
     0     14.1620818     23  1.800                                             
  local pseudopotential read in
  partial core-charges read in
  partial kinetic energy density read in
  atomic valenz-charges read in
  non local Contribution for L=           1  read in
    real space projection operators read in
  non local Contribution for L=           1  read in
    real space projection operators read in
  non local Contribution for L=           2  read in
    real space projection operators read in
  non local Contribution for L=           2  read in
    real space projection operators read in
  non local Contribution for L=           0  read in
    real space projection operators read in
  non local Contribution for L=           0  read in
    real space projection operators read in
    PAW grid and wavefunctions read in
 
   number of l-projection  operators is LMAX  =           6
   number of lm-projection operators is LMMAX =          18
 
 POTCAR:     PAW_PBE Fe_pv 02Aug2007              
   SHA256 =  5d22e414b1f82158bf2c7ecb8b97b28fd0923e48cadc1c3bf74d524558f5dd32 Fe
   COPYR  = (c) Copyright 02Aug2007 Georg Kresse                                
   COPYR  = This file is part of the software VASP. Any use, copying, and all ot
   COPYR  = If you do not have a valid VASP license, you may not use, copy or di
   VRHFIN =Fe:  3pd7s1                                                          
   LEXCH  = PE                                                                  
   EATOM  =  2457.4239 eV,  180.6156 Ry                                         
                                                                                
   TITEL  = PAW_PBE Fe_pv 02Aug2007                                             
   LULTRA =        F    use ultrasoft PP ?                                      
   IUNSCR =        1    unscreen: 0-lin 1-nonlin 2-no                           
   RPACOR =    1.750    partial core radius                                     
   POMASS =   55.847; ZVAL   =   14.000    mass and valenz                      
   RCORE  =    2.200    outmost cutoff radius                                   
   RWIGS  =    2.200; RWIGS  =    1.164    wigner-seitz radius (au A)           
   ENMAX  =  293.238; ENMIN  =  219.928 eV                                      
   ICORE  =        3    local potential                                         
   LCOR   =        T    correct aug charges                                     
   LPAW   =        T    paw PP                                                  
   EAUG   =  578.342                                                            
   DEXC   =    0.000                                                            
   RMAX   =    2.249    core radius for proj-oper                               
   RAUG   =    1.300    factor for augmentation sphere                          
   RDEP   =    2.296    radius for radial grids                                 
   RDEPT  =    1.766    core radius for aug-charge                              
                                                                                
   Atomic configuration                                                         
    8 entries                                                                   
     n  l   j            E        occ.                                          
     1  0  0.50     -6993.8440   2.0000                                         
     2  0  0.50      -814.6047   2.0000                                         
     2  1  1.50      -693.3689   6.0000                                         
     3  0  0.50       -89.4732   2.0000                                         
     3  1  1.50       -55.6373   6.0000                                         
     3  2  2.50        -3.8151   7.0000                                         
     4  0  0.50        -4.2551   1.0000                                         
     4  3  2.50        -1.3606   0.0000                                         
   Description                                                                  
     l       E           TYP  RCUT    TYP  RCUT                                 
     1    -55.6372668     23  2.000                                             
     1     -5.4423304     23  2.000                                             
     2     -3.8151096     23  2.200                                             
     2     -5.1756922     23  2.200                                             
     0     -4.2550951     23  2.200                                             
     0     27.2116520     23  2.200                                             
     3     -1.3605826     23  2.200                                             
  local pseudopotential read in
  partial core-charges read in
  partial kinetic energy density read in
  atomic valenz-charges read in
  non local Contribution for L=           1  read in
    real space projection operators read in
  non local Contribution for L=           1  read in
    real space projection operators read in
  non local Contribution for L=           2  read in
    real space projection operators read in
  non local Contribution for L=           2  read in
    real space projection operators read in
  non local Contribution for L=           0  read in
    real space projection operators read in
  non local Contribution for L=           0  read in
    real space projection operators read in
    PAW grid and wavefunctions read in
 
   number of l-projection  operators is LMAX  =           6
   number of lm-projection operators is LMMAX =          18
 

 ----------------------------------------------------------------------------- 
|                                                                             |
|  ADVICE TO THIS USER RUNNING 'VASP/VAMP'   (HEAR YOUR MASTER'S VOICE ...):  |
|                                                                             |
|      You have a (more or less) 'large supercell' and for larger cells       |
|      it might be more efficient to use real space projection opertators     |
|      So try LREAL= Auto  in the INCAR   file.                               |
|      Mind:          For very  accurate calculation you might also keep the  |
|      reciprocal projection scheme          (i.e. LREAL=.FALSE.)             |
|                                                                             |
 ----------------------------------------------------------------------------- 


 ----------------------------------------------------------------------------- 
|                                                                             |
|  ADVICE TO THIS USER RUNNING 'VASP/VAMP'   (HEAR YOUR MASTER'S VOICE ...):  |
|                                                                             |
|      You enforced a specific xc-type in the INCAR file,                     |
|      a different type was found on the POTCAR file                          |
|          I HOPE YOU KNOW, WHAT YOU ARE  DOING                               |
|                                                                             |
 ----------------------------------------------------------------------------- 

  PAW_PBE S 06Sep2000                   :
 energy of atom  1       EATOM= -276.8230
 kinetic energy error for atom=    0.0007 (will be added to EATOM!!)
   PAW_PBE Cu_pv 06Sep2000              :
 energy of atom  2       EATOM=-4120.1201
 kinetic energy error for atom=    0.0094 (will be added to EATOM!!)
   PAW_PBE Fe_pv 02Aug2007              :
 energy of atom  3       EATOM=-2457.4239
 kinetic energy error for atom=    0.0025 (will be added to EATOM!!)
 
 
 POSCAR: Fe16 Cu16 S32                           
  positions in direct lattice
  velocities in cartesian coordinates
 exchange correlation table for  LEXCH =       14
   RHO(1)=    0.500       N(1)  =     2000
   RHO(2)=  100.500       N(2)  =     4000
 


--------------------------------------------------------------------------------------------------------


 ion  position               nearest neighbor table
   1  0.126  0.125  0.123-  37 2.26  41 2.27  61 2.27  49 2.28
   2  0.626  0.125  0.123-  38 2.26  42 2.27  62 2.27  50 2.28
   3  0.126  0.625  0.123-  39 2.26  43 2.27  63 2.27  51 2.28
   4  0.626  0.625  0.123-  40 2.26  44 2.27  64 2.27  52 2.28
   5  0.374  0.375  0.123-  39 2.26  41 2.27  62 2.27  52 2.28
   6  0.874  0.375  0.123-  40 2.26  42 2.27  61 2.27  51 2.28
   7  0.374  0.875  0.123-  37 2.26  43 2.27  64 2.27  50 2.28
   8  0.874  0.875  0.123-  38 2.26  44 2.27  63 2.27  49 2.28
   9  0.125  0.374  0.873-  41 2.26  45 2.27  51 2.27  55 2.28
  10  0.625  0.374  0.873-  42 2.26  46 2.27  52 2.27  56 2.28
  11  0.125  0.874  0.873-  43 2.26  47 2.27  49 2.27  53 2.28
  12  0.625  0.874  0.873-  44 2.26  48 2.27  50 2.27  54 2.28
  13  0.375  0.126  0.873-  41 2.26  46 2.27  50 2.27  53 2.28
  14  0.875  0.126  0.873-  42 2.26  45 2.27  49 2.27  54 2.28
  15  0.375  0.626  0.873-  43 2.26  48 2.27  52 2.27  55 2.28
  16  0.875  0.626  0.873-  44 2.26  47 2.27  51 2.27  56 2.28
  17  0.124  0.125  0.623-  45 2.26  33 2.27  53 2.27  57 2.28
  18  0.624  0.125  0.623-  46 2.26  34 2.27  54 2.27  58 2.28
  19  0.124  0.625  0.623-  47 2.26  35 2.27  55 2.27  59 2.28
  20  0.624  0.625  0.623-  48 2.26  36 2.27  56 2.27  60 2.28
  21  0.376  0.375  0.623-  46 2.26  36 2.27  55 2.27  57 2.28
  22  0.876  0.375  0.623-  45 2.26  35 2.27  56 2.27  58 2.28
  23  0.376  0.875  0.623-  48 2.26  34 2.27  53 2.27  59 2.28
  24  0.876  0.875  0.623-  47 2.26  33 2.27  54 2.27  60 2.28
  25  0.375  0.124  0.373-  34 2.26  37 2.27  57 2.27  62 2.28
  26  0.875  0.124  0.373-  33 2.26  38 2.27  58 2.27  61 2.28
  27  0.375  0.624  0.373-  36 2.26  39 2.27  59 2.27  64 2.28
  28  0.875  0.624  0.373-  35 2.26  40 2.27  60 2.27  63 2.28
  29  0.125  0.376  0.373-  35 2.26  39 2.27  57 2.27  61 2.28
  30  0.625  0.376  0.373-  36 2.26  40 2.27  58 2.27  62 2.28
  31  0.125  0.876  0.373-  33 2.26  37 2.27  59 2.27  63 2.28
  32  0.625  0.876  0.373-  34 2.26  38 2.27  60 2.27  64 2.28
  33  0.000  0.000  0.502-  26 2.26  31 2.26  17 2.27  24 2.27
  34  0.500  0.000  0.502-  25 2.26  32 2.26  18 2.27  23 2.27
  35  0.000  0.500  0.502-  28 2.26  29 2.26  19 2.27  22 2.27
  36  0.500  0.500  0.502-  27 2.26  30 2.26  20 2.27  21 2.27
  37  0.250  0.000  0.252-   1 2.26   7 2.26  25 2.27  31 2.27
  38  0.750  0.000  0.252-   2 2.26   8 2.26  26 2.27  32 2.27
  39  0.250  0.500  0.252-   3 2.26   5 2.26  27 2.27  29 2.27
  40  0.750  0.500  0.252-   4 2.26   6 2.26  28 2.27  30 2.27
  41  0.250  0.250  0.002-   9 2.26  13 2.26   1 2.27   5 2.27
  42  0.750  0.250  0.002-  10 2.26  14 2.26   2 2.27   6 2.27
  43  0.250  0.750  0.002-  11 2.26  15 2.26   3 2.27   7 2.27
  44  0.750  0.750  0.002-  12 2.26  16 2.26   4 2.27   8 2.27
  45  0.000  0.250  0.752-  17 2.26  22 2.26   9 2.27  14 2.27
  46  0.500  0.250  0.752-  18 2.26  21 2.26  10 2.27  13 2.27
  47  0.000  0.750  0.752-  19 2.26  24 2.26  11 2.27  16 2.27
  48  0.500  0.750  0.752-  20 2.26  23 2.26  12 2.27  15 2.27
  49  0.000  0.000  0.003-  11 2.27  14 2.27   1 2.28   8 2.28
  50  0.500  0.000  0.003-  12 2.27  13 2.27   2 2.28   7 2.28
  51  0.000  0.500  0.003-   9 2.27  16 2.27   3 2.28   6 2.28
  52  0.500  0.500  0.003-  10 2.27  15 2.27   4 2.28   5 2.28
  53  0.250  0.000  0.753-  17 2.27  23 2.27  11 2.28  13 2.28
  54  0.750  0.000  0.753-  18 2.27  24 2.27  12 2.28  14 2.28
  55  0.250  0.500  0.753-  19 2.27  21 2.27   9 2.28  15 2.28
  56  0.750  0.500  0.753-  20 2.27  22 2.27  10 2.28  16 2.28
  57  0.250  0.250  0.503-  25 2.27  29 2.27  17 2.28  21 2.28
  58  0.750  0.250  0.503-  26 2.27  30 2.27  18 2.28  22 2.28
  59  0.250  0.750  0.503-  27 2.27  31 2.27  19 2.28  23 2.28
  60  0.750  0.750  0.503-  28 2.27  32 2.27  20 2.28  24 2.28
  61  0.000  0.250  0.253-   1 2.27   6 2.27  26 2.28  29 2.28
  62  0.500  0.250  0.253-   2 2.27   5 2.27  25 2.28  30 2.28
  63  0.000  0.750  0.253-   3 2.27   8 2.27  28 2.28  31 2.28
  64  0.500  0.750  0.253-   4 2.27   7 2.27  27 2.28  32 2.28
 
  LATTYP: Found a base centered orthorhombic cell.
 ALAT       =    14.5335899378
 B/A-ratio  =     1.0445918963
 C/A-ratio  =     0.7171416040
  
  Lattice vectors:
  
 A1 = (  10.5059310000,   0.2291310000,   0.0000000000)
 A2 = (  -0.2291310000, -10.5059310000,   0.0000000000)
 A3 = (   0.0000000000,   0.0000000000, -10.4226420000)


Analysis of symmetry for initial positions (statically):
=====================================================================
 Subroutine PRICEL returns following result:
 
  LATTYP: Found a face centered orthorhombic cell.
 ALAT       =     7.2667949689
 B/A-ratio  =     1.0445918963
 C/A-ratio  =     1.4342832080
  
  Lattice vectors:
  
 A1 = (  -2.6837655000,  -2.6837655000,   5.2113210000)
 A2 = (  -2.5692000000,   2.5692000000,   5.2113210000)
 A3 = (  -5.2529655000,  -0.1145655000,   0.0000000000)
 
   8 primitive cells build up your supercell.
 

 Routine SETGRP: Setting up the symmetry group for a 
 base centered orthorhombic supercell.


 Subroutine GETGRP returns: Found  4 space group operations
 (whereof  2 operations were pure point group operations)
 out of a pool of  8 trial point group operations.


The static configuration has the point symmetry C_2 .
 The point group associated with its full space group is C_2v.


Analysis of symmetry for dynamics (positions and initial velocities):
=====================================================================
 Subroutine PRICEL returns following result:
 
  LATTYP: Found a face centered orthorhombic cell.
 ALAT       =     7.2667949689
 B/A-ratio  =     1.0445918963
 C/A-ratio  =     1.4342832080
  
  Lattice vectors:
  
 A1 = (  -2.6837655000,  -2.6837655000,   5.2113210000)
 A2 = (  -2.5692000000,   2.5692000000,   5.2113210000)
 A3 = (  -5.2529655000,  -0.1145655000,   0.0000000000)
 
   8 primitive cells build up your supercell.
 

 Routine SETGRP: Setting up the symmetry group for a 
 base centered orthorhombic supercell.


 Subroutine GETGRP returns: Found  4 space group operations
 (whereof  2 operations were pure point group operations)
 out of a pool of  8 trial point group operations.


The dynamic configuration has the point symmetry C_2 .
 The point group associated with its full space group is C_2v.


Analysis of structural, dynamic, and magnetic symmetry:
=====================================================================
 Subroutine PRICEL returns following result:
 
  LATTYP: Found a face centered orthorhombic cell.
 ALAT       =     7.2667949689
 B/A-ratio  =     1.0445918963
 C/A-ratio  =     1.4342832080
  
  Lattice vectors:
  
 A1 = (  -2.6837655000,  -2.6837655000,   5.2113210000)
 A2 = (  -2.5692000000,   2.5692000000,   5.2113210000)
 A3 = (  -5.2529655000,  -0.1145655000,   0.0000000000)
 
   8 primitive cells build up your supercell.
 

 Routine SETGRP: Setting up the symmetry group for a 
 base centered orthorhombic supercell.


 Subroutine GETGRP returns: Found  4 space group operations
 (whereof  2 operations were pure point group operations)
 out of a pool of  8 trial point group operations.


The magnetic configuration has the point symmetry C_2 .
 The point group associated with its full space group is C_2v.


 Subroutine INISYM returns: Found  4 space group operations
 (whereof  2 operations are pure point group operations),
 and found     8 'primitive' translations

 
 
 KPOINTS: Automatic mesh                          

Automatic generation of k-mesh.
Space group operators:
 irot       det(A)        alpha          n_x          n_y          n_z        tau_x        tau_y        tau_z
    1     1.000000     0.000001     1.000000     0.000000     0.000000     0.000000     0.000000     0.000000
    2     1.000000   179.999999     0.000000     0.000000     1.000000     0.000000     0.000000     0.000000
    3    -1.000000   180.000000     0.707107     0.707107     0.000000    -0.750000     0.000000     0.750000
    4    -1.000000   180.000000     0.707107    -0.707107     0.000000    -0.750000     0.000000     0.750000
 
 Subroutine IBZKPT returns following result:
 ===========================================
 
 Found      6 irreducible k-points:
 
 Following reciprocal coordinates:
            Coordinates               Weight
  0.000000  0.000000  0.000000      1.000000
  0.500000 -0.000000  0.000000      2.000000
  0.500000  0.500000  0.000000      1.000000
  0.000000  0.000000  0.500000      1.000000
  0.500000 -0.000000  0.500000      2.000000
  0.500000  0.500000  0.500000      1.000000
 
 Following cartesian coordinates:
            Coordinates               Weight
  0.000000  0.000000  0.000000      1.000000
  0.047615 -0.001038  0.000000      2.000000
  0.046576  0.046576  0.000000      1.000000
  0.000000  0.000000  0.047972      1.000000
  0.047615 -0.001038  0.047972      2.000000
  0.046576  0.046576  0.047972      1.000000
 
 TETIRR: Found     12 inequivalent tetrahedra from       48
 
 Subroutine IBZKPT_HF returns following result:
 ==============================================
 
 Found      8 k-points in 1st BZ
 the following      8 k-points will be used (e.g. in the exchange kernel)
 Following reciprocal coordinates:   # in IRBZ
  0.000000  0.000000  0.000000    0.12500000   1 t-inv F
  0.500000 -0.000000  0.000000    0.12500000   2 t-inv F
  0.500000  0.500000  0.000000    0.12500000   3 t-inv F
  0.000000  0.000000  0.500000    0.12500000   4 t-inv F
  0.500000 -0.000000  0.500000    0.12500000   5 t-inv F
  0.500000  0.500000  0.500000    0.12500000   6 t-inv F
  0.000000 -0.500000  0.000000    0.12500000   2 t-inv F spinflp
  0.000000 -0.500000  0.500000    0.12500000   5 t-inv F spinflp


--------------------------------------------------------------------------------------------------------




 Dimension of arrays:
   k-points           NKPTS =      6   k-points in BZ     NKDIM =      6   number of bands    NBANDS=    512
   number of dos      NEDOS =    301   number of ions     NIONS =     64
   non local maximal  LDIM  =      6   non local SUM 2l+1 LMDIM =     18
   total plane-waves  NPLWV = 829440
   max r-space proj   IRMAX =      1   max aug-charges    IRDMAX=  22923
   dimension x,y,z NGX =    96 NGY =   96 NGZ =   90
   dimension x,y,z NGXF=   192 NGYF=  192 NGZF=  180
   support grid    NGXF=   192 NGYF=  192 NGZF=  180
   ions per type =              32  16  16
   NGX,Y,Z   is equivalent  to a cutoff of  15.19, 15.19, 14.36 a.u.
   NGXF,Y,Z  is equivalent  to a cutoff of  30.37, 30.37, 28.71 a.u.

 SYSTEM =  CuFeS2                                  
 POSCAR =  Fe16 Cu16 S32                           

 Startparameter for this run:
   NWRITE =      2    write-flag & timer
   PREC   = accura    normal or accurate (medium, high low for compatibility)
   ISTART =      0    job   : 0-new  1-cont  2-samecut
   ICHARG =      1    charge: 1-file 2-atom 10-const
   ISPIN  =      2    spin polarized calculation?
   LNONCOLLINEAR =      F non collinear calculations
   LSORBIT =      F    spin-orbit coupling
   INIWAV =      1    electr: 0-lowe 1-rand  2-diag
   LASPH  =      F    aspherical Exc in radial PAW
   METAGGA=      F    non-selfconsistent MetaGGA calc.

 Electronic Relaxation 1
   ENCUT  =  700.0 eV  51.45 Ry    7.17 a.u.  22.67 22.67 22.48*2*pi/ulx,y,z
   ENINI  =  700.0     initial cutoff
   ENAUG  =  758.2 eV  augmentation charge cutoff
   NELM   =    500;   NELMIN=  2; NELMDL=  0     # of ELM steps 
   EDIFF  = 0.1E-07   stopping-criterion for ELM
   LREAL  =      F    real-space projection
   NLSPLINE    = F    spline interpolate recip. space projectors
   LCOMPAT=      F    compatible to vasp.4.4
   GGA_COMPAT  = T    GGA compatible to vasp.4.4-vasp.4.6
   LMAXPAW     = -100 max onsite density
   LMAXMIX     =    4 max onsite mixed and CHGCAR
   VOSKOWN=      0    Vosko Wilk Nusair interpolation
   ROPT   =    0.00000   0.00000   0.00000
 Ionic relaxation
   EDIFFG = -.1E-04   stopping-criterion for IOM
   NSW    =      0    number of steps for IOM
   NBLOCK =      1;   KBLOCK =      1    inner block; outer block 
   IBRION =     -1    ionic relax: 0-MD 1-quasi-New 2-CG
   NFREE  =      0    steps in history (QN), initial steepest desc. (CG)
   ISIF   =      2    stress and relaxation
   IWAVPR =     10    prediction:  0-non 1-charg 2-wave 3-comb
   ISYM   =      2    0-nonsym 1-usesym 2-fastsym
   LCORR  =      T    Harris-Foulkes like correction to forces

   POTIM  = 0.5000    time-step for ionic-motion
   TEIN   =    0.0    initial temperature
   TEBEG  =    0.0;   TEEND  =   0.0 temperature during run
   SMASS  =  -3.00    Nose mass-parameter (am)
   estimated Nose-frequenzy (Omega)   =  0.10E-29 period in steps =****** mass=  -0.252E-26a.u.
   SCALEE = 1.0000    scale energy and forces
   NPACO  =    256;   APACO  = 16.0  distance and # of slots for P.C.
   PSTRESS=    0.0 pullay stress

  Mass of Ions in am
   POMASS =  32.07 63.55 55.85
  Ionic Valenz
   ZVAL   =   6.00 17.00 14.00
  Atomic Wigner-Seitz radii
   RWIGS  =  -1.00 -1.00 -1.00
  virtual crystal weights 
   VCA    =   1.00  1.00  1.00
   NELECT =     688.0000    total number of electrons
   NUPDOWN=      -1.0000    fix difference up-down

 DOS related values:
   EMIN   =  10.00;   EMAX   =-10.00  energy-range for DOS
   EFERMI =   0.00
   ISMEAR =    -5;   SIGMA  =   0.03  broadening in eV -4-tet -1-fermi 0-gaus

 Electronic relaxation 2 (details)
   IALGO  =     38    algorithm
   LDIAG  =      T    sub-space diagonalisation (order eigenvalues)
   LSUBROT=      F    optimize rotation matrix (better conditioning)
   TURBO    =      0    0=normal 1=particle mesh
   IRESTART =      0    0=no restart 2=restart with 2 vectors
   NREBOOT  =      0    no. of reboots
   NMIN     =      0    reboot dimension
   EREF     =   0.00    reference energy to select bands
   IMIX   =      4    mixing-type and parameters
     AMIX     =   0.40;   BMIX     =  1.00
     AMIX_MAG =   1.60;   BMIX_MAG =  1.00
     AMIN     =   0.10
     WC   =   100.;   INIMIX=   1;  MIXPRE=   1;  MAXMIX= -45

 Intra band minimization:
   WEIMIN = 0.0000     energy-eigenvalue tresh-hold
   EBREAK =  0.49E-11  absolut break condition
   DEPER  =   0.30     relativ break condition  

   TIME   =   0.40     timestep for ELM

  volume/ion in A,a.u.               =      17.97       121.24
  Fermi-wavevector in a.u.,A,eV,Ry     =   1.379508  2.606892 25.892462  1.903042
  Thomas-Fermi vector in A             =   2.504471
 
 Write flags
   LWAVE        =      T    write WAVECAR
   LDOWNSAMPLE  =      F    k-point downsampling of WAVECAR
   LCHARG       =      T    write CHGCAR
   LVTOT        =      F    write LOCPOT, total local potential
   LVHAR        =      F    write LOCPOT, Hartree potential only
   LELF         =      F    write electronic localiz. function (ELF)
   LORBIT       =     11    0 simple, 1 ext, 2 COOP (PROOUT), +10 PAW based schemes


 Dipole corrections
   LMONO  =      F    monopole corrections only (constant potential shift)
   LDIPOL =      F    correct potential (dipole corrections)
   IDIPOL =      0    1-x, 2-y, 3-z, 4-all directions 
   EPSILON=  1.0000000 bulk dielectric constant

 LDA+U is selected, type is set to LDAUTYPE =  2
   angular momentum for each species LDAUL =     2    2    2
   U (eV)           for each species LDAUU =   0.0  0.1  4.7
   J (eV)           for each species LDAUJ =   0.0  0.0  0.0
 Exchange correlation treatment:
   GGA     =    PS    GGA type
   LEXCH   =    14    internal setting for exchange type
   VOSKOWN=      0    Vosko Wilk Nusair interpolation
   LHFCALC =     F    Hartree Fock is set to
   LHFONE  =     F    Hartree Fock one center treatment
   AEXX    =    0.0000 exact exchange contribution

 Linear response parameters
   LEPSILON=     F    determine dielectric tensor
   LRPA    =     F    only Hartree local field effects (RPA)
   LNABLA  =     F    use nabla operator in PAW spheres
   LVEL    =     F    velocity operator in full k-point grid
   LINTERFAST=   F  fast interpolation
   KINTER  =     0    interpolate to denser k-point grid
   CSHIFT  =0.1000    complex shift for real part using Kramers Kronig
   OMEGAMAX=  -1.0    maximum frequency
   DEG_THRESHOLD= 0.2000000E-02 threshold for treating states as degnerate
   RTIME   =   -0.100 relaxation time in fs
  (WPLASMAI=    0.000 imaginary part of plasma frequency in eV, 0.658/RTIME)
   DFIELD  = 0.0000000 0.0000000 0.0000000 field for delta impulse in time
 
 Orbital magnetization related:
   ORBITALMAG=     F  switch on orbital magnetization
   LCHIMAG   =     F  perturbation theory with respect to B field
   DQ        =  0.001000  dq finite difference perturbation B field
   LLRAUG    =     F  two centre corrections for induced B field

 PEAD related settings:
   LPEAD      =     T    switch on PEAD
   IPEAD      =     4    finite difference order for dpsi/dk
   LCALCPOL   =     T    calculate macroscopic polarization
   LCALCEPS   =     F    calculate dielectric tensor
   EFIELD_PEAD=    0.0000    0.0000    0.0000
   SKIP_EDOTP =     F
   LRPA       =     F
   SKIP_SCF   =     F


--------------------------------------------------------------------------------------------------------


 Static calculation
 charge density and potential will be updated during run
 spin polarized calculation
 Variant of blocked Davidson
 Davidson routine will perform the subspace rotation
 perform sub-space diagonalisation
    after iterative eigenvector-optimisation
 modified Broyden-mixing scheme, WC =      100.0
 initial mixing is a Kerker type mixing with AMIX =  0.4000 and BMIX =      1.0000
 Hartree-type preconditioning will be used
 using additional bands          168
 reciprocal scheme for non local part
 use partial core corrections
 calculate Harris-corrections to forces 
   (improved forces if not selfconsistent)
 use gradient corrections 
 use of overlap-Matrix (Vanderbilt PP)
 Fermi weights with tetrahedron method with Bloechl corrections


--------------------------------------------------------------------------------------------------------


  energy-cutoff  :      700.00
  volume of cell :     1149.85
      direct lattice vectors                 reciprocal lattice vectors
    10.505931000  0.229131000  0.000000000     0.095229627 -0.002076928  0.000000000
     0.229131000 10.505931000  0.000000000    -0.002076928  0.095229627  0.000000000
     0.000000000  0.000000000 10.422642000     0.000000000  0.000000000  0.095944963

  length of vectors
    10.508429340 10.508429340 10.422642000     0.095252273  0.095252273  0.095944963


 
 k-points in units of 2pi/SCALE and weight: Automatic mesh                          
   0.00000000  0.00000000  0.00000000       0.125
   0.04761481 -0.00103846  0.00000000       0.250
   0.04657635  0.04657635  0.00000000       0.125
   0.00000000  0.00000000  0.04797248       0.125
   0.04761481 -0.00103846  0.04797248       0.250
   0.04657635  0.04657635  0.04797248       0.125
 
 k-points in reciprocal lattice and weights: Automatic mesh                          
   0.00000000  0.00000000  0.00000000       0.125
   0.50000000 -0.00000000  0.00000000       0.250
   0.50000000  0.50000000  0.00000000       0.125
   0.00000000  0.00000000  0.50000000       0.125
   0.50000000 -0.00000000  0.50000000       0.250
   0.50000000  0.50000000  0.50000000       0.125
 
 position of ions in fractional coordinates (direct lattice) 
   0.12613000  0.12525400  0.12258300
   0.62613000  0.12525400  0.12258300
   0.12613000  0.62525400  0.12258300
   0.62613000  0.62525400  0.12258300
   0.37387000  0.37474600  0.12258300
   0.87387000  0.37474600  0.12258300
   0.37387000  0.87474600  0.12258300
   0.87387000  0.87474600  0.12258300
   0.12474600  0.37387000  0.87258300
   0.62474600  0.37387000  0.87258300
   0.12474600  0.87387000  0.87258300
   0.62474600  0.87387000  0.87258300
   0.37525400  0.12613000  0.87258300
   0.87525400  0.12613000  0.87258300
   0.37525400  0.62613000  0.87258300
   0.87525400  0.62613000  0.87258300
   0.12387000  0.12474600  0.62258300
   0.62387000  0.12474600  0.62258300
   0.12387000  0.62474600  0.62258300
   0.62387000  0.62474600  0.62258300
   0.37613000  0.37525400  0.62258300
   0.87613000  0.37525400  0.62258300
   0.37613000  0.87525400  0.62258300
   0.87613000  0.87525400  0.62258300
   0.37474600  0.12387000  0.37258300
   0.87474600  0.12387000  0.37258300
   0.37474600  0.62387000  0.37258300
   0.87474600  0.62387000  0.37258300
   0.12525400  0.37613000  0.37258300
   0.62525400  0.37613000  0.37258300
   0.12525400  0.87613000  0.37258300
   0.62525400  0.87613000  0.37258300
   0.00000000  0.00000000  0.50209700
   0.50000000  0.00000000  0.50209700
   0.00000000  0.50000000  0.50209700
   0.50000000  0.50000000  0.50209700
   0.25000000  0.00000000  0.25209700
   0.75000000  0.00000000  0.25209700
   0.25000000  0.50000000  0.25209700
   0.75000000  0.50000000  0.25209700
   0.25000000  0.25000000  0.00209700
   0.75000000  0.25000000  0.00209700
   0.25000000  0.75000000  0.00209700
   0.75000000  0.75000000  0.00209700
   0.00000000  0.25000000  0.75209700
   0.50000000  0.25000000  0.75209700
   0.00000000  0.75000000  0.75209700
   0.50000000  0.75000000  0.75209700
   0.00000000  0.00000000  0.00273800
   0.50000000  0.00000000  0.00273800
   0.00000000  0.50000000  0.00273800
   0.50000000  0.50000000  0.00273800
   0.25000000  0.00000000  0.75273800
   0.75000000  0.00000000  0.75273800
   0.25000000  0.50000000  0.75273800
   0.75000000  0.50000000  0.75273800
   0.25000000  0.25000000  0.50273800
   0.75000000  0.25000000  0.50273800
   0.25000000  0.75000000  0.50273800
   0.75000000  0.75000000  0.50273800
   0.00000000  0.25000000  0.25273800
   0.50000000  0.25000000  0.25273800
   0.00000000  0.75000000  0.25273800
   0.50000000  0.75000000  0.25273800
 
 position of ions in cartesian coordinates  (Angst):
   1.35381265  1.34481017  1.27763872
   6.60677815  1.45937567  1.27763872
   1.46837815  6.59777567  1.27763872
   6.72134365  6.71234117  1.27763872
   4.01371835  4.02272083  1.27763872
   9.26668385  4.13728633  1.27763872
   4.12828385  9.27568633  1.27763872
   9.38124935  9.39025183  1.27763872
   1.39623808  3.95643560  9.09462022
   6.64920358  4.07100110  9.09462022
   1.51080358  9.20940110  9.09462022
   6.76376908  9.32396660  9.09462022
   3.97129292  1.41109540  9.09462022
   9.22425842  1.52566090  9.09462022
   4.08585842  6.66406090  9.09462022
   9.33882392  6.77862640  9.09462022
   1.32995285  1.33895533  6.48895972
   6.58291835  1.45352083  6.48895972
   1.44451835  6.59192083  6.48895972
   6.69748385  6.70648633  6.48895972
   4.03757815  4.02857567  6.48895972
   9.29054365  4.14314117  6.48895972
   4.15214365  9.28154117  6.48895972
   9.40510915  9.39610667  6.48895972
   3.96543808  1.38723560  3.88329922
   9.21840358  1.50180110  3.88329922
   4.08000358  6.64020110  3.88329922
   9.33296908  6.75476660  3.88329922
   1.40209292  3.98029540  3.88329922
   6.65505842  4.09486090  3.88329922
   1.51665842  9.23326090  3.88329922
   6.76962392  9.34782640  3.88329922
   0.00000000  0.00000000  5.23317728
   5.25296550  0.11456550  5.23317728
   0.11456550  5.25296550  5.23317728
   5.36753100  5.36753100  5.23317728
   2.62648275  0.05728275  2.62751678
   7.87944825  0.17184825  2.62751678
   2.74104825  5.31024825  2.62751678
   7.99401375  5.42481375  2.62751678
   2.68376550  2.68376550  0.02185628
   7.93673100  2.79833100  0.02185628
   2.79833100  7.93673100  0.02185628
   8.05129650  8.05129650  0.02185628
   0.05728275  2.62648275  7.83883778
   5.31024825  2.74104825  7.83883778
   0.17184825  7.87944825  7.83883778
   5.42481375  7.99401375  7.83883778
   0.00000000  0.00000000  0.02853719
   5.25296550  0.11456550  0.02853719
   0.11456550  5.25296550  0.02853719
   5.36753100  5.36753100  0.02853719
   2.62648275  0.05728275  7.84551869
   7.87944825  0.17184825  7.84551869
   2.74104825  5.31024825  7.84551869
   7.99401375  5.42481375  7.84551869
   2.68376550  2.68376550  5.23985819
   7.93673100  2.79833100  5.23985819
   2.79833100  7.93673100  5.23985819
   8.05129650  8.05129650  5.23985819
   0.05728275  2.62648275  2.63419769
   5.31024825  2.74104825  2.63419769
   0.17184825  7.87944825  2.63419769
   5.42481375  7.99401375  2.63419769
 


--------------------------------------------------------------------------------------------------------


 k-point  1 :   0.0000 0.0000 0.0000  plane waves:   48391
 k-point  2 :   0.5000-0.0000 0.0000  plane waves:   48384
 k-point  3 :   0.5000 0.5000 0.0000  plane waves:   48436
 k-point  4 :   0.0000 0.0000 0.5000  plane waves:   48408
 k-point  5 :   0.5000-0.0000 0.5000  plane waves:   48344
 k-point  6 :   0.5000 0.5000 0.5000  plane waves:   48288

 maximum and minimum number of plane-waves per node :     48436    48288

 maximum number of plane-waves:     48436
 maximum index in each direction: 
   IXMAX=   22   IYMAX=   22   IZMAX=   22
   IXMIN=  -23   IYMIN=  -23   IZMIN=  -22


 serial   3D FFT for wavefunctions
 parallel 3D FFT for charge:
    minimum data exchange during FFTs selected (reduces bandwidth)


 total amount of memory used by VASP MPI-rank0   301249. kBytes
=======================================================================

   base      :      30000. kBytes
   nonl-proj :     175882. kBytes
   fftplans  :       4588. kBytes
   grid      :      69719. kBytes
   one-center:       1990. kBytes
   wavefun   :      19070. kBytes
 
     INWAV:  cpu time    0.0001: real time    0.0002
 Broyden mixing: mesh for mixing (old mesh)
   NGX = 45   NGY = 45   NGZ = 45
  (NGX  =192   NGY  =192   NGZ  =180)
  gives a total of  91125 points

 initial charge density was supplied:
 number of electron     688.0000326 magnetization       0.0000000
 keeping initial charge density in first step


--------------------------------------------------------------------------------------------------------


 Maximum index for augmentation-charges          892 (set IRDMAX)


--------------------------------------------------------------------------------------------------------


 First call to EWALD:  gamma=   0.169
 Maximum number of real-space cells 3x 3x 3
 Maximum number of reciprocal cells 3x 3x 3

    FEWALD:  cpu time    0.0064: real time    0.0068


--------------------------------------- Iteration      1(   1)  ---------------------------------------


    POTLOK:  cpu time    0.3821: real time    0.4072
    SETDIJ:  cpu time    0.0147: real time    0.0148
     EDDAV:  cpu time   63.4837: real time   64.0234
 BZINTS: Fermi energy: 14.987599;688.000000 electrons
         Band energy:***********;  BLOECHL correction: -0.017551
       DOS:  cpu time    0.0201: real time    0.0202
    --------------------------------------------
      LOOP:  cpu time   63.9007: real time   64.4655

 eigenvalue-minimisations  : 12288
 total energy-change (2. order) : 0.6051694E+04  (-0.5161129E+05)
 number of electron     688.0000326 magnetization       0.0000000
 augmentation part      688.0000326 magnetization       0.0000000

 Free energy of the ion-electron system (eV)
  ---------------------------------------------------
  alpha Z        PSCENC =      2357.83468072
  Ewald energy   TEWEN  =    -62491.37956663
  -Hartree energ DENC   =    -42938.15848934
  -exchange      EXHF   =         0.00000000
  -V(xc)+E(xc)   XCENC  =      3286.53036050
  PAW double counting   =    112273.24133467  -115967.04347814
  entropy T*S    EENTRO =         0.00000000
  eigenvalues    EBANDS =     -4489.39633911
  atomic energy  EATOM  =    114020.06510763
  Solvation  Ediel_sol  =         0.00000000
  ---------------------------------------------------
  free energy    TOTEN  =      6051.69361031 eV

  energy without entropy =     6051.69361031  energy(sigma->0) =     6051.69361031


--------------------------------------------------------------------------------------------------------




--------------------------------------- Iteration      1(   2)  ---------------------------------------


     EDDAV:  cpu time   75.0928: real time   75.6611
 BZINTS: Fermi energy:  5.540363;688.000000 electrons
         Band energy:***********;  BLOECHL correction:  0.000000
       DOS:  cpu time    0.0039: real time    0.0039
    --------------------------------------------
      LOOP:  cpu time   75.0967: real time   75.6650

 eigenvalue-minimisations  : 13568
 total energy-change (2. order) :-0.6129761E+04  (-0.6019312E+04)
 number of electron     688.0000326 magnetization       0.0000000
 augmentation part      688.0000326 magnetization       0.0000000

 Free energy of the ion-electron system (eV)
  ---------------------------------------------------
  alpha Z        PSCENC =      2357.83468072
  Ewald energy   TEWEN  =    -62491.37956663
  -Hartree energ DENC   =    -42938.15848934
  -exchange      EXHF   =         0.00000000
  -V(xc)+E(xc)   XCENC  =      3286.53036050
  PAW double counting   =    112273.24133467  -115967.04347814
  entropy T*S    EENTRO =         0.00000000
  eigenvalues    EBANDS =    -10619.15742088
  atomic energy  EATOM  =    114020.06510763
  Solvation  Ediel_sol  =         0.00000000
  ---------------------------------------------------
  free energy    TOTEN  =       -78.06747146 eV

  energy without entropy =      -78.06747146  energy(sigma->0) =      -78.06747146


--------------------------------------------------------------------------------------------------------




--------------------------------------- Iteration      1(   3)  ---------------------------------------


     EDDAV:  cpu time  121.8878: real time  122.7274
 BZINTS: Fermi energy:  4.974859;688.000000 electrons
         Band energy:***********;  BLOECHL correction:  0.000000
       DOS:  cpu time    0.0038: real time    0.0038
    --------------------------------------------
      LOOP:  cpu time  121.8915: real time  122.7312

 eigenvalue-minimisations  : 17408
 total energy-change (2. order) :-0.2463541E+03  (-0.2454854E+03)
 number of electron     688.0000326 magnetization       0.0000000
 augmentation part      688.0000326 magnetization       0.0000000

 Free energy of the ion-electron system (eV)
  ---------------------------------------------------
  alpha Z        PSCENC =      2357.83468072
  Ewald energy   TEWEN  =    -62491.37956663
  -Hartree energ DENC   =    -42938.15848934
  -exchange      EXHF   =         0.00000000
  -V(xc)+E(xc)   XCENC  =      3286.53036050
  PAW double counting   =    112273.24133467  -115967.04347814
  entropy T*S    EENTRO =         0.00000000
  eigenvalues    EBANDS =    -10865.51156694
  atomic energy  EATOM  =    114020.06510763
  Solvation  Ediel_sol  =         0.00000000
  ---------------------------------------------------
  free energy    TOTEN  =      -324.42161752 eV

  energy without entropy =     -324.42161752  energy(sigma->0) =     -324.42161752


--------------------------------------------------------------------------------------------------------




--------------------------------------- Iteration      1(   4)  ---------------------------------------


     EDDAV:  cpu time   84.9836: real time   85.6044
 BZINTS: Fermi energy:  4.887013;688.000000 electrons
         Band energy:***********;  BLOECHL correction:  0.000000
       DOS:  cpu time    0.0033: real time    0.0033
    --------------------------------------------
      LOOP:  cpu time   84.9868: real time   85.6078

 eigenvalue-minimisations  : 14080
 total energy-change (2. order) :-0.3390491E+01  (-0.3390358E+01)
 number of electron     688.0000326 magnetization       0.0000000
 augmentation part      688.0000326 magnetization       0.0000000

 Free energy of the ion-electron system (eV)
  ---------------------------------------------------
  alpha Z        PSCENC =      2357.83468072
  Ewald energy   TEWEN  =    -62491.37956663
  -Hartree energ DENC   =    -42938.15848934
  -exchange      EXHF   =         0.00000000
  -V(xc)+E(xc)   XCENC  =      3286.53036050
  PAW double counting   =    112273.24133467  -115967.04347814
  entropy T*S    EENTRO =         0.00000000
  eigenvalues    EBANDS =    -10868.90205796
  atomic energy  EATOM  =    114020.06510763
  Solvation  Ediel_sol  =         0.00000000
  ---------------------------------------------------
  free energy    TOTEN  =      -327.81210854 eV

  energy without entropy =     -327.81210854  energy(sigma->0) =     -327.81210854


--------------------------------------------------------------------------------------------------------




--------------------------------------- Iteration      1(   5)  ---------------------------------------


     EDDAV:  cpu time  117.7843: real time  118.5936
 BZINTS: Fermi energy:  5.071099;688.000000 electrons
         Band energy:***********;  BLOECHL correction:  0.000000
       DOS:  cpu time    0.0037: real time    0.0037
    CHARGE:  cpu time    1.1761: real time    1.1841
    MIXING:  cpu time    0.0056: real time    0.0057
    --------------------------------------------
      LOOP:  cpu time  118.9697: real time  119.7870

 eigenvalue-minimisations  : 16640
 total energy-change (2. order) :-0.1034303E+00  (-0.1034298E+00)
 number of electron     688.0000326 magnetization       0.0000000
 augmentation part      282.2375163 magnetization       0.0000000

 Broyden mixing:
  rms(total) = 0.25347E-01    rms(broyden)= 0.25343E-01
  rms(prec ) = 0.25408E-01
  weight for this iteration     100.00

 Free energy of the ion-electron system (eV)
  ---------------------------------------------------
  alpha Z        PSCENC =      2357.83468072
  Ewald energy   TEWEN  =    -62491.37956663
  -Hartree energ DENC   =    -42938.15848934
  -exchange      EXHF   =         0.00000000
  -V(xc)+E(xc)   XCENC  =      3286.53036050
  PAW double counting   =    112273.24133467  -115967.04347814
  entropy T*S    EENTRO =         0.00000000
  eigenvalues    EBANDS =    -10869.00548825
  atomic energy  EATOM  =    114020.06510763
  Solvation  Ediel_sol  =         0.00000000
  ---------------------------------------------------
  free energy    TOTEN  =      -327.91553884 eV

  energy without entropy =     -327.91553884  energy(sigma->0) =     -327.91553884


--------------------------------------------------------------------------------------------------------




--------------------------------------- Iteration      1(   6)  ---------------------------------------


    POTLOK:  cpu time    0.1397: real time    0.1407
    SETDIJ:  cpu time    0.0130: real time    0.0131
     EDDAV:  cpu time  113.8800: real time  114.6587
 BZINTS: Fermi energy:  4.989399;688.000000 electrons
         Band energy:***********;  BLOECHL correction:  0.000000
       DOS:  cpu time    0.0039: real time    0.0039
    CHARGE:  cpu time    1.4480: real time    1.4570
    MIXING:  cpu time    0.0031: real time    0.0117
    --------------------------------------------
      LOOP:  cpu time  115.4877: real time  116.2851

 eigenvalue-minimisations  : 16384
 total energy-change (2. order) :-0.5098174E-02  (-0.5116811E-02)
 number of electron     688.0000326 magnetization       0.0000000
 augmentation part      282.2110723 magnetization       0.0000000

 Broyden mixing:
  rms(total) = 0.96521E-02    rms(broyden)= 0.96492E-02
  rms(prec ) = 0.10033E-01
  weight for this iteration     100.00

 eigenvalues of (default mixing * dielectric matrix)
  average eigenvalue GAMMA=   0.7230
  0.7230

 Free energy of the ion-electron system (eV)
  ---------------------------------------------------
  alpha Z        PSCENC =      2357.83468072
  Ewald energy   TEWEN  =    -62491.37956663
  -Hartree energ DENC   =    -42938.71220570
  -exchange      EXHF   =         0.00000000
  -V(xc)+E(xc)   XCENC  =      3286.55451802
  PAW double counting   =    112294.19612383  -115988.19035945
  entropy T*S    EENTRO =         0.00000000
  eigenvalues    EBANDS =    -10868.28893543
  atomic energy  EATOM  =    114020.06510763
  Solvation  Ediel_sol  =         0.00000000
  ---------------------------------------------------
  free energy    TOTEN  =      -327.92063701 eV

  energy without entropy =     -327.92063701  energy(sigma->0) =     -327.92063701


--------------------------------------------------------------------------------------------------------




--------------------------------------- Iteration      1(   7)  ---------------------------------------


    POTLOK:  cpu time    0.1531: real time    0.1542
    SETDIJ:  cpu time    0.0166: real time    0.0166
     EDDAV:  cpu time  114.9890: real time  115.7789
 BZINTS: Fermi energy:  4.958251;688.000000 electrons
         Band energy:***********;  BLOECHL correction:  0.000000
       DOS:  cpu time    0.0037: real time    0.0038
    CHARGE:  cpu time    1.1734: real time    1.1809
    MIXING:  cpu time    0.0019: real time    0.0037
    --------------------------------------------
      LOOP:  cpu time  116.3378: real time  117.1381

 eigenvalue-minimisations  : 16384
 total energy-change (2. order) :-0.2987410E-03  (-0.3398479E-03)
 number of electron     688.0000326 magnetization      -0.0000000
 augmentation part      282.2250690 magnetization      -0.0000000

 Broyden mixing:
  rms(total) = 0.86938E-02    rms(broyden)= 0.86928E-02
  rms(prec ) = 0.90314E-02
  weight for this iteration     100.00

 eigenvalues of (default mixing * dielectric matrix)
  average eigenvalue GAMMA=   0.5457
  0.5457  0.5457

 Free energy of the ion-electron system (eV)
  ---------------------------------------------------
  alpha Z        PSCENC =      2357.83468072
  Ewald energy   TEWEN  =    -62491.37956663
  -Hartree energ DENC   =    -42937.79183305
  -exchange      EXHF   =         0.00000000
  -V(xc)+E(xc)   XCENC  =      3286.52518537
  PAW double counting   =    112286.90086682  -115980.72811884
  entropy T*S    EENTRO =         0.00000000
  eigenvalues    EBANDS =    -10869.34725777
  atomic energy  EATOM  =    114020.06510763
  Solvation  Ediel_sol  =         0.00000000
  ---------------------------------------------------
  free energy    TOTEN  =      -327.92093575 eV

  energy without entropy =     -327.92093575  energy(sigma->0) =     -327.92093575


--------------------------------------------------------------------------------------------------------




--------------------------------------- Iteration      1(   8)  ---------------------------------------


    POTLOK:  cpu time    0.1413: real time    0.1423
    SETDIJ:  cpu time    0.0131: real time    0.0132
     EDDAV:  cpu time  111.5698: real time  112.3390
 BZINTS: Fermi energy:  4.957510;688.000000 electrons
         Band energy:***********;  BLOECHL correction:  0.000000
       DOS:  cpu time    0.0038: real time    0.0038
    CHARGE:  cpu time    1.1742: real time    1.1822
    MIXING:  cpu time    0.0020: real time    0.0030
    --------------------------------------------
      LOOP:  cpu time  112.9042: real time  113.6835

 eigenvalue-minimisations  : 16384
 total energy-change (2. order) :-0.1386822E-04  (-0.3350692E-04)
 number of electron     688.0000326 magnetization      -0.0000000
 augmentation part      282.2225627 magnetization      -0.0000000

 Broyden mixing:
  rms(total) = 0.75845E-02    rms(broyden)= 0.75843E-02
  rms(prec ) = 0.76581E-02
  weight for this iteration     100.00

 eigenvalues of (default mixing * dielectric matrix)
  average eigenvalue GAMMA=   0.4238
  0.5084  0.5084  0.2547

 Free energy of the ion-electron system (eV)
  ---------------------------------------------------
  alpha Z        PSCENC =      2357.83468072
  Ewald energy   TEWEN  =    -62491.37956663
  -Hartree energ DENC   =    -42938.10450077
  -exchange      EXHF   =         0.00000000
  -V(xc)+E(xc)   XCENC  =      3286.53603386
  PAW double counting   =    112285.45852917  -115979.31851082
  entropy T*S    EENTRO =         0.00000000
  eigenvalues    EBANDS =    -10869.01272277
  atomic energy  EATOM  =    114020.06510763
  Solvation  Ediel_sol  =         0.00000000
  ---------------------------------------------------
  free energy    TOTEN  =      -327.92094962 eV

  energy without entropy =     -327.92094962  energy(sigma->0) =     -327.92094962


--------------------------------------------------------------------------------------------------------




--------------------------------------- Iteration      1(   9)  ---------------------------------------


    POTLOK:  cpu time    0.1404: real time    0.1414
    SETDIJ:  cpu time    0.0131: real time    0.0132
     EDDAV:  cpu time  107.0152: real time  107.7559
 BZINTS: Fermi energy:  4.956654;688.000000 electrons
         Band energy:***********;  BLOECHL correction:  0.000000
       DOS:  cpu time    0.0037: real time    0.0037
    CHARGE:  cpu time    1.1765: real time    1.1844
    MIXING:  cpu time    0.0019: real time    0.0019
    --------------------------------------------
      LOOP:  cpu time  108.3508: real time  109.1005

 eigenvalue-minimisations  : 15616
 total energy-change (2. order) : 0.9390351E-07  (-0.1762544E-05)
 number of electron     688.0000326 magnetization      -0.0000000
 augmentation part      282.2216104 magnetization      -0.0000000

 Broyden mixing:
  rms(total) = 0.67940E-02    rms(broyden)= 0.67939E-02
  rms(prec ) = 0.68105E-02
  weight for this iteration     100.00

 eigenvalues of (default mixing * dielectric matrix)
  average eigenvalue GAMMA=   0.4947
  0.6429  0.6429  0.3465  0.3465

 Free energy of the ion-electron system (eV)
  ---------------------------------------------------
  alpha Z        PSCENC =      2357.83468072
  Ewald energy   TEWEN  =    -62491.37956663
  -Hartree energ DENC   =    -42938.13602372
  -exchange      EXHF   =         0.00000000
  -V(xc)+E(xc)   XCENC  =      3286.53516526
  PAW double counting   =    112284.54784224  -115978.41043423
  entropy T*S    EENTRO =         0.00000000
  eigenvalues    EBANDS =    -10868.97772079
  atomic energy  EATOM  =    114020.06510763
  Solvation  Ediel_sol  =         0.00000000
  ---------------------------------------------------
  free energy    TOTEN  =      -327.92094952 eV

  energy without entropy =     -327.92094952  energy(sigma->0) =     -327.92094952


--------------------------------------------------------------------------------------------------------




--------------------------------------- Iteration      1(  10)  ---------------------------------------


    POTLOK:  cpu time    0.1396: real time    0.1417
    SETDIJ:  cpu time    0.0133: real time    0.0133
     EDDAV:  cpu time  130.9706: real time  131.8531
 BZINTS: Fermi energy:  4.955391;688.000000 electrons
         Band energy:***********;  BLOECHL correction:  0.000000
       DOS:  cpu time    0.0037: real time    0.0037
    CHARGE:  cpu time    1.1720: real time    1.1799
    MIXING:  cpu time    0.0021: real time    0.0021
    --------------------------------------------
      LOOP:  cpu time  132.3014: real time  133.1939

 eigenvalue-minimisations  : 17664
 total energy-change (2. order) : 0.2226589E-06  (-0.1004824E-06)
 number of electron     688.0000326 magnetization       0.0000000
 augmentation part      282.2212994 magnetization       0.0000000

 Broyden mixing:
  rms(total) = 0.58212E-02    rms(broyden)= 0.58212E-02
  rms(prec ) = 0.58362E-02
  weight for this iteration     100.00

 eigenvalues of (default mixing * dielectric matrix)
  average eigenvalue GAMMA=   0.7593
  1.2424  1.2424  0.4839  0.4839  0.3439

 Free energy of the ion-electron system (eV)
  ---------------------------------------------------
  alpha Z        PSCENC =      2357.83468072
  Ewald energy   TEWEN  =    -62491.37956663
  -Hartree energ DENC   =    -42938.16865204
  -exchange      EXHF   =         0.00000000
  -V(xc)+E(xc)   XCENC  =      3286.53509683
  PAW double counting   =    112282.88733653  -115976.74347811
  entropy T*S    EENTRO =         0.00000000
  eigenvalues    EBANDS =    -10868.95147422
  atomic energy  EATOM  =    114020.06510763
  Solvation  Ediel_sol  =         0.00000000
  ---------------------------------------------------
  free energy    TOTEN  =      -327.92094930 eV

  energy without entropy =     -327.92094930  energy(sigma->0) =     -327.92094930


--------------------------------------------------------------------------------------------------------




--------------------------------------- Iteration      1(  11)  ---------------------------------------


    POTLOK:  cpu time    0.1400: real time    0.1423
    SETDIJ:  cpu time    0.0132: real time    0.0132
     EDDAV:  cpu time   96.5251: real time   97.2077
 BZINTS: Fermi energy:  4.953740;688.000000 electrons
         Band energy:***********;  BLOECHL correction:  0.000000
       DOS:  cpu time    0.0038: real time    0.0038
    CHARGE:  cpu time    1.1767: real time    1.1850
    MIXING:  cpu time    0.0020: real time    0.0020
    --------------------------------------------
      LOOP:  cpu time   97.8608: real time   98.5540

 eigenvalue-minimisations  : 14592
 total energy-change (2. order) : 0.8811039E-06  (-0.1236663E-06)
 number of electron     688.0000326 magnetization       0.0000000
 augmentation part      282.2220460 magnetization       0.0000000

 Broyden mixing:
  rms(total) = 0.27138E-02    rms(broyden)= 0.27138E-02
  rms(prec ) = 0.27233E-02
  weight for this iteration     100.00

 eigenvalues of (default mixing * dielectric matrix)
  average eigenvalue GAMMA=   0.9026
  1.5903  1.5903  0.6732  0.6732  0.5507  0.3377

 Free energy of the ion-electron system (eV)
  ---------------------------------------------------
  alpha Z        PSCENC =      2357.83468072
  Ewald energy   TEWEN  =    -62491.37956663
  -Hartree energ DENC   =    -42938.18735766
  -exchange      EXHF   =         0.00000000
  -V(xc)+E(xc)   XCENC  =      3286.53367240
  PAW double counting   =    112277.63555018  -115971.45869034
  entropy T*S    EENTRO =         0.00000000
  eigenvalues    EBANDS =    -10868.96434473
  atomic energy  EATOM  =    114020.06510763
  Solvation  Ediel_sol  =         0.00000000
  ---------------------------------------------------
  free energy    TOTEN  =      -327.92094842 eV

  energy without entropy =     -327.92094842  energy(sigma->0) =     -327.92094842


--------------------------------------------------------------------------------------------------------




--------------------------------------- Iteration      1(  12)  ---------------------------------------


    POTLOK:  cpu time    0.1369: real time    0.1407
    SETDIJ:  cpu time    0.0131: real time    0.0132
     EDDAV:  cpu time  129.6310: real time  130.5164
 BZINTS: Fermi energy:  4.951373;688.000000 electrons
         Band energy:***********;  BLOECHL correction:  0.000000
       DOS:  cpu time    0.0039: real time    0.0039
    CHARGE:  cpu time    1.1961: real time    1.2046
    MIXING:  cpu time    0.0020: real time    0.0020
    --------------------------------------------
      LOOP:  cpu time  130.9831: real time  131.8807

 eigenvalue-minimisations  : 18176
 total energy-change (2. order) : 0.5413458E-06  (-0.1294854E-06)
 number of electron     688.0000326 magnetization       0.0000000
 augmentation part      282.2230460 magnetization       0.0000000

 Broyden mixing:
  rms(total) = 0.17733E-03    rms(broyden)= 0.17732E-03
  rms(prec ) = 0.19893E-03
  weight for this iteration     100.00

 eigenvalues of (default mixing * dielectric matrix)
  average eigenvalue GAMMA=   0.9230
  2.1950  1.0436  1.0436  0.6586  0.6586  0.5217  0.3401

 Free energy of the ion-electron system (eV)
  ---------------------------------------------------
  alpha Z        PSCENC =      2357.83468072
  Ewald energy   TEWEN  =    -62491.37956663
  -Hartree energ DENC   =    -42938.19200767
  -exchange      EXHF   =         0.00000000
  -V(xc)+E(xc)   XCENC  =      3286.53252458
  PAW double counting   =    112272.82627949  -115966.62060251
  entropy T*S    EENTRO =         0.00000000
  eigenvalues    EBANDS =    -10868.98736349
  atomic energy  EATOM  =    114020.06510763
  Solvation  Ediel_sol  =         0.00000000
  ---------------------------------------------------
  free energy    TOTEN  =      -327.92094788 eV

  energy without entropy =     -327.92094788  energy(sigma->0) =     -327.92094788


--------------------------------------------------------------------------------------------------------




--------------------------------------- Iteration      1(  13)  ---------------------------------------


    POTLOK:  cpu time    0.1373: real time    0.1399
    SETDIJ:  cpu time    0.0132: real time    0.0132
     EDDAV:  cpu time   90.2256: real time   90.8716
 BZINTS: Fermi energy:  4.950040;688.000000 electrons
         Band energy:***********;  BLOECHL correction:  0.000000
       DOS:  cpu time    0.0038: real time    0.0038
    CHARGE:  cpu time    1.4376: real time    1.4464
    MIXING:  cpu time    0.0022: real time    0.0023
    --------------------------------------------
      LOOP:  cpu time   91.8197: real time   92.4772

 eigenvalue-minimisations  : 14080
 total energy-change (2. order) : 0.1590524E-07  (-0.1049272E-07)
 number of electron     688.0000326 magnetization      -0.0000000
 augmentation part      282.2231175 magnetization      -0.0000000

 Broyden mixing:
  rms(total) = 0.27479E-03    rms(broyden)= 0.27479E-03
  rms(prec ) = 0.27880E-03
  weight for this iteration     100.00

 eigenvalues of (default mixing * dielectric matrix)
  average eigenvalue GAMMA=   1.0503
  2.7039  1.3971  1.3971  0.7379  0.7379  0.3396  0.5446  0.5446

 Free energy of the ion-electron system (eV)
  ---------------------------------------------------
  alpha Z        PSCENC =      2357.83468072
  Ewald energy   TEWEN  =    -62491.37956663
  -Hartree energ DENC   =    -42938.19224144
  -exchange      EXHF   =         0.00000000
  -V(xc)+E(xc)   XCENC  =      3286.53246733
  PAW double counting   =    112272.42024570  -115966.21302830
  entropy T*S    EENTRO =         0.00000000
  eigenvalues    EBANDS =    -10868.98861288
  atomic energy  EATOM  =    114020.06510763
  Solvation  Ediel_sol  =         0.00000000
  ---------------------------------------------------
  free energy    TOTEN  =      -327.92094786 eV

  energy without entropy =     -327.92094786  energy(sigma->0) =     -327.92094786


--------------------------------------------------------------------------------------------------------




--------------------------------------- Iteration      1(  14)  ---------------------------------------


    POTLOK:  cpu time    0.1492: real time    0.1504
    SETDIJ:  cpu time    0.0148: real time    0.0149
     EDDAV:  cpu time   88.6696: real time   89.2846
 BZINTS: Fermi energy:  4.947184;688.000000 electrons
         Band energy:***********;  BLOECHL correction:  0.000000
       DOS:  cpu time    0.0039: real time    0.0039
    CHARGE:  cpu time    1.1734: real time    1.1814
    MIXING:  cpu time    0.0022: real time    0.0022
    --------------------------------------------
      LOOP:  cpu time   90.0130: real time   90.6373

 eigenvalue-minimisations  : 12288
 total energy-change (2. order) :-0.2169691E-07  (-0.7955311E-08)
 number of electron     688.0000326 magnetization      -0.0000000
 augmentation part      282.2231370 magnetization      -0.0000000

 Broyden mixing:
  rms(total) = 0.16088E-03    rms(broyden)= 0.16088E-03
  rms(prec ) = 0.16264E-03
  weight for this iteration     100.00

 eigenvalues of (default mixing * dielectric matrix)
  average eigenvalue GAMMA=   1.1493
  3.4444  1.5588  1.5588  0.8645  0.8645  0.3396  0.5920  0.5920  0.5291

 Free energy of the ion-electron system (eV)
  ---------------------------------------------------
  alpha Z        PSCENC =      2357.83468072
  Ewald energy   TEWEN  =    -62491.37956663
  -Hartree energ DENC   =    -42938.18825164
  -exchange      EXHF   =         0.00000000
  -V(xc)+E(xc)   XCENC  =      3286.53247237
  PAW double counting   =    112272.55967006  -115966.35441876
  entropy T*S    EENTRO =         0.00000000
  eigenvalues    EBANDS =    -10868.99064163
  atomic energy  EATOM  =    114020.06510763
  Solvation  Ediel_sol  =         0.00000000
  ---------------------------------------------------
  free energy    TOTEN  =      -327.92094789 eV

  energy without entropy =     -327.92094789  energy(sigma->0) =     -327.92094789


--------------------------------------------------------------------------------------------------------




--------------------------------------- Iteration      1(  15)  ---------------------------------------


    POTLOK:  cpu time    0.1389: real time    0.1400
    SETDIJ:  cpu time    0.0131: real time    0.0132
     EDDAV:  cpu time   67.4187: real time   67.9077
 BZINTS: Fermi energy:  4.945023;688.000000 electrons
         Band energy:***********;  BLOECHL correction:  0.000000
       DOS:  cpu time    0.0039: real time    0.0039
    CHARGE:  cpu time    1.1733: real time    1.1813
    MIXING:  cpu time    0.0024: real time    0.0024
    --------------------------------------------
      LOOP:  cpu time   68.7502: real time   69.2485

 eigenvalue-minimisations  : 10240
 total energy-change (2. order) : 0.1640001E-07  (-0.2403196E-08)
 number of electron     688.0000326 magnetization       0.0000000
 augmentation part      282.2231258 magnetization       0.0000000

 Broyden mixing:
  rms(total) = 0.21924E-03    rms(broyden)= 0.21924E-03
  rms(prec ) = 0.21998E-03
  weight for this iteration     100.00

 eigenvalues of (default mixing * dielectric matrix)
  average eigenvalue GAMMA=   1.1486
  3.4849  1.6722  1.6722  0.9483  0.9483  0.3396  0.6585  0.6585  0.5519  0.5519

 Free energy of the ion-electron system (eV)
  ---------------------------------------------------
  alpha Z        PSCENC =      2357.83468072
  Ewald energy   TEWEN  =    -62491.37956663
  -Hartree energ DENC   =    -42938.18866191
  -exchange      EXHF   =         0.00000000
  -V(xc)+E(xc)   XCENC  =      3286.53241235
  PAW double counting   =    112272.43511471  -115966.22942779
  entropy T*S    EENTRO =         0.00000000
  eigenvalues    EBANDS =    -10868.99060695
  atomic energy  EATOM  =    114020.06510763
  Solvation  Ediel_sol  =         0.00000000
  ---------------------------------------------------
  free energy    TOTEN  =      -327.92094787 eV

  energy without entropy =     -327.92094787  energy(sigma->0) =     -327.92094787


--------------------------------------------------------------------------------------------------------




--------------------------------------- Iteration      1(  16)  ---------------------------------------


    POTLOK:  cpu time    0.1360: real time    0.1383
    SETDIJ:  cpu time    0.0133: real time    0.0134
     EDDAV:  cpu time   78.6086: real time   79.1554
 BZINTS: Fermi energy:  4.943475;688.000000 electrons
         Band energy:***********;  BLOECHL correction:  0.000000
       DOS:  cpu time    0.0039: real time    0.0039
    CHARGE:  cpu time    1.1715: real time    1.1799
    MIXING:  cpu time    0.0025: real time    0.0030
    --------------------------------------------
      LOOP:  cpu time   79.9358: real time   80.4938

 eigenvalue-minimisations  : 10752
 total energy-change (2. order) :-0.1770968E-07  (-0.2742545E-09)
 number of electron     688.0000326 magnetization      -0.0000000
 augmentation part      282.2230969 magnetization      -0.0000000

 Broyden mixing:
  rms(total) = 0.16919E-03    rms(broyden)= 0.16919E-03
  rms(prec ) = 0.16959E-03
  weight for this iteration     100.00

 eigenvalues of (default mixing * dielectric matrix)
  average eigenvalue GAMMA=   1.2499
  3.8421  2.0437  2.0437  1.1466  1.1466  0.3396  0.7270  0.7270  0.5441  0.5945
  0.5945

 Free energy of the ion-electron system (eV)
  ---------------------------------------------------
  alpha Z        PSCENC =      2357.83468072
  Ewald energy   TEWEN  =    -62491.37956663
  -Hartree energ DENC   =    -42938.18971567
  -exchange      EXHF   =         0.00000000
  -V(xc)+E(xc)   XCENC  =      3286.53245989
  PAW double counting   =    112272.50405441  -115966.29882345
  entropy T*S    EENTRO =         0.00000000
  eigenvalues    EBANDS =    -10868.98914478
  atomic energy  EATOM  =    114020.06510763
  Solvation  Ediel_sol  =         0.00000000
  ---------------------------------------------------
  free energy    TOTEN  =      -327.92094789 eV

  energy without entropy =     -327.92094789  energy(sigma->0) =     -327.92094789


--------------------------------------------------------------------------------------------------------




--------------------------------------- Iteration      1(  17)  ---------------------------------------


    POTLOK:  cpu time    0.1391: real time    0.1402
    SETDIJ:  cpu time    0.0132: real time    0.0132
     EDDAV:  cpu time   80.1406: real time   80.6957
 BZINTS: Fermi energy:  4.941535;688.000000 electrons
         Band energy:***********;  BLOECHL correction:  0.000000
       DOS:  cpu time    0.0038: real time    0.0039
    CHARGE:  cpu time    1.1759: real time    1.1834
    MIXING:  cpu time    0.0024: real time    0.0025
    --------------------------------------------
      LOOP:  cpu time   81.4751: real time   82.0388

 eigenvalue-minimisations  : 11008
 total energy-change (2. order) :-0.2645538E-07  (-0.3928030E-09)
 number of electron     688.0000326 magnetization      -0.0000000
 augmentation part      282.2230609 magnetization      -0.0000000

 Broyden mixing:
  rms(total) = 0.58243E-04    rms(broyden)= 0.58243E-04
  rms(prec ) = 0.58351E-04
  weight for this iteration     100.00

 eigenvalues of (default mixing * dielectric matrix)
  average eigenvalue GAMMA=   1.2316
  3.9703  2.0384  2.0384  1.2195  1.2195  0.3396  0.7899  0.7899  0.6246  0.6246
  0.5622  0.5622

 Free energy of the ion-electron system (eV)
  ---------------------------------------------------
  alpha Z        PSCENC =      2357.83468072
  Ewald energy   TEWEN  =    -62491.37956663
  -Hartree energ DENC   =    -42938.18935412
  -exchange      EXHF   =         0.00000000
  -V(xc)+E(xc)   XCENC  =      3286.53251825
  PAW double counting   =    112272.67776762  -115966.47363157
  entropy T*S    EENTRO =         0.00000000
  eigenvalues    EBANDS =    -10868.98846982
  atomic energy  EATOM  =    114020.06510763
  Solvation  Ediel_sol  =         0.00000000
  ---------------------------------------------------
  free energy    TOTEN  =      -327.92094791 eV

  energy without entropy =     -327.92094791  energy(sigma->0) =     -327.92094791


--------------------------------------------------------------------------------------------------------




--------------------------------------- Iteration      1(  18)  ---------------------------------------


    POTLOK:  cpu time    0.1355: real time    0.1394
    SETDIJ:  cpu time    0.0131: real time    0.0132
     EDDAV:  cpu time   64.3030: real time   64.7678
 BZINTS: Fermi energy:  4.940723;688.000000 electrons
         Band energy:***********;  BLOECHL correction:  0.000000
       DOS:  cpu time    0.0038: real time    0.0039
    --------------------------------------------
      LOOP:  cpu time   64.4555: real time   64.9242

 eigenvalue-minimisations  :  9728
 total energy-change (2. order) :-0.5296897E-08  ( 0.3230958E-10)
 number of electron     688.0000326 magnetization      -0.0000000
 augmentation part      282.2230609 magnetization      -0.0000000

 Free energy of the ion-electron system (eV)
  ---------------------------------------------------
  alpha Z        PSCENC =      2357.83468072
  Ewald energy   TEWEN  =    -62491.37956663
  -Hartree energ DENC   =    -42938.18884043
  -exchange      EXHF   =         0.00000000
  -V(xc)+E(xc)   XCENC  =      3286.53251780
  PAW double counting   =    112272.72312976  -115966.51921040
  entropy T*S    EENTRO =         0.00000000
  eigenvalues    EBANDS =    -10868.98876636
  atomic energy  EATOM  =    114020.06510763
  Solvation  Ediel_sol  =         0.00000000
  ---------------------------------------------------
  free energy    TOTEN  =      -327.92094792 eV

  energy without entropy =     -327.92094792  energy(sigma->0) =     -327.92094792


--------------------------------------------------------------------------------------------------------




 average (electrostatic) potential at core
  the test charge radii are     0.9698  0.8297  0.9500
  (the norm of the test charge is              1.0000)
       1 -86.6129       2 -86.6129       3 -86.6129       4 -86.6129       5 -86.6129
       6 -86.6129       7 -86.6129       8 -86.6129       9 -86.6129      10 -86.6129
      11 -86.6129      12 -86.6129      13 -86.6129      14 -86.6129      15 -86.6129
      16 -86.6129      17 -86.6129      18 -86.6129      19 -86.6129      20 -86.6129
      21 -86.6129      22 -86.6129      23 -86.6129      24 -86.6129      25 -86.6129
      26 -86.6129      27 -86.6129      28 -86.6129      29 -86.6129      30 -86.6129
      31 -86.6129      32 -86.6129      33 -80.6942      34 -80.6942      35 -80.6942
      36 -80.6942      37 -80.6942      38 -80.6942      39 -80.6942      40 -80.6942
      41 -80.6942      42 -80.6942      43 -80.6942      44 -80.6942      45 -80.6942
      46 -80.6942      47 -80.6942      48 -80.6942      49 -80.2162      50 -80.2162
      51 -80.2162      52 -80.2162      53 -80.2162      54 -80.2162      55 -80.2162
      56 -80.2162      57 -80.2162      58 -80.2162      59 -80.2162      60 -80.2162
      61 -80.2162      62 -80.2162      63 -80.2162      64 -80.2162
 
 
 
 E-fermi :   4.9407     XC(G=0): -10.4713     alpha+bet :-10.5539


 spin component 1

 k-point     1 :       0.0000    0.0000    0.0000
  band No.  band energies     occupation 
      1     -64.3055      1.00000
      2     -64.3055      1.00000
      3     -64.3055      1.00000
      4     -64.3055      1.00000
      5     -64.3055      1.00000
      6     -64.3055      1.00000
      7     -64.3055      1.00000
[...]
   -.421E+02 0.344E+00 0.135E+02   0.429E+02 -.329E+00 -.136E+02   -.861E+00 -.144E-01 0.130E+00   -.650E-05 0.267E-06 0.259E-06
   -.421E+02 0.344E+00 0.135E+02   0.429E+02 -.329E+00 -.136E+02   -.861E+00 -.144E-01 0.130E+00   -.650E-05 0.267E-06 0.259E-06
   -.421E+02 0.344E+00 0.135E+02   0.429E+02 -.329E+00 -.136E+02   -.861E+00 -.144E-01 0.130E+00   -.650E-05 0.267E-06 0.259E-06
   -.421E+02 0.344E+00 0.135E+02   0.429E+02 -.329E+00 -.136E+02   -.861E+00 -.144E-01 0.130E+00   -.650E-05 0.267E-06 0.259E-06
   0.421E+02 -.344E+00 0.135E+02   -.429E+02 0.329E+00 -.136E+02   0.861E+00 0.144E-01 0.130E+00   0.650E-05 -.267E-06 0.259E-06
   0.421E+02 -.344E+00 0.135E+02   -.429E+02 0.329E+00 -.136E+02   0.861E+00 0.144E-01 0.130E+00   0.650E-05 -.267E-06 0.259E-06
   0.421E+02 -.344E+00 0.135E+02   -.429E+02 0.329E+00 -.136E+02   0.861E+00 0.144E-01 0.130E+00   0.650E-05 -.267E-06 0.259E-06
   0.421E+02 -.344E+00 0.135E+02   -.429E+02 0.329E+00 -.136E+02   0.861E+00 0.144E-01 0.130E+00   0.650E-05 -.267E-06 0.259E-06
   0.344E+00 -.421E+02 0.135E+02   -.329E+00 0.429E+02 -.136E+02   -.144E-01 -.861E+00 0.130E+00   0.267E-06 -.650E-05 0.259E-06
   0.344E+00 -.421E+02 0.135E+02   -.329E+00 0.429E+02 -.136E+02   -.144E-01 -.861E+00 0.130E+00   0.267E-06 -.650E-05 0.259E-06
   0.344E+00 -.421E+02 0.135E+02   -.329E+00 0.429E+02 -.136E+02   -.144E-01 -.861E+00 0.130E+00   0.267E-06 -.650E-05 0.259E-06
   0.344E+00 -.421E+02 0.135E+02   -.329E+00 0.429E+02 -.136E+02   -.144E-01 -.861E+00 0.130E+00   0.267E-06 -.650E-05 0.259E-06
   -.344E+00 0.421E+02 0.135E+02   0.329E+00 -.429E+02 -.136E+02   0.144E-01 0.861E+00 0.130E+00   -.267E-06 0.650E-05 0.259E-06
   -.344E+00 0.421E+02 0.135E+02   0.329E+00 -.429E+02 -.136E+02   0.144E-01 0.861E+00 0.130E+00   -.267E-06 0.650E-05 0.259E-06
   -.344E+00 0.421E+02 0.135E+02   0.329E+00 -.429E+02 -.136E+02   0.144E-01 0.861E+00 0.130E+00   -.267E-06 0.650E-05 0.259E-06
   -.344E+00 0.421E+02 0.135E+02   0.329E+00 -.429E+02 -.136E+02   0.144E-01 0.861E+00 0.130E+00   -.267E-06 0.650E-05 0.259E-06
   -.169E-06 0.718E-07 -.158E+02   -.480E-13 -.711E-13 0.152E+02   -.218E-25 -.517E-25 0.640E+00   0.275E-11 -.416E-11 -.604E-06
   -.169E-06 0.718E-07 -.158E+02   -.160E-13 -.114E-12 0.152E+02   0.256E-25 -.168E-24 0.640E+00   -.255E-11 -.376E-11 -.604E-06
   -.169E-06 0.718E-07 -.158E+02   -.195E-13 -.107E-12 0.152E+02   0.473E-25 0.775E-25 0.640E+00   0.278E-11 0.407E-11 -.604E-06
   -.169E-06 0.718E-07 -.158E+02   -.160E-13 -.114E-12 0.152E+02   0.983E-25 0.646E-25 0.640E+00   -.304E-11 0.422E-11 -.604E-06
   0.718E-07 -.169E-06 -.158E+02   -.199E-12 -.853E-13 0.152E+02   -.162E-24 -.103E-24 0.640E+00   -.106E-11 -.365E-11 -.604E-06
   0.718E-07 -.169E-06 -.158E+02   -.227E-12 -.853E-13 0.152E+02   -.404E-26 0.103E-24 0.640E+00   0.879E-12 -.416E-11 -.604E-06
   0.718E-07 -.169E-06 -.158E+02   -.199E-12 -.568E-13 0.152E+02   0.295E-25 0.128E-24 0.640E+00   -.104E-11 0.358E-11 -.604E-06
   0.718E-07 -.169E-06 -.158E+02   -.199E-12 -.568E-13 0.152E+02   -.485E-26 -.103E-24 0.640E+00   0.571E-12 0.434E-11 -.604E-06
   -.169E-06 0.718E-07 -.158E+02   -.213E-13 -.110E-12 0.152E+02   -.512E-25 -.775E-25 0.640E+00   -.320E-13 -.192E-11 -.604E-06
   -.169E-06 0.718E-07 -.158E+02   -.497E-13 -.117E-12 0.152E+02   0.321E-25 0.646E-26 0.640E+00   -.222E-12 -.195E-11 -.604E-06
   -.169E-06 0.718E-07 -.158E+02   0.000E+00 -.125E-12 0.152E+02   0.503E-25 -.187E-24 0.640E+00   -.353E-12 0.201E-11 -.604E-06
   -.169E-06 0.718E-07 -.158E+02   0.000E+00 -.542E-13 0.152E+02   -.545E-25 0.775E-25 0.640E+00   -.104E-12 0.196E-11 -.604E-06
   0.718E-07 -.169E-06 -.158E+02   -.196E-12 -.116E-12 0.152E+02   0.249E-24 -.388E-25 0.640E+00   -.388E-11 -.257E-11 -.604E-06
   0.718E-07 -.169E-06 -.158E+02   -.222E-12 -.116E-12 0.152E+02   -.174E-24 -.808E-26 0.640E+00   0.364E-11 -.238E-11 -.604E-06
   0.718E-07 -.169E-06 -.158E+02   -.196E-12 -.817E-13 0.152E+02   0.250E-25 0.905E-25 0.640E+00   -.451E-11 0.280E-11 -.604E-06
   0.718E-07 -.169E-06 -.158E+02   -.222E-12 -.817E-13 0.152E+02   0.368E-25 -.168E-24 0.640E+00   0.403E-11 0.227E-11 -.604E-06
   0.649E-07 -.712E-07 -.128E+02   0.262E-12 -.210E-12 0.121E+02   0.000E+00 -.142E-24 0.764E+00   -.344E-11 -.297E-11 0.297E-06
   0.649E-07 -.712E-07 -.128E+02   0.223E-12 -.213E-12 0.121E+02   -.162E-26 -.155E-24 0.764E+00   0.349E-11 -.303E-11 0.297E-06
   0.649E-07 -.712E-07 -.128E+02   0.213E-12 -.174E-12 0.121E+02   -.242E-26 0.162E-25 0.764E+00   -.373E-11 0.310E-11 0.297E-06
   0.649E-07 -.712E-07 -.128E+02   0.216E-12 -.171E-12 0.121E+02   0.200E-25 -.614E-25 0.764E+00   0.348E-11 0.274E-11 0.297E-06
   -.712E-07 0.649E-07 -.128E+02   -.178E-13 -.711E-14 0.121E+02   -.592E-25 -.517E-25 0.764E+00   0.169E-12 -.287E-11 0.298E-06
   -.712E-07 0.649E-07 -.128E+02   -.107E-13 -.711E-14 0.121E+02   -.291E-25 -.775E-25 0.764E+00   -.461E-13 -.337E-11 0.298E-06
   -.712E-07 0.649E-07 -.128E+02   -.853E-13 0.142E-13 0.121E+02   0.214E-25 0.129E-25 0.764E+00   0.284E-12 0.278E-11 0.298E-06
   -.712E-07 0.649E-07 -.128E+02   -.213E-13 -.711E-14 0.121E+02   0.101E-24 0.116E-24 0.764E+00   -.469E-12 0.329E-11 0.298E-06
   0.649E-07 -.712E-07 -.128E+02   0.206E-12 -.191E-12 0.121E+02   0.452E-25 -.517E-25 0.764E+00   -.473E-12 -.233E-11 0.298E-06
   0.649E-07 -.712E-07 -.128E+02   0.220E-12 -.249E-12 0.121E+02   -.237E-25 -.194E-25 0.764E+00   0.293E-12 -.260E-11 0.298E-06
   0.649E-07 -.712E-07 -.128E+02   0.185E-12 -.118E-12 0.121E+02   -.218E-25 -.129E-25 0.764E+00   -.580E-12 0.231E-11 0.298E-06
   0.649E-07 -.712E-07 -.128E+02   0.185E-12 -.122E-12 0.121E+02   -.493E-25 -.517E-25 0.764E+00   0.224E-12 0.240E-11 0.298E-06
   -.712E-07 0.649E-07 -.128E+02   -.513E-13 0.863E-13 0.121E+02   0.759E-25 0.646E-25 0.764E+00   0.218E-11 -.209E-11 0.297E-06
   -.712E-07 0.648E-07 -.128E+02   -.171E-13 0.292E-13 0.121E+02   0.192E-24 0.129E-24 0.764E+00   -.206E-11 -.189E-11 0.297E-06
   -.712E-07 0.649E-07 -.128E+02   -.752E-13 0.639E-13 0.121E+02   0.111E-24 -.517E-25 0.764E+00   0.151E-11 0.204E-11 0.297E-06
   -.712E-07 0.649E-07 -.128E+02   -.126E-13 0.566E-13 0.121E+02   -.917E-25 -.323E-25 0.764E+00   -.156E-11 0.192E-11 0.297E-06
 -----------------------------------------------------------------------------------------------
   -.791E-06 -.790E-06 -.267E+02   0.286E-12 0.430E-12 -.256E-12   -.144E-14 -.444E-15 0.266E+02   -.854E-12 -.359E-12 0.339E-05
 
 
 POSITION                                       TOTAL-FORCE (eV/Angst)
 -----------------------------------------------------------------------------------
      1.35381      1.34481      1.27764         0.001827     -0.000763     -0.002461
      6.60678      1.45938      1.27764         0.001827     -0.000763     -0.002461
      1.46838      6.59778      1.27764         0.001827     -0.000763     -0.002461
      6.72134      6.71234      1.27764         0.001827     -0.000763     -0.002461
      4.01372      4.02272      1.27764        -0.001827      0.000763     -0.002461
      9.26668      4.13729      1.27764        -0.001827      0.000763     -0.002461
      4.12828      9.27569      1.27764        -0.001827      0.000763     -0.002461
      9.38125      9.39025      1.27764        -0.001827      0.000763     -0.002461
      1.39624      3.95644      9.09462         0.000763     -0.001827     -0.002461
      6.64920      4.07100      9.09462         0.000763     -0.001827     -0.002461
      1.51080      9.20940      9.09462         0.000763     -0.001827     -0.002461
      6.76377      9.32397      9.09462         0.000763     -0.001827     -0.002461
      3.97129      1.41110      9.09462        -0.000763      0.001827     -0.002461
      9.22426      1.52566      9.09462        -0.000763      0.001827     -0.002461
      4.08586      6.66406      9.09462        -0.000763      0.001827     -0.002461
      9.33882      6.77863      9.09462        -0.000763      0.001827     -0.002461
      1.32995      1.33896      6.48896        -0.001827      0.000763     -0.002461
      6.58292      1.45352      6.48896        -0.001827      0.000763     -0.002461
      1.44452      6.59192      6.48896        -0.001827      0.000763     -0.002461
      6.69748      6.70649      6.48896        -0.001827      0.000763     -0.002461
      4.03758      4.02858      6.48896         0.001827     -0.000763     -0.002461
      9.29054      4.14314      6.48896         0.001827     -0.000763     -0.002461
      4.15214      9.28154      6.48896         0.001827     -0.000763     -0.002461
      9.40511      9.39611      6.48896         0.001827     -0.000763     -0.002461
      3.96544      1.38724      3.88330         0.000763     -0.001827     -0.002461
      9.21840      1.50180      3.88330         0.000763     -0.001827     -0.002461
      4.08000      6.64020      3.88330         0.000763     -0.001827     -0.002461
      9.33297      6.75477      3.88330         0.000763     -0.001827     -0.002461
      1.40209      3.98030      3.88330        -0.000763      0.001827     -0.002461
      6.65506      4.09486      3.88330        -0.000763      0.001827     -0.002461
      1.51666      9.23326      3.88330        -0.000763      0.001827     -0.002461
      6.76962      9.34783      3.88330        -0.000763      0.001827     -0.002461
      0.00000      0.00000      5.23318         0.000000     -0.000000     -0.000191
      5.25297      0.11457      5.23318         0.000000     -0.000000     -0.000191
      0.11457      5.25297      5.23318         0.000000     -0.000000     -0.000191
      5.36753      5.36753      5.23318         0.000000     -0.000000     -0.000191
      2.62648      0.05728      2.62752         0.000000     -0.000000     -0.000191
      7.87945      0.17185      2.62752         0.000000     -0.000000     -0.000191
      2.74105      5.31025      2.62752         0.000000     -0.000000     -0.000191
      7.99401      5.42481      2.62752         0.000000     -0.000000     -0.000191
      2.68377      2.68377      0.02186         0.000000     -0.000000     -0.000191
      7.93673      2.79833      0.02186         0.000000     -0.000000     -0.000191
      2.79833      7.93673      0.02186         0.000000     -0.000000     -0.000191
      8.05130      8.05130      0.02186         0.000000     -0.000000     -0.000191
      0.05728      2.62648      7.83884         0.000000     -0.000000     -0.000191
      5.31025      2.74105      7.83884         0.000000     -0.000000     -0.000191
      0.17185      7.87945      7.83884         0.000000     -0.000000     -0.000191
      5.42481      7.99401      7.83884         0.000000     -0.000000     -0.000191
      0.00000      0.00000      0.02854         0.000000     -0.000000      0.005113
      5.25297      0.11457      0.02854         0.000000     -0.000000      0.005113
      0.11457      5.25297      0.02854         0.000000     -0.000000      0.005113
      5.36753      5.36753      0.02854         0.000000     -0.000000      0.005113
      2.62648      0.05728      7.84552         0.000000     -0.000000      0.005113
      7.87945      0.17185      7.84552         0.000000     -0.000000      0.005113
      2.74105      5.31025      7.84552         0.000000     -0.000000      0.005113
      7.99401      5.42481      7.84552         0.000000     -0.000000      0.005113
      2.68377      2.68377      5.23986         0.000000     -0.000000      0.005113
      7.93673      2.79833      5.23986         0.000000     -0.000000      0.005113
      2.79833      7.93673      5.23986         0.000000     -0.000000      0.005113
      8.05130      8.05130      5.23986         0.000000     -0.000000      0.005113
      0.05728      2.62648      2.63420         0.000000     -0.000000      0.005113
      5.31025      2.74105      2.63420         0.000000     -0.000000      0.005113
      0.17185      7.87945      2.63420         0.000000     -0.000000      0.005113
      5.42481      7.99401      2.63420         0.000000     -0.000000      0.005113
 -----------------------------------------------------------------------------------
    total drift:                               -0.000001     -0.000001     -0.028548


--------------------------------------------------------------------------------------------------------



  FREE ENERGIE OF THE ION-ELECTRON SYSTEM (eV)
  ---------------------------------------------------
  free  energy   TOTEN  =      -327.92094792 eV

  energy  without entropy=     -327.92094792  energy(sigma->0) =     -327.92094792
 


--------------------------------------------------------------------------------------------------------


    POTLOK:  cpu time    0.1505: real time    0.1513


--------------------------------------------------------------------------------------------------------


 writing wavefunctions
     LOOP+:  cpu time 1881.8701: real time 1895.2993
    4ORBIT:  cpu time    0.0000: real time    0.0000
 


 total charge     
 
# of ion       s       p       d       tot
------------------------------------------
    1        1.314   2.410   0.000   3.723
    2        1.314   2.410   0.000   3.723
    3        1.314   2.410   0.000   3.723
    4        1.314   2.410   0.000   3.723
    5        1.314   2.410   0.000   3.723
    6        1.314   2.410   0.000   3.723
    7        1.314   2.410   0.000   3.723
    8        1.314   2.410   0.000   3.723
    9        1.314   2.410   0.000   3.724
   10        1.314   2.410   0.000   3.724
   11        1.314   2.410   0.000   3.724
   12        1.314   2.410   0.000   3.724
   13        1.314   2.410   0.000   3.724
   14        1.314   2.410   0.000   3.724
   15        1.314   2.410   0.000   3.724
   16        1.314   2.410   0.000   3.724
   17        1.314   2.410   0.000   3.723
   18        1.314   2.410   0.000   3.723
   19        1.314   2.410   0.000   3.723
   20        1.314   2.410   0.000   3.723
   21        1.314   2.410   0.000   3.723
   22        1.314   2.410   0.000   3.723
   23        1.314   2.410   0.000   3.723
   24        1.314   2.410   0.000   3.723
   25        1.314   2.410   0.000   3.724
   26        1.314   2.410   0.000   3.724
   27        1.314   2.410   0.000   3.724
   28        1.314   2.410   0.000   3.724
   29        1.314   2.410   0.000   3.724
   30        1.314   2.410   0.000   3.724
   31        1.314   2.410   0.000   3.724
   32        1.314   2.410   0.000   3.724
   33        0.260   6.202   8.916  15.378
   34        0.260   6.202   8.916  15.378
   35        0.260   6.202   8.916  15.378
   36        0.260   6.202   8.916  15.378
   37        0.259   6.202   8.917  15.378
   38        0.259   6.202   8.917  15.378
   39        0.259   6.202   8.917  15.378
   40        0.259   6.202   8.917  15.378
   41        0.260   6.202   8.916  15.378
   42        0.260   6.202   8.916  15.378
   43        0.260   6.202   8.916  15.378
   44        0.260   6.202   8.916  15.378
   45        0.259   6.202   8.917  15.378
   46        0.259   6.202   8.917  15.378
   47        0.259   6.202   8.917  15.378
   48        0.259   6.202   8.917  15.378
   49        0.350   6.350   5.820  12.521
   50        0.350   6.350   5.820  12.521
   51        0.350   6.350   5.820  12.521
   52        0.350   6.350   5.820  12.521
   53        0.350   6.350   5.820  12.521
   54        0.350   6.350   5.820  12.521
   55        0.350   6.350   5.820  12.521
   56        0.350   6.350   5.820  12.521
   57        0.350   6.350   5.820  12.521
   58        0.350   6.350   5.820  12.521
   59        0.350   6.350   5.820  12.521
   60        0.350   6.350   5.820  12.521
   61        0.350   6.350   5.820  12.521
   62        0.350   6.350   5.820  12.521
   63        0.350   6.350   5.820  12.521
   64        0.350   6.350   5.820  12.521
--------------------------------------------------
tot         51.787 277.956 235.789 565.532
 


 magnetization (x)
 
# of ion       s       p       d       tot
------------------------------------------
    1       -0.001  -0.011   0.000  -0.011
    2       -0.001  -0.011   0.000  -0.011
    3       -0.001  -0.011   0.000  -0.011
    4       -0.001  -0.011   0.000  -0.011
    5       -0.001  -0.011   0.000  -0.011
    6       -0.001  -0.011   0.000  -0.011
    7       -0.001  -0.011   0.000  -0.011
    8       -0.001  -0.011   0.000  -0.011
    9        0.001   0.011   0.000   0.011
   10        0.001   0.011   0.000   0.011
   11        0.001   0.011   0.000   0.011
   12        0.001   0.011   0.000   0.011
   13        0.001   0.011   0.000   0.011
   14        0.001   0.011   0.000   0.011
   15        0.001   0.011   0.000   0.011
   16        0.001   0.011   0.000   0.011
   17       -0.001  -0.011   0.000  -0.011
   18       -0.001  -0.011   0.000  -0.011
   19       -0.001  -0.011   0.000  -0.011
   20       -0.001  -0.011   0.000  -0.011
   21       -0.001  -0.011   0.000  -0.011
   22       -0.001  -0.011   0.000  -0.011
   23       -0.001  -0.011   0.000  -0.011
   24       -0.001  -0.011   0.000  -0.011
   25        0.001   0.011   0.000   0.011
   26        0.001   0.011   0.000   0.011
   27        0.001   0.011   0.000   0.011
   28        0.001   0.011   0.000   0.011
   29        0.001   0.011   0.000   0.011
   30        0.001   0.011   0.000   0.011
   31        0.001   0.011   0.000   0.011
   32        0.001   0.011   0.000   0.011
   33        0.000   0.000  -0.000   0.001
   34        0.000   0.000  -0.000   0.001
   35        0.000   0.000  -0.000   0.001
   36        0.000   0.000  -0.000   0.001
   37       -0.000  -0.000  -0.000  -0.001
   38       -0.000  -0.000  -0.000  -0.001
   39       -0.000  -0.000  -0.000  -0.001
   40       -0.000  -0.000  -0.000  -0.001
   41        0.000   0.000  -0.000   0.001
   42        0.000   0.000  -0.000   0.001
   43        0.000   0.000  -0.000   0.001
   44        0.000   0.000  -0.000   0.001
   45       -0.000  -0.000  -0.000  -0.001
   46       -0.000  -0.000  -0.000  -0.001
   47       -0.000  -0.000  -0.000  -0.001
   48       -0.000  -0.000  -0.000  -0.001
   49        0.020   0.054   3.670   3.744
   50        0.020   0.054   3.670   3.744
   51        0.020   0.054   3.670   3.744
   52        0.020   0.054   3.670   3.744
   53       -0.020  -0.054  -3.670  -3.743
   54       -0.020  -0.054  -3.670  -3.743
   55       -0.020  -0.054  -3.670  -3.743
   56       -0.020  -0.054  -3.670  -3.743
   57        0.020   0.054   3.670   3.744
   58        0.020   0.054   3.670   3.744
   59        0.020   0.054   3.670   3.744
   60        0.020   0.054   3.670   3.744
   61       -0.020  -0.054  -3.670  -3.743
   62       -0.020  -0.054  -3.670  -3.743
   63       -0.020  -0.054  -3.670  -3.743
   64       -0.020  -0.054  -3.670  -3.743
--------------------------------------------------
tot         -0.001   0.001  -0.001  -0.000
 
 BZINTS: Fermi energy:  4.940723;688.000000 electrons
         Band energy:***********;  BLOECHL correction:  0.000000

 total amount of memory used by VASP MPI-rank0   301249. kBytes
=======================================================================

   base      :      30000. kBytes
   nonl-proj :     175882. kBytes
   fftplans  :       4588. kBytes
   grid      :      69719. kBytes
   one-center:       1990. kBytes
   wavefun   :      19070. kBytes
 
  
  
 General timing and accounting informations for this job:
 ========================================================
  
                  Total CPU time used (sec):     1932.513
                            User time (sec):     1922.201
                          System time (sec):       10.313
                         Elapsed time (sec):     1947.397
  
                   Maximum memory used (kb):      660400.
                   Average memory used (kb):           0.
  
                          Minor page faults:       392414
                          Major page faults:         5791
                 Voluntary context switches:         7075
