       N       E                     dE             d eps       ncg     rms          rms(c)
DAV:   1     0.620386014520E+04    0.62039E+04   -0.50384E+05 12288   0.194E+03
DAV:   2    -0.881544925821E+02   -0.62920E+04   -0.61608E+04 13056   0.440E+02
DAV:   3    -0.372255620544E+03   -0.28410E+03   -0.28280E+03 17408   0.102E+02
DAV:   4    -0.376219275367E+03   -0.39637E+01   -0.39634E+01 13568   0.123E+01
DAV:   5    -0.376323699917E+03   -0.10442E+00   -0.10442E+00 16640   0.202E+00    0.750E+01
DAV:   6    -0.334788628249E+03    0.41535E+02   -0.59008E+02 12288   0.812E+01    0.100E+02
DAV:   7    -0.329734498776E+03    0.50541E+01   -0.11155E+02 12288   0.273E+01    0.437E+01
DAV:   8    -0.329688013478E+03    0.46485E-01   -0.35776E+01 16384   0.207E+01    0.322E+01
DAV:   9    -0.331541152347E+03   -0.18531E+01   -0.10028E+02 15616   0.241E+01    0.235E+01
DAV:  10    -0.327855733405E+03    0.36854E+01   -0.21547E+01 16896   0.157E+01    0.276E+00
DAV:  11    -0.327977045631E+03   -0.12131E+00   -0.12282E+00 15616   0.183E+00    0.354E+00
DAV:  12    -0.327965994524E+03    0.11051E-01   -0.49305E-01 17152   0.180E+00    0.133E+00
DAV:  13    -0.327970591389E+03   -0.45969E-02   -0.49524E-02 13824   0.404E-01    0.922E-01
DAV:  14    -0.327980087833E+03   -0.94964E-02   -0.49390E-02 16896   0.358E-01    0.393E-01
DAV:  15    -0.327979828414E+03    0.25942E-03   -0.49600E-03 12800   0.178E-01    0.165E-01
DAV:  16    -0.327979943107E+03   -0.11469E-03   -0.42311E-04 17920   0.295E-02    0.121E-01
DAV:  17    -0.327980362592E+03   -0.41949E-03   -0.16704E-03 13312   0.580E-02    0.911E-02
DAV:  18    -0.327980415640E+03   -0.53048E-04   -0.14844E-04 15872   0.217E-02    0.499E-02
DAV:  19    -0.327980419845E+03   -0.42048E-05   -0.38396E-05 15872   0.947E-03    0.290E-02
DAV:  20    -0.327980422110E+03   -0.22646E-05   -0.79835E-06 14848   0.311E-03    0.227E-02
DAV:  21    -0.327980421301E+03    0.80884E-06   -0.28120E-05 17152   0.892E-03    0.124E-02
DAV:  22    -0.327980421779E+03   -0.47742E-06   -0.31968E-06 14336   0.481E-03    0.108E-02
DAV:  23    -0.327980422056E+03   -0.27791E-06   -0.45227E-07 15872   0.121E-03    0.780E-03
DAV:  24    -0.327980421921E+03    0.13567E-06   -0.39466E-07 19712   0.129E-03    0.251E-03
DAV:  25    -0.327980421889E+03    0.32029E-07   -0.29351E-07 14336   0.995E-04    0.966E-04
DAV:  26    -0.327980421865E+03    0.23763E-07   -0.32187E-08 15104   0.324E-04    0.619E-04
DAV:  27    -0.327980421901E+03   -0.36205E-07   -0.39761E-09 10752   0.970E-05    0.357E-04
DAV:  28    -0.327980421935E+03   -0.33659E-07   -0.10660E-08 12032   0.128E-04    0.443E-04
DAV:  29    -0.327980421927E+03    0.75524E-08    0.27301E-10  8960   0.650E-05
   1 F= -.32798042E+03 E0= -.32798042E+03  d E =0.000000E+00  mag=     0.0000
