 vasp.5.4.4.18Apr17-6-g9f103f2a35 (build Oct 30 2023 17:30:16) complex          
  
 executed on             LinuxIFC date 2024.06.29  00:51:34
 running on  256 total cores
 distrk:  each k-point on  256 cores,    1 groups
 distr:  one band on NCORES_PER_BAND=   1 cores,  256 groups


--------------------------------------------------------------------------------------------------------


 INCAR:
 POTCAR:    PAW_PBE S 06Sep2000                   
 POTCAR:     PAW_PBE Cu_pv 06Sep2000              
 POTCAR:     PAW_PBE Fe_pv 02Aug2007              

 ----------------------------------------------------------------------------- 
|                                                                             |
|           W    W    AA    RRRRR   N    N  II  N    N   GGGG   !!!           |
|           W    W   A  A   R    R  NN   N  II  NN   N  G    G  !!!           |
|           W    W  A    A  R    R  N N  N  II  N N  N  G       !!!           |
|           W WW W  AAAAAA  RRRRR   N  N N  II  N  N N  G  GGG   !            |
|           WW  WW  A    A  R   R   N   NN  II  N   NN  G    G                |
|           W    W  A    A  R    R  N    N  II  N    N   GGGG   !!!           |
|                                                                             |
|      For optimal performance we recommend to set                            |
|        NCORE= 4 - approx SQRT( number of cores)                             |
|      NCORE specifies how many cores store one orbital (NPAR=cpu/NCORE).     |
|      This setting can  greatly improve the performance of VASP for DFT.     |
|      The default,   NCORE=1            might be grossly inefficient         |
|      on modern multi-core architectures or massively parallel machines.     |
|      Do your own testing !!!!                                               |
|      Unfortunately you need to use the default for GW and RPA calculations. |
|      (for HF NCORE is supported but not extensively tested yet)             |
|                                                                             |
 ----------------------------------------------------------------------------- 

 POTCAR:    PAW_PBE S 06Sep2000                   
   SHA256 =  0fc7481fb0695f01bdc6462160264c5c84044ae9ec85a907d398b887a2bc3132 S/
   COPYR  = (c) Copyright 06Sep2000 Georg Kresse                                
   COPYR  = This file is part of the software VASP. Any use, copying, and all ot
   COPYR  = If you do not have a valid VASP license, you may not use, copy or di
   VRHFIN =S : s2p4                                                             
   LEXCH  = PE                                                                  
   EATOM  =   276.8230 eV,   20.3459 Ry                                         
                                                                                
   TITEL  = PAW_PBE S 06Sep2000                                                 
   LULTRA =        F    use ultrasoft PP ?                                      
   IUNSCR =        1    unscreen: 0-lin 1-nonlin 2-no                           
   RPACOR =    1.500    partial core radius                                     
   POMASS =   32.066; ZVAL   =    6.000    mass and valenz                      
   RCORE  =    1.900    outmost cutoff radius                                   
   RWIGS  =    2.200; RWIGS  =    1.164    wigner-seitz radius (au A)           
   ENMAX  =  258.689; ENMIN  =  194.016 eV                                      
   ICORE  =        2    local potential                                         
   LCOR   =        T    correct aug charges                                     
   LPAW   =        T    paw PP                                                  
   EAUG   =  335.092                                                            
   DEXC   =    0.000                                                            
   RMAX   =    1.942    core radius for proj-oper                               
   RAUG   =    1.300    factor for augmentation sphere                          
   RDEP   =    1.954    radius for radial grids                                 
   RDEPT  =    1.744    core radius for aug-charge                              
                                                                                
   Atomic configuration                                                         
    6 entries                                                                   
     n  l   j            E        occ.                                          
     1  0  0.50     -2405.8406   2.0000                                         
     2  0  0.50      -211.7007   2.0000                                         
     2  1  1.50      -156.4958   6.0000                                         
     3  0  0.50       -17.2562   2.0000                                         
     3  1  0.50        -7.0085   4.0000                                         
     3  2  1.50        -6.8029   0.0000                                         
   Description                                                                  
     l       E           TYP  RCUT    TYP  RCUT                                 
     0    -17.2561641     23  1.900                                             
     0    -15.8743224     23  1.900                                             
     1     -7.0085400     23  1.900                                             
     1     -2.7779785     23  1.900                                             
     2     -6.8029130     23  1.900                                             
  local pseudopotential read in
  partial core-charges read in
  partial kinetic energy density read in
  atomic valenz-charges read in
  non local Contribution for L=           0  read in
    real space projection operators read in
  non local Contribution for L=           0  read in
    real space projection operators read in
  non local Contribution for L=           1  read in
    real space projection operators read in
  non local Contribution for L=           1  read in
    real space projection operators read in
    PAW grid and wavefunctions read in
 
   number of l-projection  operators is LMAX  =           4
   number of lm-projection operators is LMMAX =           8
 
 POTCAR:     PAW_PBE Cu_pv 06Sep2000              
   SHA256 =  cb7b504e2ea725fe1f25c85a9ac77d4012ce94cd394135b722c4e25ec297f1cb Cu
   COPYR  = (c) Copyright 06Sep2000 Georg Kresse                                
   COPYR  = This file is part of the software VASP. Any use, copying, and all ot
   COPYR  = If you do not have a valid VASP license, you may not use, copy or di
   VRHFIN =Cu: d10 p1                                                           
   LEXCH  = PE                                                                  
   EATOM  =  4120.1201 eV,  302.8203 Ry                                         
                                                                                
   TITEL  = PAW_PBE Cu_pv 06Sep2000                                             
   LULTRA =        F    use ultrasoft PP ?                                      
   IUNSCR =        1    unscreen: 0-lin 1-nonlin 2-no                           
   RPACOR =    1.500    partial core radius                                     
   POMASS =   63.546; ZVAL   =   17.000    mass and valenz                      
   RCORE  =    2.000    outmost cutoff radius                                   
   RWIGS  =    2.000; RWIGS  =    1.058    wigner-seitz radius (au A)           
   ENMAX  =  368.648; ENMIN  =  276.486 eV                                      
   RCLOC  =    1.304    cutoff for local pot                                    
   LCOR   =        T    correct aug charges                                     
   LPAW   =        T    paw PP                                                  
   EAUG   =  758.233                                                            
   DEXC   =    0.000                                                            
   RMAX   =    2.046    core radius for proj-oper                               
   RAUG   =    1.300    factor for augmentation sphere                          
   RDEP   =    2.025    radius for radial grids                                 
   RDEPT  =    1.558    core radius for aug-charge                              
                                                                                
   Atomic configuration                                                         
    8 entries                                                                   
     n  l   j            E        occ.                                          
     1  0  0.50     -8850.2467   2.0000                                         
     2  0  0.50     -1062.3498   2.0000                                         
     2  1  1.50      -916.8226   6.0000                                         
     3  0  0.50      -114.6929   2.0000                                         
     3  1  1.50       -72.1325   6.0000                                         
     3  2  2.50        -5.0394  10.0000                                         
     4  0  0.50        -4.6097   1.0000                                         
     4  3  2.50        -1.3606   0.0000                                         
   Description                                                                  
     l       E           TYP  RCUT    TYP  RCUT                                 
     1    -72.1324777     23  1.700                                             
     1     -1.3605826     23  1.700                                             
     2     -5.0393776     23  2.000                                             
     2     -6.3999602     23  2.000                                             
     0     -4.6097062     23  1.800                                             
     0     14.1620818     23  1.800                                             
  local pseudopotential read in
  partial core-charges read in
  partial kinetic energy density read in
  atomic valenz-charges read in
  non local Contribution for L=           1  read in
    real space projection operators read in
  non local Contribution for L=           1  read in
    real space projection operators read in
  non local Contribution for L=           2  read in
    real space projection operators read in
  non local Contribution for L=           2  read in
    real space projection operators read in
  non local Contribution for L=           0  read in
    real space projection operators read in
  non local Contribution for L=           0  read in
    real space projection operators read in
    PAW grid and wavefunctions read in
 
   number of l-projection  operators is LMAX  =           6
   number of lm-projection operators is LMMAX =          18
 
 POTCAR:     PAW_PBE Fe_pv 02Aug2007              
   SHA256 =  5d22e414b1f82158bf2c7ecb8b97b28fd0923e48cadc1c3bf74d524558f5dd32 Fe
   COPYR  = (c) Copyright 02Aug2007 Georg Kresse                                
   COPYR  = This file is part of the software VASP. Any use, copying, and all ot
   COPYR  = If you do not have a valid VASP license, you may not use, copy or di
   VRHFIN =Fe:  3pd7s1                                                          
   LEXCH  = PE                                                                  
   EATOM  =  2457.4239 eV,  180.6156 Ry                                         
                                                                                
   TITEL  = PAW_PBE Fe_pv 02Aug2007                                             
   LULTRA =        F    use ultrasoft PP ?                                      
   IUNSCR =        1    unscreen: 0-lin 1-nonlin 2-no                           
   RPACOR =    1.750    partial core radius                                     
   POMASS =   55.847; ZVAL   =   14.000    mass and valenz                      
   RCORE  =    2.200    outmost cutoff radius                                   
   RWIGS  =    2.200; RWIGS  =    1.164    wigner-seitz radius (au A)           
   ENMAX  =  293.238; ENMIN  =  219.928 eV                                      
   ICORE  =        3    local potential                                         
   LCOR   =        T    correct aug charges                                     
   LPAW   =        T    paw PP                                                  
   EAUG   =  578.342                                                            
   DEXC   =    0.000                                                            
   RMAX   =    2.249    core radius for proj-oper                               
   RAUG   =    1.300    factor for augmentation sphere                          
   RDEP   =    2.296    radius for radial grids                                 
   RDEPT  =    1.766    core radius for aug-charge                              
                                                                                
   Atomic configuration                                                         
    8 entries                                                                   
     n  l   j            E        occ.                                          
     1  0  0.50     -6993.8440   2.0000                                         
     2  0  0.50      -814.6047   2.0000                                         
     2  1  1.50      -693.3689   6.0000                                         
     3  0  0.50       -89.4732   2.0000                                         
     3  1  1.50       -55.6373   6.0000                                         
     3  2  2.50        -3.8151   7.0000                                         
     4  0  0.50        -4.2551   1.0000                                         
     4  3  2.50        -1.3606   0.0000                                         
   Description                                                                  
     l       E           TYP  RCUT    TYP  RCUT                                 
     1    -55.6372668     23  2.000                                             
     1     -5.4423304     23  2.000                                             
     2     -3.8151096     23  2.200                                             
     2     -5.1756922     23  2.200                                             
     0     -4.2550951     23  2.200                                             
     0     27.2116520     23  2.200                                             
     3     -1.3605826     23  2.200                                             
  local pseudopotential read in
  partial core-charges read in
  partial kinetic energy density read in
  atomic valenz-charges read in
  non local Contribution for L=           1  read in
    real space projection operators read in
  non local Contribution for L=           1  read in
    real space projection operators read in
  non local Contribution for L=           2  read in
    real space projection operators read in
  non local Contribution for L=           2  read in
    real space projection operators read in
  non local Contribution for L=           0  read in
    real space projection operators read in
  non local Contribution for L=           0  read in
    real space projection operators read in
    PAW grid and wavefunctions read in
 
   number of l-projection  operators is LMAX  =           6
   number of lm-projection operators is LMMAX =          18
 

 ----------------------------------------------------------------------------- 
|                                                                             |
|  ADVICE TO THIS USER RUNNING 'VASP/VAMP'   (HEAR YOUR MASTER'S VOICE ...):  |
|                                                                             |
|      You have a (more or less) 'large supercell' and for larger cells       |
|      it might be more efficient to use real space projection opertators     |
|      So try LREAL= Auto  in the INCAR   file.                               |
|      Mind:          For very  accurate calculation you might also keep the  |
|      reciprocal projection scheme          (i.e. LREAL=.FALSE.)             |
|                                                                             |
 ----------------------------------------------------------------------------- 


 ----------------------------------------------------------------------------- 
|                                                                             |
|  ADVICE TO THIS USER RUNNING 'VASP/VAMP'   (HEAR YOUR MASTER'S VOICE ...):  |
|                                                                             |
|      You enforced a specific xc-type in the INCAR file,                     |
|      a different type was found on the POTCAR file                          |
|          I HOPE YOU KNOW, WHAT YOU ARE  DOING                               |
|                                                                             |
 ----------------------------------------------------------------------------- 

  PAW_PBE S 06Sep2000                   :
 energy of atom  1       EATOM= -276.8230
 kinetic energy error for atom=    0.0007 (will be added to EATOM!!)
   PAW_PBE Cu_pv 06Sep2000              :
 energy of atom  2       EATOM=-4120.1201
 kinetic energy error for atom=    0.0094 (will be added to EATOM!!)
   PAW_PBE Fe_pv 02Aug2007              :
 energy of atom  3       EATOM=-2457.4239
 kinetic energy error for atom=    0.0025 (will be added to EATOM!!)
 
 
 POSCAR: Fe16 Cu16 S32                           
  positions in direct lattice
  No initial velocities read in
 exchange correlation table for  LEXCH =       14
   RHO(1)=    0.500       N(1)  =     2000
   RHO(2)=  100.500       N(2)  =     4000
 


--------------------------------------------------------------------------------------------------------


 ion  position               nearest neighbor table
   1  0.126  0.125  0.123-  37 2.26  41 2.27  61 2.27  49 2.28
   2  0.626  0.125  0.123-  38 2.26  42 2.27  62 2.27  50 2.28
   3  0.126  0.625  0.123-  39 2.26  43 2.27  63 2.27  51 2.28
   4  0.626  0.625  0.123-  40 2.26  44 2.27  64 2.27  52 2.28
   5  0.374  0.375  0.123-  39 2.26  41 2.27  62 2.27  52 2.28
   6  0.874  0.375  0.123-  40 2.26  42 2.27  61 2.27  51 2.28
   7  0.374  0.875  0.123-  37 2.26  43 2.27  64 2.27  50 2.28
   8  0.874  0.875  0.123-  38 2.26  44 2.27  63 2.27  49 2.28
   9  0.125  0.374  0.873-  41 2.26  45 2.27  51 2.27  55 2.28
  10  0.625  0.374  0.873-  42 2.26  46 2.27  52 2.27  56 2.28
  11  0.125  0.874  0.873-  43 2.26  47 2.27  49 2.27  53 2.28
  12  0.625  0.874  0.873-  44 2.26  48 2.27  50 2.27  54 2.28
  13  0.375  0.126  0.873-  41 2.26  46 2.27  50 2.27  53 2.28
  14  0.875  0.126  0.873-  42 2.26  45 2.27  49 2.27  54 2.28
  15  0.375  0.626  0.873-  43 2.26  48 2.27  52 2.27  55 2.28
  16  0.875  0.626  0.873-  44 2.26  47 2.27  51 2.27  56 2.28
  17  0.124  0.125  0.623-  45 2.26  33 2.27  53 2.27  57 2.28
  18  0.624  0.125  0.623-  46 2.26  34 2.27  54 2.27  58 2.28
  19  0.124  0.625  0.623-  47 2.26  35 2.27  55 2.27  59 2.28
  20  0.624  0.625  0.623-  48 2.26  36 2.27  56 2.27  60 2.28
  21  0.376  0.375  0.623-  46 2.26  36 2.27  55 2.27  57 2.28
  22  0.876  0.375  0.623-  45 2.26  35 2.27  56 2.27  58 2.28
  23  0.376  0.875  0.623-  48 2.26  34 2.27  53 2.27  59 2.28
  24  0.876  0.875  0.623-  47 2.26  33 2.27  54 2.27  60 2.28
  25  0.375  0.124  0.373-  34 2.26  37 2.27  57 2.27  62 2.28
  26  0.875  0.124  0.373-  33 2.26  38 2.27  58 2.27  61 2.28
  27  0.375  0.624  0.373-  36 2.26  39 2.27  59 2.27  64 2.28
  28  0.875  0.624  0.373-  35 2.26  40 2.27  60 2.27  63 2.28
  29  0.125  0.376  0.373-  35 2.26  39 2.27  57 2.27  61 2.28
  30  0.625  0.376  0.373-  36 2.26  40 2.27  58 2.27  62 2.28
  31  0.125  0.876  0.373-  33 2.26  37 2.27  59 2.27  63 2.28
  32  0.625  0.876  0.373-  34 2.26  38 2.27  60 2.27  64 2.28
  33  0.000  0.000  0.502-  26 2.26  31 2.26  17 2.27  24 2.27
  34  0.500  0.000  0.502-  25 2.26  32 2.26  18 2.27  23 2.27
  35  0.000  0.500  0.502-  28 2.26  29 2.26  19 2.27  22 2.27
  36  0.500  0.500  0.502-  27 2.26  30 2.26  20 2.27  21 2.27
  37  0.250  0.000  0.252-   1 2.26   7 2.26  25 2.27  31 2.27
  38  0.750  0.000  0.252-   2 2.26   8 2.26  26 2.27  32 2.27
  39  0.250  0.500  0.252-   3 2.26   5 2.26  27 2.27  29 2.27
  40  0.750  0.500  0.252-   4 2.26   6 2.26  28 2.27  30 2.27
  41  0.250  0.250  0.002-   9 2.26  13 2.26   1 2.27   5 2.27
  42  0.750  0.250  0.002-  10 2.26  14 2.26   2 2.27   6 2.27
  43  0.250  0.750  0.002-  11 2.26  15 2.26   3 2.27   7 2.27
  44  0.750  0.750  0.002-  12 2.26  16 2.26   4 2.27   8 2.27
  45  0.000  0.250  0.752-  17 2.26  22 2.26   9 2.27  14 2.27
  46  0.500  0.250  0.752-  18 2.26  21 2.26  10 2.27  13 2.27
  47  0.000  0.750  0.752-  19 2.26  24 2.26  11 2.27  16 2.27
  48  0.500  0.750  0.752-  20 2.26  23 2.26  12 2.27  15 2.27
  49  0.000  0.000  0.002-  11 2.27  14 2.27   1 2.28   8 2.28
  50  0.500  0.000  0.002-  12 2.27  13 2.27   2 2.28   7 2.28
  51  0.000  0.500  0.002-   9 2.27  16 2.27   3 2.28   6 2.28
  52  0.500  0.500  0.002-  10 2.27  15 2.27   4 2.28   5 2.28
  53  0.250  0.000  0.752-  17 2.27  23 2.27  11 2.28  13 2.28
  54  0.750  0.000  0.752-  18 2.27  24 2.27  12 2.28  14 2.28
  55  0.250  0.500  0.752-  19 2.27  21 2.27   9 2.28  15 2.28
  56  0.750  0.500  0.752-  20 2.27  22 2.27  10 2.28  16 2.28
  57  0.250  0.250  0.502-  25 2.27  29 2.27  17 2.28  21 2.28
  58  0.750  0.250  0.502-  26 2.27  30 2.27  18 2.28  22 2.28
  59  0.250  0.750  0.502-  27 2.27  31 2.27  19 2.28  23 2.28
  60  0.750  0.750  0.502-  28 2.27  32 2.27  20 2.28  24 2.28
  61  0.000  0.250  0.252-   1 2.27   6 2.27  26 2.28  29 2.28
  62  0.500  0.250  0.252-   2 2.27   5 2.27  25 2.28  30 2.28
  63  0.000  0.750  0.252-   3 2.27   8 2.27  28 2.28  31 2.28
  64  0.500  0.750  0.252-   4 2.27   7 2.27  27 2.28  32 2.28
 
  LATTYP: Found a base centered orthorhombic cell.
 ALAT       =    14.5877005771
 B/A-ratio  =     1.0373182439
 C/A-ratio  =     0.7143026377
  
  Lattice vectors:
  
 A1 = (  10.5075320000,   0.1924700000,   0.0000000000)
 A2 = (  -0.1924700000, -10.5075320000,   0.0000000000)
 A3 = (   0.0000000000,   0.0000000000, -10.4200330000)


Analysis of symmetry for initial positions (statically):
=====================================================================
 Subroutine PRICEL returns following result:
 
  LATTYP: Found a face centered orthorhombic cell.
 ALAT       =     7.2938502886
 B/A-ratio  =     1.0373182439
 C/A-ratio  =     1.4286052754
  
  Lattice vectors:
  
 A1 = (  -2.6750005000,  -2.6750005000,   5.2100165000)
 A2 = (  -2.5787655000,   2.5787655000,   5.2100165000)
 A3 = (  -5.2537660000,  -0.0962350000,   0.0000000000)
 
   8 primitive cells build up your supercell.
 

 Routine SETGRP: Setting up the symmetry group for a 
 base centered orthorhombic supercell.


 Subroutine GETGRP returns: Found  4 space group operations
 (whereof  2 operations were pure point group operations)
 out of a pool of  8 trial point group operations.


The static configuration has the point symmetry C_2 .
 The point group associated with its full space group is C_2v.


Analysis of symmetry for dynamics (positions and initial velocities):
=====================================================================
 Subroutine PRICEL returns following result:
 
  LATTYP: Found a face centered orthorhombic cell.
 ALAT       =     7.2938502886
 B/A-ratio  =     1.0373182439
 C/A-ratio  =     1.4286052754
  
  Lattice vectors:
  
 A1 = (  -2.6750005000,  -2.6750005000,   5.2100165000)
 A2 = (  -2.5787655000,   2.5787655000,   5.2100165000)
 A3 = (  -5.2537660000,  -0.0962350000,   0.0000000000)
 
   8 primitive cells build up your supercell.
 

 Routine SETGRP: Setting up the symmetry group for a 
 base centered orthorhombic supercell.


 Subroutine GETGRP returns: Found  4 space group operations
 (whereof  2 operations were pure point group operations)
 out of a pool of  8 trial point group operations.


The dynamic configuration has the point symmetry C_2 .
 The point group associated with its full space group is C_2v.


Analysis of structural, dynamic, and magnetic symmetry:
=====================================================================
 Subroutine PRICEL returns following result:
 
  LATTYP: Found a face centered orthorhombic cell.
 ALAT       =     7.2938502886
 B/A-ratio  =     1.0373182439
 C/A-ratio  =     1.4286052754
  
  Lattice vectors:
  
 A1 = (  -2.6750005000,  -2.6750005000,   5.2100165000)
 A2 = (  -2.5787655000,   2.5787655000,   5.2100165000)
 A3 = (  -5.2537660000,  -0.0962350000,   0.0000000000)
 
   8 primitive cells build up your supercell.
 

 Routine SETGRP: Setting up the symmetry group for a 
 base centered orthorhombic supercell.


 Subroutine GETGRP returns: Found  4 space group operations
 (whereof  2 operations were pure point group operations)
 out of a pool of  8 trial point group operations.


The magnetic configuration has the point symmetry C_2 .
 The point group associated with its full space group is C_2v.


 Subroutine INISYM returns: Found  4 space group operations
 (whereof  2 operations are pure point group operations),
 and found     8 'primitive' translations

 
 
 KPOINTS: Automatic mesh                          

Automatic generation of k-mesh.
Space group operators:
 irot       det(A)        alpha          n_x          n_y          n_z        tau_x        tau_y        tau_z
    1     1.000000     0.000000     1.000000     0.000000     0.000000     0.000000     0.000000     0.000000
    2     1.000000   180.000000     0.000000     0.000000     1.000000     0.000000     0.000000     0.000000
    3    -1.000000   180.000000     0.707107     0.707107     0.000000    -0.750000     0.000000     0.750000
    4    -1.000000   180.000000     0.707107    -0.707107     0.000000    -0.750000     0.000000     0.750000
 
 Subroutine IBZKPT returns following result:
 ===========================================
 
 Found      6 irreducible k-points:
 
 Following reciprocal coordinates:
            Coordinates               Weight
  0.000000  0.000000  0.000000      1.000000
  0.500000  0.000000  0.000000      2.000000
  0.500000  0.500000  0.000000      1.000000
  0.000000  0.000000  0.500000      1.000000
  0.500000  0.000000  0.500000      2.000000
  0.500000  0.500000  0.500000      1.000000
 
 Following cartesian coordinates:
            Coordinates               Weight
  0.000000  0.000000  0.000000      1.000000
  0.047601 -0.000872  0.000000      2.000000
  0.046729  0.046729  0.000000      1.000000
  0.000000  0.000000  0.047984      1.000000
  0.047601 -0.000872  0.047984      2.000000
  0.046729  0.046729  0.047984      1.000000
 
 TETIRR: Found     12 inequivalent tetrahedra from       48
 
 Subroutine IBZKPT_HF returns following result:
 ==============================================
 
 Found      8 k-points in 1st BZ
 the following      8 k-points will be used (e.g. in the exchange kernel)
 Following reciprocal coordinates:   # in IRBZ
  0.000000  0.000000  0.000000    0.12500000   1 t-inv F
  0.500000  0.000000  0.000000    0.12500000   2 t-inv F
  0.500000  0.500000  0.000000    0.12500000   3 t-inv F
  0.000000  0.000000  0.500000    0.12500000   4 t-inv F
  0.500000  0.000000  0.500000    0.12500000   5 t-inv F
  0.500000  0.500000  0.500000    0.12500000   6 t-inv F
  0.000000 -0.500000  0.000000    0.12500000   2 t-inv F spinflp
  0.000000 -0.500000  0.500000    0.12500000   5 t-inv F spinflp


--------------------------------------------------------------------------------------------------------




 Dimension of arrays:
   k-points           NKPTS =      6   k-points in BZ     NKDIM =      6   number of bands    NBANDS=    512
   number of dos      NEDOS =    301   number of ions     NIONS =     64
   non local maximal  LDIM  =      6   non local SUM 2l+1 LMDIM =     18
   total plane-waves  NPLWV = 829440
   max r-space proj   IRMAX =      1   max aug-charges    IRDMAX=  22918
   dimension x,y,z NGX =    96 NGY =   96 NGZ =   90
   dimension x,y,z NGXF=   192 NGYF=  192 NGZF=  180
   support grid    NGXF=   192 NGYF=  192 NGZF=  180
   ions per type =              32  16  16
   NGX,Y,Z   is equivalent  to a cutoff of  15.19, 15.19, 14.36 a.u.
   NGXF,Y,Z  is equivalent  to a cutoff of  30.37, 30.37, 28.72 a.u.

 SYSTEM =  CuFeS2                                  
 POSCAR =  Fe16 Cu16 S32                           

 Startparameter for this run:
   NWRITE =      2    write-flag & timer
   PREC   = accura    normal or accurate (medium, high low for compatibility)
   ISTART =      0    job   : 0-new  1-cont  2-samecut
   ICHARG =      1    charge: 1-file 2-atom 10-const
   ISPIN  =      2    spin polarized calculation?
   LNONCOLLINEAR =      F non collinear calculations
   LSORBIT =      F    spin-orbit coupling
   INIWAV =      1    electr: 0-lowe 1-rand  2-diag
   LASPH  =      F    aspherical Exc in radial PAW
   METAGGA=      F    non-selfconsistent MetaGGA calc.

 Electronic Relaxation 1
   ENCUT  =  700.0 eV  51.45 Ry    7.17 a.u.  22.67 22.67 22.48*2*pi/ulx,y,z
   ENINI  =  700.0     initial cutoff
   ENAUG  =  758.2 eV  augmentation charge cutoff
   NELM   =    500;   NELMIN=  2; NELMDL=  0     # of ELM steps 
   EDIFF  = 0.1E-07   stopping-criterion for ELM
   LREAL  =      F    real-space projection
   NLSPLINE    = F    spline interpolate recip. space projectors
   LCOMPAT=      F    compatible to vasp.4.4
   GGA_COMPAT  = T    GGA compatible to vasp.4.4-vasp.4.6
   LMAXPAW     = -100 max onsite density
   LMAXMIX     =    4 max onsite mixed and CHGCAR
   VOSKOWN=      0    Vosko Wilk Nusair interpolation
   ROPT   =    0.00000   0.00000   0.00000
 Ionic relaxation
   EDIFFG = -.1E-04   stopping-criterion for IOM
   NSW    =      0    number of steps for IOM
   NBLOCK =      1;   KBLOCK =      1    inner block; outer block 
   IBRION =     -1    ionic relax: 0-MD 1-quasi-New 2-CG
   NFREE  =      0    steps in history (QN), initial steepest desc. (CG)
   ISIF   =      2    stress and relaxation
   IWAVPR =     10    prediction:  0-non 1-charg 2-wave 3-comb
   ISYM   =      2    0-nonsym 1-usesym 2-fastsym
   LCORR  =      T    Harris-Foulkes like correction to forces

   POTIM  = 0.5000    time-step for ionic-motion
   TEIN   =    0.0    initial temperature
   TEBEG  =    0.0;   TEEND  =   0.0 temperature during run
   SMASS  =  -3.00    Nose mass-parameter (am)
   estimated Nose-frequenzy (Omega)   =  0.10E-29 period in steps =****** mass=  -0.252E-26a.u.
   SCALEE = 1.0000    scale energy and forces
   NPACO  =    256;   APACO  = 16.0  distance and # of slots for P.C.
   PSTRESS=    0.0 pullay stress

  Mass of Ions in am
   POMASS =  32.07 63.55 55.85
  Ionic Valenz
   ZVAL   =   6.00 17.00 14.00
  Atomic Wigner-Seitz radii
   RWIGS  =  -1.00 -1.00 -1.00
  virtual crystal weights 
   VCA    =   1.00  1.00  1.00
   NELECT =     688.0000    total number of electrons
   NUPDOWN=      -1.0000    fix difference up-down

 DOS related values:
   EMIN   =  10.00;   EMAX   =-10.00  energy-range for DOS
   EFERMI =   0.00
   ISMEAR =    -5;   SIGMA  =   0.03  broadening in eV -4-tet -1-fermi 0-gaus

 Electronic relaxation 2 (details)
   IALGO  =     38    algorithm
   LDIAG  =      T    sub-space diagonalisation (order eigenvalues)
   LSUBROT=      F    optimize rotation matrix (better conditioning)
   TURBO    =      0    0=normal 1=particle mesh
   IRESTART =      0    0=no restart 2=restart with 2 vectors
   NREBOOT  =      0    no. of reboots
   NMIN     =      0    reboot dimension
   EREF     =   0.00    reference energy to select bands
   IMIX   =      4    mixing-type and parameters
     AMIX     =   0.40;   BMIX     =  1.00
     AMIX_MAG =   1.60;   BMIX_MAG =  1.00
     AMIN     =   0.10
     WC   =   100.;   INIMIX=   1;  MIXPRE=   1;  MAXMIX= -45

 Intra band minimization:
   WEIMIN = 0.0000     energy-eigenvalue tresh-hold
   EBREAK =  0.49E-11  absolut break condition
   DEPER  =   0.30     relativ break condition  

   TIME   =   0.40     timestep for ELM

  volume/ion in A,a.u.               =      17.97       121.27
  Fermi-wavevector in a.u.,A,eV,Ry     =   1.379418  2.606723 25.889103  1.902795
  Thomas-Fermi vector in A             =   2.504390
 
 Write flags
   LWAVE        =      T    write WAVECAR
   LDOWNSAMPLE  =      F    k-point downsampling of WAVECAR
   LCHARG       =      T    write CHGCAR
   LVTOT        =      F    write LOCPOT, total local potential
   LVHAR        =      F    write LOCPOT, Hartree potential only
   LELF         =      F    write electronic localiz. function (ELF)
   LORBIT       =     11    0 simple, 1 ext, 2 COOP (PROOUT), +10 PAW based schemes


 Dipole corrections
   LMONO  =      F    monopole corrections only (constant potential shift)
   LDIPOL =      F    correct potential (dipole corrections)
   IDIPOL =      0    1-x, 2-y, 3-z, 4-all directions 
   EPSILON=  1.0000000 bulk dielectric constant

 LDA+U is selected, type is set to LDAUTYPE =  2
   angular momentum for each species LDAUL =     2    2    2
   U (eV)           for each species LDAUU =   0.0  0.1  4.7
   J (eV)           for each species LDAUJ =   0.0  0.0  0.0
 Exchange correlation treatment:
   GGA     =    PS    GGA type
   LEXCH   =    14    internal setting for exchange type
   VOSKOWN=      0    Vosko Wilk Nusair interpolation
   LHFCALC =     F    Hartree Fock is set to
   LHFONE  =     F    Hartree Fock one center treatment
   AEXX    =    0.0000 exact exchange contribution

 Linear response parameters
   LEPSILON=     F    determine dielectric tensor
   LRPA    =     F    only Hartree local field effects (RPA)
   LNABLA  =     F    use nabla operator in PAW spheres
   LVEL    =     F    velocity operator in full k-point grid
   LINTERFAST=   F  fast interpolation
   KINTER  =     0    interpolate to denser k-point grid
   CSHIFT  =0.1000    complex shift for real part using Kramers Kronig
   OMEGAMAX=  -1.0    maximum frequency
   DEG_THRESHOLD= 0.2000000E-02 threshold for treating states as degnerate
   RTIME   =   -0.100 relaxation time in fs
  (WPLASMAI=    0.000 imaginary part of plasma frequency in eV, 0.658/RTIME)
   DFIELD  = 0.0000000 0.0000000 0.0000000 field for delta impulse in time
 
 Orbital magnetization related:
   ORBITALMAG=     F  switch on orbital magnetization
   LCHIMAG   =     F  perturbation theory with respect to B field
   DQ        =  0.001000  dq finite difference perturbation B field
   LLRAUG    =     F  two centre corrections for induced B field

 PEAD related settings:
   LPEAD      =     T    switch on PEAD
   IPEAD      =     4    finite difference order for dpsi/dk
   LCALCPOL   =     T    calculate macroscopic polarization
   LCALCEPS   =     F    calculate dielectric tensor
   EFIELD_PEAD=    0.0000    0.0000    0.0000
   SKIP_EDOTP =     F
   LRPA       =     F
   SKIP_SCF   =     F


--------------------------------------------------------------------------------------------------------


 Static calculation
 charge density and potential will be updated during run
 spin polarized calculation
 Variant of blocked Davidson
 Davidson routine will perform the subspace rotation
 perform sub-space diagonalisation
    after iterative eigenvector-optimisation
 modified Broyden-mixing scheme, WC =      100.0
 initial mixing is a Kerker type mixing with AMIX =  0.4000 and BMIX =      1.0000
 Hartree-type preconditioning will be used
 using additional bands          168
 reciprocal scheme for non local part
 use partial core corrections
 calculate Harris-corrections to forces 
   (improved forces if not selfconsistent)
 use gradient corrections 
 use of overlap-Matrix (Vanderbilt PP)
 Fermi weights with tetrahedron method with Bloechl corrections


--------------------------------------------------------------------------------------------------------


  energy-cutoff  :      700.00
  volume of cell :     1150.07
      direct lattice vectors                 reciprocal lattice vectors
    10.507532000  0.192470000  0.000000000     0.095201769 -0.001743843  0.000000000
     0.192470000 10.507532000  0.000000000    -0.001743843  0.095201769  0.000000000
     0.000000000  0.000000000 10.420033000     0.000000000  0.000000000  0.095968986

  length of vectors
    10.509294621 10.509294621 10.420033000     0.095217739  0.095217739  0.095968986


 
 k-points in units of 2pi/SCALE and weight: Automatic mesh                          
   0.00000000  0.00000000  0.00000000       0.125
   0.04760088 -0.00087192  0.00000000       0.250
   0.04672896  0.04672896  0.00000000       0.125
   0.00000000  0.00000000  0.04798449       0.125
   0.04760088 -0.00087192  0.04798449       0.250
   0.04672896  0.04672896  0.04798449       0.125
 
 k-points in reciprocal lattice and weights: Automatic mesh                          
   0.00000000  0.00000000  0.00000000       0.125
   0.50000000  0.00000000  0.00000000       0.250
   0.50000000  0.50000000  0.00000000       0.125
   0.00000000  0.00000000  0.50000000       0.125
   0.50000000  0.00000000  0.50000000       0.250
   0.50000000  0.50000000  0.50000000       0.125
 
 position of ions in fractional coordinates (direct lattice) 
   0.12612500  0.12520800  0.12299300
   0.62612500  0.12520800  0.12299300
   0.12612500  0.62520800  0.12299300
   0.62612500  0.62520800  0.12299300
   0.37387500  0.37479200  0.12299300
   0.87387500  0.37479200  0.12299300
   0.37387500  0.87479200  0.12299300
   0.87387500  0.87479200  0.12299300
   0.12479200  0.37387500  0.87299300
   0.62479200  0.37387500  0.87299300
   0.12479200  0.87387500  0.87299300
   0.62479200  0.87387500  0.87299300
   0.37520800  0.12612500  0.87299300
   0.87520800  0.12612500  0.87299300
   0.37520800  0.62612500  0.87299300
   0.87520800  0.62612500  0.87299300
   0.12387500  0.12479200  0.62299300
   0.62387500  0.12479200  0.62299300
   0.12387500  0.62479200  0.62299300
   0.62387500  0.62479200  0.62299300
   0.37612500  0.37520800  0.62299300
   0.87612500  0.37520800  0.62299300
   0.37612500  0.87520800  0.62299300
   0.87612500  0.87520800  0.62299300
   0.37479200  0.12387500  0.37299300
   0.87479200  0.12387500  0.37299300
   0.37479200  0.62387500  0.37299300
   0.87479200  0.62387500  0.37299300
   0.12520800  0.37612500  0.37299300
   0.62520800  0.37612500  0.37299300
   0.12520800  0.87612500  0.37299300
   0.62520800  0.87612500  0.37299300
   0.00000000  0.00000000  0.50174100
   0.50000000  0.00000000  0.50174100
   0.00000000  0.50000000  0.50174100
   0.50000000  0.50000000  0.50174100
   0.25000000  0.00000000  0.25174100
   0.75000000  0.00000000  0.25174100
   0.25000000  0.50000000  0.25174100
   0.75000000  0.50000000  0.25174100
   0.25000000  0.25000000  0.00174100
   0.75000000  0.25000000  0.00174100
   0.25000000  0.75000000  0.00174100
   0.75000000  0.75000000  0.00174100
   0.00000000  0.25000000  0.75174100
   0.50000000  0.25000000  0.75174100
   0.00000000  0.75000000  0.75174100
   0.50000000  0.75000000  0.75174100
   0.00000000  0.00000000  0.00227300
   0.50000000  0.00000000  0.00227300
   0.00000000  0.50000000  0.00227300
   0.50000000  0.50000000  0.00227300
   0.25000000  0.00000000  0.75227300
   0.75000000  0.00000000  0.75227300
   0.25000000  0.50000000  0.75227300
   0.75000000  0.50000000  0.75227300
   0.25000000  0.25000000  0.50227300
   0.75000000  0.25000000  0.50227300
   0.25000000  0.75000000  0.50227300
   0.75000000  0.75000000  0.50227300
   0.00000000  0.25000000  0.25227300
   0.50000000  0.25000000  0.25227300
   0.00000000  0.75000000  0.25227300
   0.50000000  0.75000000  0.25227300
 
 position of ions in cartesian coordinates  (Angst):
   1.34936126  1.33990235  1.28159112
   6.60312726  1.43613735  1.28159112
   1.44559626  6.59366835  1.28159112
   6.69936226  6.68990335  1.28159112
   4.00063974  4.01009865  1.28159112
   9.25440574  4.10633365  1.28159112
   4.09687474  9.26386465  1.28159112
   9.35064074  9.36009965  1.28159112
   1.38321565  3.95252224  9.09661587
   6.63698165  4.04875724  9.09661587
   1.47945065  9.20628824  9.09661587
   6.73321665  9.30252324  9.09661587
   3.96678535  1.39747876  9.09661587
   9.22055135  1.49371376  9.09661587
   4.06302035  6.65124476  9.09661587
   9.31678635  6.74747976  9.09661587
   1.32563924  1.33509815  6.49160762
   6.57940524  1.43133315  6.49160762
   1.42187424  6.58886415  6.49160762
   6.67564024  6.68509915  6.49160762
   4.02436176  4.01490285  6.49160762
   9.27812776  4.11113785  6.49160762
   4.12059676  9.26866885  6.49160762
   9.37436276  9.36490385  6.49160762
   3.96198115  1.37375674  3.88659937
   9.21574715  1.46999174  3.88659937
   4.05821615  6.62752274  3.88659937
   9.31198215  6.72375774  3.88659937
   1.38801985  3.97624426  3.88659937
   6.64178585  4.07247926  3.88659937
   1.48425485  9.23001026  3.88659937
   6.73802085  9.32624526  3.88659937
   0.00000000  0.00000000  5.22815778
   5.25376600  0.09623500  5.22815778
   0.09623500  5.25376600  5.22815778
   5.35000100  5.35000100  5.22815778
   2.62688300  0.04811750  2.62314953
   7.88064900  0.14435250  2.62314953
   2.72311800  5.30188350  2.62314953
   7.97688400  5.39811850  2.62314953
   2.67500050  2.67500050  0.01814128
   7.92876650  2.77123550  0.01814128
   2.77123550  7.92876650  0.01814128
   8.02500150  8.02500150  0.01814128
   0.04811750  2.62688300  7.83316603
   5.30188350  2.72311800  7.83316603
   0.14435250  7.88064900  7.83316603
   5.39811850  7.97688400  7.83316603
   0.00000000  0.00000000  0.02368474
   5.25376600  0.09623500  0.02368474
   0.09623500  5.25376600  0.02368474
   5.35000100  5.35000100  0.02368474
   2.62688300  0.04811750  7.83870949
   7.88064900  0.14435250  7.83870949
   2.72311800  5.30188350  7.83870949
   7.97688400  5.39811850  7.83870949
   2.67500050  2.67500050  5.23370124
   7.92876650  2.77123550  5.23370124
   2.77123550  7.92876650  5.23370124
   8.02500150  8.02500150  5.23370124
   0.04811750  2.62688300  2.62869299
   5.30188350  2.72311800  2.62869299
   0.14435250  7.88064900  2.62869299
   5.39811850  7.97688400  2.62869299
 


--------------------------------------------------------------------------------------------------------


 k-point  1 :   0.0000 0.0000 0.0000  plane waves:   48415
 k-point  2 :   0.5000 0.0000 0.0000  plane waves:   48354
 k-point  3 :   0.5000 0.5000 0.0000  plane waves:   48420
 k-point  4 :   0.0000 0.0000 0.5000  plane waves:   48416
 k-point  5 :   0.5000 0.0000 0.5000  plane waves:   48316
 k-point  6 :   0.5000 0.5000 0.5000  plane waves:   48276

 maximum and minimum number of plane-waves per node :     48420    48276

 maximum number of plane-waves:     48420
 maximum index in each direction: 
   IXMAX=   22   IYMAX=   22   IZMAX=   22
   IXMIN=  -23   IYMIN=  -23   IZMIN=  -22


 serial   3D FFT for wavefunctions
 parallel 3D FFT for charge:
    minimum data exchange during FFTs selected (reduces bandwidth)


 total amount of memory used by VASP MPI-rank0   301249. kBytes
=======================================================================

   base      :      30000. kBytes
   nonl-proj :     175882. kBytes
   fftplans  :       4588. kBytes
   grid      :      69719. kBytes
   one-center:       1990. kBytes
   wavefun   :      19070. kBytes
 
     INWAV:  cpu time    0.0000: real time    0.0000
 Broyden mixing: mesh for mixing (old mesh)
   NGX = 45   NGY = 45   NGZ = 45
  (NGX  =192   NGY  =192   NGZ  =180)
  gives a total of  91125 points

 initial charge density was supplied:
 charge density of overlapping atoms calculated
 number of electron     688.0000000 magnetization       0.0000000
 keeping initial charge density in first step


--------------------------------------------------------------------------------------------------------


 Maximum index for augmentation-charges          893 (set IRDMAX)


--------------------------------------------------------------------------------------------------------


 First call to EWALD:  gamma=   0.169
 Maximum number of real-space cells 3x 3x 3
 Maximum number of reciprocal cells 3x 3x 3

    FEWALD:  cpu time    0.0022: real time    0.0026


--------------------------------------- Iteration      1(   1)  ---------------------------------------


    POTLOK:  cpu time    0.3340: real time    0.3799
    SETDIJ:  cpu time    0.0142: real time    0.0143
     EDDAV:  cpu time   62.9788: real time   63.5160
 BZINTS: Fermi energy: 16.831134;688.000000 electrons
         Band energy:***********;  BLOECHL correction: -0.016137
       DOS:  cpu time    0.0193: real time    0.0194
    --------------------------------------------
      LOOP:  cpu time   63.3462: real time   63.9295

 eigenvalue-minimisations  : 12288
 total energy-change (2. order) : 0.6203860E+04  (-0.5038433E+05)
 number of electron     688.0000000 magnetization       0.0000000
 augmentation part      688.0000000 magnetization       0.0000000

 Free energy of the ion-electron system (eV)
  ---------------------------------------------------
  alpha Z        PSCENC =      2357.37589198
  Ewald energy   TEWEN  =    -62484.57460968
  -Hartree energ DENC   =    -44310.33584789
  -exchange      EXHF   =         0.00000000
  -V(xc)+E(xc)   XCENC  =      3320.18929736
  PAW double counting   =     94592.23312189   -98164.79192727
  entropy T*S    EENTRO =         0.00000000
  eigenvalues    EBANDS =     -3126.30088880
  atomic energy  EATOM  =    114020.06510763
  Solvation  Ediel_sol  =         0.00000000
  ---------------------------------------------------
  free energy    TOTEN  =      6203.86014520 eV

  energy without entropy =     6203.86014520  energy(sigma->0) =     6203.86014520


--------------------------------------------------------------------------------------------------------




--------------------------------------- Iteration      1(   2)  ---------------------------------------


     EDDAV:  cpu time   70.5200: real time   71.0601
 BZINTS: Fermi energy:  6.575986;688.000000 electrons
         Band energy:***********;  BLOECHL correction:  0.000000
       DOS:  cpu time    0.0034: real time    0.0035
    --------------------------------------------
      LOOP:  cpu time   70.5234: real time   71.0635

 eigenvalue-minimisations  : 13056
 total energy-change (2. order) :-0.6292015E+04  (-0.6160797E+04)
 number of electron     688.0000000 magnetization       0.0000000
 augmentation part      688.0000000 magnetization       0.0000000

 Free energy of the ion-electron system (eV)
  ---------------------------------------------------
  alpha Z        PSCENC =      2357.37589198
  Ewald energy   TEWEN  =    -62484.57460968
  -Hartree energ DENC   =    -44310.33584789
  -exchange      EXHF   =         0.00000000
  -V(xc)+E(xc)   XCENC  =      3320.18929736
  PAW double counting   =     94592.23312189   -98164.79192727
  entropy T*S    EENTRO =         0.00000000
  eigenvalues    EBANDS =     -9418.31552659
  atomic energy  EATOM  =    114020.06510763
  Solvation  Ediel_sol  =         0.00000000
  ---------------------------------------------------
  free energy    TOTEN  =       -88.15449258 eV

  energy without entropy =      -88.15449258  energy(sigma->0) =      -88.15449258


--------------------------------------------------------------------------------------------------------




--------------------------------------- Iteration      1(   3)  ---------------------------------------


     EDDAV:  cpu time  121.9362: real time  122.7785
 BZINTS: Fermi energy:  6.003008;688.000000 electrons
         Band energy:***********;  BLOECHL correction:  0.000000
       DOS:  cpu time    0.0033: real time    0.0033
    --------------------------------------------
      LOOP:  cpu time  121.9395: real time  122.7817

 eigenvalue-minimisations  : 17408
 total energy-change (2. order) :-0.2841011E+03  (-0.2827976E+03)
 number of electron     688.0000000 magnetization       0.0000000
 augmentation part      688.0000000 magnetization       0.0000000

 Free energy of the ion-electron system (eV)
  ---------------------------------------------------
  alpha Z        PSCENC =      2357.37589198
  Ewald energy   TEWEN  =    -62484.57460968
  -Hartree energ DENC   =    -44310.33584789
  -exchange      EXHF   =         0.00000000
  -V(xc)+E(xc)   XCENC  =      3320.18929736
  PAW double counting   =     94592.23312189   -98164.79192727
  entropy T*S    EENTRO =         0.00000000
  eigenvalues    EBANDS =     -9702.41665455
  atomic energy  EATOM  =    114020.06510763
  Solvation  Ediel_sol  =         0.00000000
  ---------------------------------------------------
  free energy    TOTEN  =      -372.25562054 eV

  energy without entropy =     -372.25562054  energy(sigma->0) =     -372.25562054


--------------------------------------------------------------------------------------------------------




--------------------------------------- Iteration      1(   4)  ---------------------------------------


     EDDAV:  cpu time   79.2677: real time   79.8565
 BZINTS: Fermi energy:  6.124128;688.000000 electrons
         Band energy:***********;  BLOECHL correction:  0.000000
       DOS:  cpu time    0.0042: real time    0.0042
    --------------------------------------------
      LOOP:  cpu time   79.2719: real time   79.8607

 eigenvalue-minimisations  : 13568
 total energy-change (2. order) :-0.3963655E+01  (-0.3963417E+01)
 number of electron     688.0000000 magnetization       0.0000000
 augmentation part      688.0000000 magnetization       0.0000000

 Free energy of the ion-electron system (eV)
  ---------------------------------------------------
  alpha Z        PSCENC =      2357.37589198
  Ewald energy   TEWEN  =    -62484.57460968
  -Hartree energ DENC   =    -44310.33584789
  -exchange      EXHF   =         0.00000000
  -V(xc)+E(xc)   XCENC  =      3320.18929736
  PAW double counting   =     94592.23312189   -98164.79192727
  entropy T*S    EENTRO =         0.00000000
  eigenvalues    EBANDS =     -9706.38030937
  atomic energy  EATOM  =    114020.06510763
  Solvation  Ediel_sol  =         0.00000000
  ---------------------------------------------------
  free energy    TOTEN  =      -376.21927537 eV

  energy without entropy =     -376.21927537  energy(sigma->0) =     -376.21927537


--------------------------------------------------------------------------------------------------------




--------------------------------------- Iteration      1(   5)  ---------------------------------------


     EDDAV:  cpu time  114.6438: real time  115.4338
 BZINTS: Fermi energy:  6.092183;688.000000 electrons
         Band energy:***********;  BLOECHL correction:  0.000000
       DOS:  cpu time    0.0036: real time    0.0036
    CHARGE:  cpu time    1.2141: real time    1.2224
    MIXING:  cpu time    0.0023: real time    0.0023
    --------------------------------------------
      LOOP:  cpu time  115.8639: real time  116.6622

 eigenvalue-minimisations  : 16640
 total energy-change (2. order) :-0.1044245E+00  (-0.1044235E+00)
 number of electron     688.0000384 magnetization       0.0000000
 augmentation part      261.0241707 magnetization       0.0000000

 Broyden mixing:
  rms(total) = 0.75020E+01    rms(broyden)= 0.75019E+01
  rms(prec ) = 0.89821E+01
  weight for this iteration     100.00

 Free energy of the ion-electron system (eV)
  ---------------------------------------------------
  alpha Z        PSCENC =      2357.37589198
  Ewald energy   TEWEN  =    -62484.57460968
  -Hartree energ DENC   =    -44310.33584789
  -exchange      EXHF   =         0.00000000
  -V(xc)+E(xc)   XCENC  =      3320.18929736
  PAW double counting   =     94592.23312189   -98164.79192727
  entropy T*S    EENTRO =         0.00000000
  eigenvalues    EBANDS =     -9706.48473392
  atomic energy  EATOM  =    114020.06510763
  Solvation  Ediel_sol  =         0.00000000
  ---------------------------------------------------
  free energy    TOTEN  =      -376.32369992 eV

  energy without entropy =     -376.32369992  energy(sigma->0) =     -376.32369992


--------------------------------------------------------------------------------------------------------




--------------------------------------- Iteration      1(   6)  ---------------------------------------


    POTLOK:  cpu time    0.1204: real time    0.1212
    SETDIJ:  cpu time    0.0126: real time    0.0127
     EDDAV:  cpu time   64.4573: real time   64.9574
 BZINTS: Fermi energy:  4.286851;688.000000 electrons
         Band energy:***********;  BLOECHL correction:  0.000000
       DOS:  cpu time    0.0049: real time    0.0050
    CHARGE:  cpu time    1.1842: real time    1.1922
    MIXING:  cpu time    0.0023: real time    0.0972
    --------------------------------------------
      LOOP:  cpu time   65.7818: real time   66.3856

 eigenvalue-minimisations  : 12288
 total energy-change (2. order) : 0.4153507E+02  (-0.5900755E+02)
 number of electron     688.0000417 magnetization       0.0000000
 augmentation part      296.2644448 magnetization       0.0000000

 Broyden mixing:
  rms(total) = 0.99966E+01    rms(broyden)= 0.99966E+01
  rms(prec ) = 0.10445E+02
  weight for this iteration     100.00

 eigenvalues of (default mixing * dielectric matrix)
  average eigenvalue GAMMA=   0.1679
  0.1679

 Free energy of the ion-electron system (eV)
  ---------------------------------------------------
  alpha Z        PSCENC =      2357.37589198
  Ewald energy   TEWEN  =    -62484.57460968
  -Hartree energ DENC   =    -42353.69131160
  -exchange      EXHF   =         0.00000000
  -V(xc)+E(xc)   XCENC  =      3267.58192028
  PAW double counting   =     96418.23328309   -99777.50218411
  entropy T*S    EENTRO =         0.00000000
  eigenvalues    EBANDS =    -11782.27672582
  atomic energy  EATOM  =    114020.06510763
  Solvation  Ediel_sol  =         0.00000000
  ---------------------------------------------------
  free energy    TOTEN  =      -334.78862825 eV

  energy without entropy =     -334.78862825  energy(sigma->0) =     -334.78862825


--------------------------------------------------------------------------------------------------------




--------------------------------------- Iteration      1(   7)  ---------------------------------------


    POTLOK:  cpu time    0.1193: real time    0.1201
    SETDIJ:  cpu time    0.0126: real time    0.0127
     EDDAV:  cpu time   64.1602: real time   64.6566
 BZINTS: Fermi energy:  4.615672;688.000000 electrons
         Band energy:***********;  BLOECHL correction:  0.000000
       DOS:  cpu time    0.0032: real time    0.0032
    CHARGE:  cpu time    1.1864: real time    1.1942
    MIXING:  cpu time    0.0014: real time    0.0163
    --------------------------------------------
      LOOP:  cpu time   65.4831: real time   66.0031

 eigenvalue-minimisations  : 12288
 total energy-change (2. order) : 0.5054129E+01  (-0.1115484E+02)
 number of electron     688.0000406 magnetization       0.0000000
 augmentation part      286.0571942 magnetization       0.0000000

 Broyden mixing:
  rms(total) = 0.43699E+01    rms(broyden)= 0.43699E+01
  rms(prec ) = 0.44447E+01
  weight for this iteration     100.00

 eigenvalues of (default mixing * dielectric matrix)
  average eigenvalue GAMMA=   0.6166
  0.7643  0.4688

 Free energy of the ion-electron system (eV)
  ---------------------------------------------------
  alpha Z        PSCENC =      2357.37589198
  Ewald energy   TEWEN  =    -62484.57460968
  -Hartree energ DENC   =    -42836.40821870
  -exchange      EXHF   =         0.00000000
  -V(xc)+E(xc)   XCENC  =      3279.00520700
  PAW double counting   =     99834.05538143  -103350.24875962
  entropy T*S    EENTRO =         0.00000000
  eigenvalues    EBANDS =    -11149.00449881
  atomic energy  EATOM  =    114020.06510763
  Solvation  Ediel_sol  =         0.00000000
  ---------------------------------------------------
  free energy    TOTEN  =      -329.73449878 eV

  energy without entropy =     -329.73449878  energy(sigma->0) =     -329.73449878


--------------------------------------------------------------------------------------------------------




--------------------------------------- Iteration      1(   8)  ---------------------------------------


    POTLOK:  cpu time    0.1197: real time    0.1206
    SETDIJ:  cpu time    0.0126: real time    0.0127
     EDDAV:  cpu time  112.5256: real time  113.3029
 BZINTS: Fermi energy:  5.119476;688.000000 electrons
         Band energy:***********;  BLOECHL correction:  0.000000
       DOS:  cpu time    0.0035: real time    0.0035
    CHARGE:  cpu time    1.4372: real time    1.4457
    MIXING:  cpu time    0.0016: real time    0.0016
    --------------------------------------------
      LOOP:  cpu time  114.1002: real time  114.8869

 eigenvalue-minimisations  : 16384
 total energy-change (2. order) : 0.4648530E-01  (-0.3577606E+01)
 number of electron     688.0000402 magnetization       0.0000000
 augmentation part      281.4844373 magnetization       0.0000000

 Broyden mixing:
  rms(total) = 0.32164E+01    rms(broyden)= 0.32164E+01
  rms(prec ) = 0.34791E+01
  weight for this iteration     100.00

 eigenvalues of (default mixing * dielectric matrix)
  average eigenvalue GAMMA=   0.8769
  1.5591  0.6207  0.4510

 Free energy of the ion-electron system (eV)
  ---------------------------------------------------
  alpha Z        PSCENC =      2357.37589198
  Ewald energy   TEWEN  =    -62484.57460968
  -Hartree energ DENC   =    -43094.42392105
  -exchange      EXHF   =         0.00000000
  -V(xc)+E(xc)   XCENC  =      3291.25745052
  PAW double counting   =    105317.01106815  -108932.80205921
  entropy T*S    EENTRO =         0.00000000
  eigenvalues    EBANDS =    -10803.59694181
  atomic energy  EATOM  =    114020.06510763
  Solvation  Ediel_sol  =         0.00000000
  ---------------------------------------------------
  free energy    TOTEN  =      -329.68801348 eV

  energy without entropy =     -329.68801348  energy(sigma->0) =     -329.68801348


--------------------------------------------------------------------------------------------------------




--------------------------------------- Iteration      1(   9)  ---------------------------------------


    POTLOK:  cpu time    0.1353: real time    0.1362
    SETDIJ:  cpu time    0.0163: real time    0.0164
     EDDAV:  cpu time   98.2772: real time   98.9726
 BZINTS: Fermi energy:  4.567261;688.000000 electrons
         Band energy:***********;  BLOECHL correction:  0.000000
       DOS:  cpu time    0.0033: real time    0.0033
    CHARGE:  cpu time    1.1907: real time    1.1988
    MIXING:  cpu time    0.0016: real time    0.0027
    --------------------------------------------
      LOOP:  cpu time   99.6243: real time  100.3300

 eigenvalue-minimisations  : 15616
 total energy-change (2. order) :-0.1853139E+01  (-0.1002784E+02)
 number of electron     688.0000402 magnetization       0.0000000
 augmentation part      282.1383113 magnetization       0.0000000

 Broyden mixing:
  rms(total) = 0.23531E+01    rms(broyden)= 0.23530E+01
  rms(prec ) = 0.28000E+01
  weight for this iteration     100.00

 eigenvalues of (default mixing * dielectric matrix)
  average eigenvalue GAMMA=   0.9804
  2.3942  0.5967  0.5967  0.3341

 Free energy of the ion-electron system (eV)
  ---------------------------------------------------
  alpha Z        PSCENC =      2357.37589198
  Ewald energy   TEWEN  =    -62484.57460968
  -Hartree energ DENC   =    -42880.18508998
  -exchange      EXHF   =         0.00000000
  -V(xc)+E(xc)   XCENC  =      3284.04453822
  PAW double counting   =    109777.08029677  -113429.72751674
  entropy T*S    EENTRO =         0.00000000
  eigenvalues    EBANDS =    -10975.61977054
  atomic energy  EATOM  =    114020.06510763
  Solvation  Ediel_sol  =         0.00000000
  ---------------------------------------------------
  free energy    TOTEN  =      -331.54115235 eV

  energy without entropy =     -331.54115235  energy(sigma->0) =     -331.54115235


--------------------------------------------------------------------------------------------------------




--------------------------------------- Iteration      1(  10)  ---------------------------------------


    POTLOK:  cpu time    0.1195: real time    0.1204
    SETDIJ:  cpu time    0.0125: real time    0.0126
     EDDAV:  cpu time  117.3521: real time  118.1521
 BZINTS: Fermi energy:  4.935969;688.000000 electrons
         Band energy:***********;  BLOECHL correction:  0.000000
       DOS:  cpu time    0.0038: real time    0.0038
    CHARGE:  cpu time    1.1968: real time    1.2046
    MIXING:  cpu time    0.0018: real time    0.0018
    --------------------------------------------
      LOOP:  cpu time  118.6864: real time  119.4953

 eigenvalue-minimisations  : 16896
 total energy-change (2. order) : 0.3685419E+01  (-0.2154659E+01)
 number of electron     688.0000402 magnetization       0.0000000
 augmentation part      282.3932671 magnetization       0.0000000

 Broyden mixing:
  rms(total) = 0.27595E+00    rms(broyden)= 0.27590E+00
  rms(prec ) = 0.30245E+00
  weight for this iteration     100.00

 eigenvalues of (default mixing * dielectric matrix)
  average eigenvalue GAMMA=   0.9218
  2.3607  0.7717  0.5758  0.5758  0.3248

 Free energy of the ion-electron system (eV)
  ---------------------------------------------------
  alpha Z        PSCENC =      2357.37589198
  Ewald energy   TEWEN  =    -62484.57460968
  -Hartree energ DENC   =    -42911.54746389
  -exchange      EXHF   =         0.00000000
  -V(xc)+E(xc)   XCENC  =      3287.38794078
  PAW double counting   =    113294.80869827  -116992.46821119
  entropy T*S    EENTRO =         0.00000000
  eigenvalues    EBANDS =    -10898.90308729
  atomic energy  EATOM  =    114020.06510763
  Solvation  Ediel_sol  =         0.00000000
  ---------------------------------------------------
  free energy    TOTEN  =      -327.85573340 eV

  energy without entropy =     -327.85573340  energy(sigma->0) =     -327.85573340


--------------------------------------------------------------------------------------------------------




--------------------------------------- Iteration      1(  11)  ---------------------------------------


    POTLOK:  cpu time    0.1238: real time    0.1246
    SETDIJ:  cpu time    0.0127: real time    0.0128
     EDDAV:  cpu time   97.0167: real time   97.7088
 BZINTS: Fermi energy:  4.949117;688.000000 electrons
         Band energy:***********;  BLOECHL correction:  0.000000
       DOS:  cpu time    0.0038: real time    0.0038
    CHARGE:  cpu time    1.1866: real time    1.1941
    MIXING:  cpu time    0.0015: real time    0.0015
    --------------------------------------------
      LOOP:  cpu time   98.3451: real time   99.0456

 eigenvalue-minimisations  : 15616
 total energy-change (2. order) :-0.1213122E+00  (-0.1228245E+00)
 number of electron     688.0000401 magnetization      -0.0000000
 augmentation part      282.3586671 magnetization      -0.0000000

 Broyden mixing:
  rms(total) = 0.35389E+00    rms(broyden)= 0.35388E+00
  rms(prec ) = 0.38939E+00
  weight for this iteration     100.00

 eigenvalues of (default mixing * dielectric matrix)
  average eigenvalue GAMMA=   0.9033
  2.2524  0.7364  0.7364  0.7748  0.5807  0.3392

 Free energy of the ion-electron system (eV)
  ---------------------------------------------------
  alpha Z        PSCENC =      2357.37589198
  Ewald energy   TEWEN  =    -62484.57460968
  -Hartree energ DENC   =    -42929.22831658
  -exchange      EXHF   =         0.00000000
  -V(xc)+E(xc)   XCENC  =      3287.11544418
  PAW double counting   =    113087.50443566  -116785.15110718
  entropy T*S    EENTRO =         0.00000000
  eigenvalues    EBANDS =    -10881.08389163
  atomic energy  EATOM  =    114020.06510763
  Solvation  Ediel_sol  =         0.00000000
  ---------------------------------------------------
  free energy    TOTEN  =      -327.97704563 eV

  energy without entropy =     -327.97704563  energy(sigma->0) =     -327.97704563


--------------------------------------------------------------------------------------------------------




--------------------------------------- Iteration      1(  12)  ---------------------------------------


    POTLOK:  cpu time    0.1176: real time    0.1201
    SETDIJ:  cpu time    0.0126: real time    0.0127
     EDDAV:  cpu time  122.3749: real time  123.1962
 BZINTS: Fermi energy:  4.932719;688.000000 electrons
         Band energy:***********;  BLOECHL correction:  0.000000
       DOS:  cpu time    0.0038: real time    0.0038
    CHARGE:  cpu time    1.1717: real time    1.1800
    MIXING:  cpu time    0.0015: real time    0.0015
    --------------------------------------------
      LOOP:  cpu time  123.6822: real time  124.5143

 eigenvalue-minimisations  : 17152
 total energy-change (2. order) : 0.1105111E-01  (-0.4930513E-01)
 number of electron     688.0000401 magnetization      -0.0000000
 augmentation part      282.2456583 magnetization      -0.0000000

 Broyden mixing:
  rms(total) = 0.13289E+00    rms(broyden)= 0.13288E+00
  rms(prec ) = 0.14832E+00
  weight for this iteration     100.00

 eigenvalues of (default mixing * dielectric matrix)
  average eigenvalue GAMMA=   0.9429
  2.2775  1.0814  1.0814  0.6225  0.6225  0.5758  0.3390

 Free energy of the ion-electron system (eV)
  ---------------------------------------------------
  alpha Z        PSCENC =      2357.37589198
  Ewald energy   TEWEN  =    -62484.57460968
  -Hartree energ DENC   =    -42928.47388989
  -exchange      EXHF   =         0.00000000
  -V(xc)+E(xc)   XCENC  =      3286.62366356
  PAW double counting   =    112697.66923645  -116392.27331250
  entropy T*S    EENTRO =         0.00000000
  eigenvalues    EBANDS =    -10884.37808207
  atomic energy  EATOM  =    114020.06510763
  Solvation  Ediel_sol  =         0.00000000
  ---------------------------------------------------
  free energy    TOTEN  =      -327.96599452 eV

  energy without entropy =     -327.96599452  energy(sigma->0) =     -327.96599452


--------------------------------------------------------------------------------------------------------




--------------------------------------- Iteration      1(  13)  ---------------------------------------


    POTLOK:  cpu time    0.1210: real time    0.1218
    SETDIJ:  cpu time    0.0128: real time    0.0129
     EDDAV:  cpu time   82.1198: real time   82.7147
 BZINTS: Fermi energy:  4.936637;688.000000 electrons
         Band energy:***********;  BLOECHL correction:  0.000000
       DOS:  cpu time    0.0038: real time    0.0038
    CHARGE:  cpu time    1.1711: real time    1.1794
    MIXING:  cpu time    0.0016: real time    0.0016
    --------------------------------------------
      LOOP:  cpu time   83.4300: real time   84.0342

 eigenvalue-minimisations  : 13824
 total energy-change (2. order) :-0.4596865E-02  (-0.4952429E-02)
 number of electron     688.0000401 magnetization      -0.0000000
 augmentation part      282.2607697 magnetization      -0.0000000

 Broyden mixing:
  rms(total) = 0.92204E-01    rms(broyden)= 0.92203E-01
  rms(prec ) = 0.94060E-01
  weight for this iteration     100.00

 eigenvalues of (default mixing * dielectric matrix)
  average eigenvalue GAMMA=   1.1273
  2.5464  2.5464  0.3391  0.8446  0.8446  0.6609  0.6609  0.5757

 Free energy of the ion-electron system (eV)
  ---------------------------------------------------
  alpha Z        PSCENC =      2357.37589198
  Ewald energy   TEWEN  =    -62484.57460968
  -Hartree energ DENC   =    -42934.31006002
  -exchange      EXHF   =         0.00000000
  -V(xc)+E(xc)   XCENC  =      3286.69535524
  PAW double counting   =    112448.83299944  -116143.33488906
  entropy T*S    EENTRO =         0.00000000
  eigenvalues    EBANDS =    -10878.72038691
  atomic energy  EATOM  =    114020.06510763
  Solvation  Ediel_sol  =         0.00000000
  ---------------------------------------------------
  free energy    TOTEN  =      -327.97059139 eV

  energy without entropy =     -327.97059139  energy(sigma->0) =     -327.97059139


--------------------------------------------------------------------------------------------------------




--------------------------------------- Iteration      1(  14)  ---------------------------------------


    POTLOK:  cpu time    0.1200: real time    0.1208
    SETDIJ:  cpu time    0.0127: real time    0.0127
     EDDAV:  cpu time  120.1693: real time  120.9836
 BZINTS: Fermi energy:  4.939945;688.000000 electrons
         Band energy:***********;  BLOECHL correction:  0.000000
       DOS:  cpu time    0.0038: real time    0.0038
    CHARGE:  cpu time    1.1741: real time    1.1822
    MIXING:  cpu time    0.0017: real time    0.0017
    --------------------------------------------
      LOOP:  cpu time  121.4816: real time  122.3048

 eigenvalue-minimisations  : 16896
 total energy-change (2. order) :-0.9496444E-02  (-0.4938968E-02)
 number of electron     688.0000401 magnetization      -0.0000000
 augmentation part      282.2189430 magnetization      -0.0000000

 Broyden mixing:
  rms(total) = 0.39275E-01    rms(broyden)= 0.39269E-01
  rms(prec ) = 0.43521E-01
  weight for this iteration     100.00

 eigenvalues of (default mixing * dielectric matrix)
  average eigenvalue GAMMA=   1.0531
  2.3607  2.3607  0.9456  0.9456  0.3390  0.6458  0.6458  0.5661  0.6689

 Free energy of the ion-electron system (eV)
  ---------------------------------------------------
  alpha Z        PSCENC =      2357.37589198
  Ewald energy   TEWEN  =    -62484.57460968
  -Hartree energ DENC   =    -42942.56463650
  -exchange      EXHF   =         0.00000000
  -V(xc)+E(xc)   XCENC  =      3286.50669965
  PAW double counting   =    112168.77026484  -115862.70917866
  entropy T*S    EENTRO =         0.00000000
  eigenvalues    EBANDS =    -10870.84962709
  atomic energy  EATOM  =    114020.06510763
  Solvation  Ediel_sol  =         0.00000000
  ---------------------------------------------------
  free energy    TOTEN  =      -327.98008783 eV

  energy without entropy =     -327.98008783  energy(sigma->0) =     -327.98008783


--------------------------------------------------------------------------------------------------------




--------------------------------------- Iteration      1(  15)  ---------------------------------------


    POTLOK:  cpu time    0.1206: real time    0.1214
    SETDIJ:  cpu time    0.0126: real time    0.0126
     EDDAV:  cpu time   73.0186: real time   73.5597
 BZINTS: Fermi energy:  4.938485;688.000000 electrons
         Band energy:***********;  BLOECHL correction:  0.000000
       DOS:  cpu time    0.0038: real time    0.0038
    CHARGE:  cpu time    1.1835: real time    1.1911
    MIXING:  cpu time    0.0017: real time    0.0017
    --------------------------------------------
      LOOP:  cpu time   74.3408: real time   74.8902

 eigenvalue-minimisations  : 12800
 total energy-change (2. order) : 0.2594192E-03  (-0.4959991E-03)
 number of electron     688.0000401 magnetization      -0.0000000
 augmentation part      282.2210817 magnetization      -0.0000000

 Broyden mixing:
  rms(total) = 0.16481E-01    rms(broyden)= 0.16481E-01
  rms(prec ) = 0.17145E-01
  weight for this iteration     100.00

 eigenvalues of (default mixing * dielectric matrix)
  average eigenvalue GAMMA=   0.9795
  2.3118  2.3118  0.9502  0.9502  0.3390  0.6413  0.6413  0.6732  0.5541  0.4227

 Free energy of the ion-electron system (eV)
  ---------------------------------------------------
  alpha Z        PSCENC =      2357.37589198
  Ewald energy   TEWEN  =    -62484.57460968
  -Hartree energ DENC   =    -42941.14921058
  -exchange      EXHF   =         0.00000000
  -V(xc)+E(xc)   XCENC  =      3286.48264072
  PAW double counting   =    112261.67798497  -115955.89433659
  entropy T*S    EENTRO =         0.00000000
  eigenvalues    EBANDS =    -10871.96329684
  atomic energy  EATOM  =    114020.06510763
  Solvation  Ediel_sol  =         0.00000000
  ---------------------------------------------------
  free energy    TOTEN  =      -327.97982841 eV

  energy without entropy =     -327.97982841  energy(sigma->0) =     -327.97982841


--------------------------------------------------------------------------------------------------------




--------------------------------------- Iteration      1(  16)  ---------------------------------------


    POTLOK:  cpu time    0.1206: real time    0.1214
    SETDIJ:  cpu time    0.0127: real time    0.0127
     EDDAV:  cpu time  139.1880: real time  140.1045
 BZINTS: Fermi energy:  4.938480;688.000000 electrons
         Band energy:***********;  BLOECHL correction:  0.000000
       DOS:  cpu time    0.0038: real time    0.0038
    CHARGE:  cpu time    1.1870: real time    1.1950
    MIXING:  cpu time    0.0019: real time    0.0024
    --------------------------------------------
      LOOP:  cpu time  140.5140: real time  141.4399

 eigenvalue-minimisations  : 17920
 total energy-change (2. order) :-0.1146925E-03  (-0.4231109E-04)
 number of electron     688.0000401 magnetization      -0.0000000
 augmentation part      282.2231519 magnetization      -0.0000000

 Broyden mixing:
  rms(total) = 0.12146E-01    rms(broyden)= 0.12145E-01
  rms(prec ) = 0.12665E-01
  weight for this iteration     100.00

 eigenvalues of (default mixing * dielectric matrix)
  average eigenvalue GAMMA=   1.1082
  2.4431  1.9482  1.9482  1.3251  0.3390  0.8229  0.8229  0.6598  0.6598  0.5716
  0.6495

 Free energy of the ion-electron system (eV)
  ---------------------------------------------------
  alpha Z        PSCENC =      2357.37589198
  Ewald energy   TEWEN  =    -62484.57460968
  -Hartree energ DENC   =    -42941.31046209
  -exchange      EXHF   =         0.00000000
  -V(xc)+E(xc)   XCENC  =      3286.49441286
  PAW double counting   =    112270.63416088  -115964.78813822
  entropy T*S    EENTRO =         0.00000000
  eigenvalues    EBANDS =    -10871.87630646
  atomic energy  EATOM  =    114020.06510763
  Solvation  Ediel_sol  =         0.00000000
  ---------------------------------------------------
  free energy    TOTEN  =      -327.97994311 eV

  energy without entropy =     -327.97994311  energy(sigma->0) =     -327.97994311


--------------------------------------------------------------------------------------------------------




--------------------------------------- Iteration      1(  17)  ---------------------------------------


    POTLOK:  cpu time    0.1212: real time    0.1219
    SETDIJ:  cpu time    0.0126: real time    0.0127
     EDDAV:  cpu time   78.7385: real time   79.3141
 BZINTS: Fermi energy:  4.939393;688.000000 electrons
         Band energy:***********;  BLOECHL correction:  0.000000
       DOS:  cpu time    0.0038: real time    0.0038
    CHARGE:  cpu time    1.1854: real time    1.1927
    MIXING:  cpu time    0.0018: real time    0.0018
    --------------------------------------------
      LOOP:  cpu time   80.0633: real time   80.6470

 eigenvalue-minimisations  : 13312
 total energy-change (2. order) :-0.4194858E-03  (-0.1670420E-03)
 number of electron     688.0000401 magnetization      -0.0000000
 augmentation part      282.2131848 magnetization      -0.0000000

 Broyden mixing:
  rms(total) = 0.91087E-02    rms(broyden)= 0.91080E-02
  rms(prec ) = 0.93776E-02
  weight for this iteration     100.00

 eigenvalues of (default mixing * dielectric matrix)
  average eigenvalue GAMMA=   1.1406
  3.0748  2.1773  1.5466  1.5466  0.9260  0.9260  0.3390  0.6525  0.6525  0.6581
  0.5937  0.5937

 Free energy of the ion-electron system (eV)
  ---------------------------------------------------
  alpha Z        PSCENC =      2357.37589198
  Ewald energy   TEWEN  =    -62484.57460968
  -Hartree energ DENC   =    -42942.95967339
  -exchange      EXHF   =         0.00000000
  -V(xc)+E(xc)   XCENC  =      3286.53710413
  PAW double counting   =    112271.42006861  -115965.44931020
  entropy T*S    EENTRO =         0.00000000
  eigenvalues    EBANDS =    -10870.39494166
  atomic energy  EATOM  =    114020.06510763
  Solvation  Ediel_sol  =         0.00000000
  ---------------------------------------------------
  free energy    TOTEN  =      -327.98036259 eV

  energy without entropy =     -327.98036259  energy(sigma->0) =     -327.98036259


--------------------------------------------------------------------------------------------------------




--------------------------------------- Iteration      1(  18)  ---------------------------------------


    POTLOK:  cpu time    0.1200: real time    0.1209
    SETDIJ:  cpu time    0.0127: real time    0.0128
     EDDAV:  cpu time  112.3851: real time  113.1474
 BZINTS: Fermi energy:  4.939437;688.000000 electrons
         Band energy:***********;  BLOECHL correction:  0.000000
       DOS:  cpu time    0.0039: real time    0.0039
    CHARGE:  cpu time    1.1858: real time    1.1941
    MIXING:  cpu time    0.0019: real time    0.0019
    --------------------------------------------
      LOOP:  cpu time  113.7094: real time  114.4809

 eigenvalue-minimisations  : 15872
 total energy-change (2. order) :-0.5304800E-04  (-0.1484379E-04)
 number of electron     688.0000401 magnetization      -0.0000000
 augmentation part      282.2201733 magnetization      -0.0000000

 Broyden mixing:
  rms(total) = 0.49943E-02    rms(broyden)= 0.49941E-02
  rms(prec ) = 0.55223E-02
  weight for this iteration     100.00

 eigenvalues of (default mixing * dielectric matrix)
  average eigenvalue GAMMA=   1.1356
  3.2923  2.1941  1.8860  1.1321  1.1321  0.3390  0.7646  0.7646  0.7644  0.6563
  0.6563  0.5907  0.5907

 Free energy of the ion-electron system (eV)
  ---------------------------------------------------
  alpha Z        PSCENC =      2357.37589198
  Ewald energy   TEWEN  =    -62484.57460968
  -Hartree energ DENC   =    -42942.85929713
  -exchange      EXHF   =         0.00000000
  -V(xc)+E(xc)   XCENC  =      3286.54650731
  PAW double counting   =    112273.99104066  -115967.95294192
  entropy T*S    EENTRO =         0.00000000
  eigenvalues    EBANDS =    -10870.57211449
  atomic energy  EATOM  =    114020.06510763
  Solvation  Ediel_sol  =         0.00000000
  ---------------------------------------------------
  free energy    TOTEN  =      -327.98041564 eV

  energy without entropy =     -327.98041564  energy(sigma->0) =     -327.98041564


--------------------------------------------------------------------------------------------------------




--------------------------------------- Iteration      1(  19)  ---------------------------------------


    POTLOK:  cpu time    0.1168: real time    0.1211
    SETDIJ:  cpu time    0.0128: real time    0.0128
     EDDAV:  cpu time  110.7486: real time  111.5043
 BZINTS: Fermi energy:  4.939378;688.000000 electrons
         Band energy:***********;  BLOECHL correction:  0.000000
       DOS:  cpu time    0.0038: real time    0.0039
    CHARGE:  cpu time    1.1876: real time    1.1957
    MIXING:  cpu time    0.0020: real time    0.0020
    --------------------------------------------
      LOOP:  cpu time  112.0715: real time  112.8396

 eigenvalue-minimisations  : 15872
 total energy-change (2. order) :-0.4204849E-05  (-0.3839628E-05)
 number of electron     688.0000401 magnetization      -0.0000000
 augmentation part      282.2209735 magnetization      -0.0000000

 Broyden mixing:
  rms(total) = 0.28990E-02    rms(broyden)= 0.28989E-02
  rms(prec ) = 0.31660E-02
  weight for this iteration     100.00

 eigenvalues of (default mixing * dielectric matrix)
  average eigenvalue GAMMA=   1.1288
  3.2884  2.1641  2.1641  0.9440  0.9440  1.0509  1.0509  0.3390  0.7725  0.6496
[...]
   -.421E+02 0.311E+00 0.114E+02   0.429E+02 -.300E+00 -.115E+02   -.864E+00 -.100E-01 0.105E+00   -.962E-05 0.935E-10 -.199E-06
   -.421E+02 0.311E+00 0.114E+02   0.429E+02 -.300E+00 -.115E+02   -.864E+00 -.100E-01 0.105E+00   -.962E-05 0.935E-10 -.199E-06
   -.421E+02 0.311E+00 0.114E+02   0.429E+02 -.300E+00 -.115E+02   -.864E+00 -.100E-01 0.105E+00   -.962E-05 0.935E-10 -.199E-06
   -.421E+02 0.311E+00 0.114E+02   0.429E+02 -.300E+00 -.115E+02   -.864E+00 -.100E-01 0.105E+00   -.962E-05 0.936E-10 -.199E-06
   0.421E+02 -.311E+00 0.114E+02   -.429E+02 0.300E+00 -.115E+02   0.864E+00 0.100E-01 0.105E+00   0.962E-05 -.937E-10 -.199E-06
   0.421E+02 -.311E+00 0.114E+02   -.429E+02 0.300E+00 -.115E+02   0.864E+00 0.100E-01 0.105E+00   0.962E-05 -.936E-10 -.199E-06
   0.421E+02 -.311E+00 0.114E+02   -.429E+02 0.300E+00 -.115E+02   0.864E+00 0.100E-01 0.105E+00   0.962E-05 -.934E-10 -.199E-06
   0.421E+02 -.311E+00 0.114E+02   -.429E+02 0.300E+00 -.115E+02   0.864E+00 0.100E-01 0.105E+00   0.962E-05 -.935E-10 -.199E-06
   0.311E+00 -.421E+02 0.114E+02   -.300E+00 0.429E+02 -.115E+02   -.100E-01 -.864E+00 0.105E+00   0.934E-10 -.962E-05 -.199E-06
   0.311E+00 -.421E+02 0.114E+02   -.300E+00 0.429E+02 -.115E+02   -.100E-01 -.864E+00 0.105E+00   0.935E-10 -.962E-05 -.199E-06
   0.311E+00 -.421E+02 0.114E+02   -.300E+00 0.429E+02 -.115E+02   -.100E-01 -.864E+00 0.105E+00   0.934E-10 -.962E-05 -.199E-06
   0.311E+00 -.421E+02 0.114E+02   -.300E+00 0.429E+02 -.115E+02   -.100E-01 -.864E+00 0.105E+00   0.936E-10 -.962E-05 -.199E-06
   -.311E+00 0.421E+02 0.114E+02   0.300E+00 -.429E+02 -.115E+02   0.100E-01 0.864E+00 0.105E+00   -.935E-10 0.962E-05 -.199E-06
   -.311E+00 0.421E+02 0.114E+02   0.300E+00 -.429E+02 -.115E+02   0.100E-01 0.864E+00 0.105E+00   -.934E-10 0.962E-05 -.199E-06
   -.311E+00 0.421E+02 0.114E+02   0.300E+00 -.429E+02 -.115E+02   0.100E-01 0.864E+00 0.105E+00   -.935E-10 0.962E-05 -.199E-06
   -.311E+00 0.421E+02 0.114E+02   0.300E+00 -.429E+02 -.115E+02   0.100E-01 0.864E+00 0.105E+00   -.935E-10 0.962E-05 -.199E-06
   -.212E-06 0.402E-07 -.134E+02   -.112E-12 0.853E-13 0.129E+02   -.297E-25 0.258E-25 0.542E+00   -.113E-12 0.153E-12 0.865E-05
   -.211E-06 0.402E-07 -.134E+02   -.520E-13 0.142E-12 0.129E+02   -.218E-25 -.549E-25 0.542E+00   -.352E-12 0.224E-12 0.865E-05
   -.212E-06 0.402E-07 -.134E+02   -.839E-13 0.142E-12 0.129E+02   -.331E-25 0.388E-25 0.542E+00   -.248E-12 -.190E-12 0.865E-05
   -.211E-06 0.402E-07 -.134E+02   -.804E-13 0.853E-13 0.129E+02   -.564E-25 -.452E-25 0.542E+00   -.229E-12 -.220E-12 0.865E-05
   0.402E-07 -.212E-06 -.134E+02   -.853E-13 -.853E-13 0.129E+02   -.162E-25 0.679E-25 0.542E+00   -.402E-12 0.185E-12 0.865E-05
   0.402E-07 -.212E-06 -.134E+02   -.142E-12 -.284E-13 0.129E+02   0.325E-25 -.404E-25 0.542E+00   -.254E-12 0.307E-12 0.865E-05
   0.402E-07 -.211E-06 -.134E+02   -.114E-12 0.284E-13 0.129E+02   0.353E-27 -.485E-25 0.542E+00   -.535E-12 0.581E-16 0.865E-05
   0.402E-07 -.211E-06 -.134E+02   -.853E-13 0.284E-13 0.129E+02   0.366E-25 -.840E-25 0.542E+00   -.122E-12 -.131E-12 0.865E-05
   -.211E-06 0.403E-07 -.134E+02   -.156E-12 0.240E-13 0.129E+02   -.264E-25 0.646E-25 0.542E+00   -.469E-12 -.341E-12 0.865E-05
   -.211E-06 0.403E-07 -.134E+02   -.128E-12 -.329E-13 0.129E+02   -.202E-26 -.388E-25 0.542E+00   -.201E-12 -.169E-12 0.865E-05
   -.211E-06 0.403E-07 -.134E+02   -.142E-12 0.302E-13 0.129E+02   0.105E-25 -.452E-25 0.542E+00   -.441E-12 0.248E-12 0.865E-05
   -.211E-06 0.403E-07 -.134E+02   -.142E-12 0.302E-13 0.129E+02   -.273E-26 -.355E-25 0.542E+00   -.216E-12 0.870E-13 0.865E-05
   0.402E-07 -.211E-06 -.134E+02   -.169E-12 -.211E-12 0.129E+02   0.312E-25 -.258E-25 0.542E+00   -.204E-12 -.545E-13 0.865E-05
   0.402E-07 -.212E-06 -.134E+02   -.166E-12 -.155E-12 0.129E+02   0.551E-25 -.388E-25 0.542E+00   -.353E-12 -.188E-12 0.865E-05
   0.402E-07 -.211E-06 -.134E+02   -.169E-12 -.148E-12 0.129E+02   -.889E-26 0.000E+00 0.542E+00   0.112E-13 0.258E-12 0.865E-05
   0.402E-07 -.211E-06 -.134E+02   -.166E-12 -.148E-12 0.129E+02   0.214E-25 0.000E+00 0.542E+00   -.479E-12 0.337E-12 0.865E-05
   0.551E-07 -.761E-07 -.108E+02   0.573E-13 -.746E-13 0.102E+02   -.194E-25 -.662E-25 0.647E+00   0.178E-12 0.238E-12 -.260E-06
   0.551E-07 -.761E-07 -.108E+02   0.466E-13 -.995E-13 0.102E+02   0.375E-26 0.108E-24 0.647E+00   -.160E-12 0.235E-12 -.260E-06
   0.551E-07 -.761E-07 -.108E+02   0.573E-13 -.497E-13 0.102E+02   0.242E-25 -.452E-25 0.647E+00   0.875E-13 -.462E-13 -.260E-06
   0.551E-07 -.761E-07 -.108E+02   0.608E-13 -.995E-13 0.102E+02   -.313E-25 0.129E-25 0.647E+00   -.152E-13 -.734E-13 -.260E-06
   -.761E-07 0.551E-07 -.108E+02   0.110E-12 -.639E-13 0.102E+02   0.303E-26 0.388E-25 0.647E+00   -.134E-12 0.132E-12 -.260E-06
   -.761E-07 0.551E-07 -.108E+02   0.107E-12 -.568E-13 0.102E+02   -.207E-25 0.646E-26 0.647E+00   0.387E-13 0.220E-12 -.260E-06
   -.761E-07 0.551E-07 -.108E+02   0.853E-13 -.533E-13 0.102E+02   -.103E-24 -.162E-26 0.647E+00   -.222E-12 -.911E-13 -.260E-06
   -.761E-07 0.551E-07 -.108E+02   0.110E-12 -.462E-13 0.102E+02   0.828E-25 -.646E-26 0.647E+00   0.162E-12 -.228E-12 -.260E-06
   0.551E-07 -.761E-07 -.108E+02   0.000E+00 0.373E-13 0.102E+02   0.162E-26 0.775E-25 0.647E+00   -.194E-12 -.141E-12 -.260E-06
   0.551E-07 -.761E-07 -.108E+02   0.284E-13 -.231E-13 0.102E+02   0.271E-25 -.111E-24 0.647E+00   0.901E-13 -.110E-12 -.260E-06
   0.551E-07 -.761E-07 -.108E+02   0.000E+00 0.475E-13 0.102E+02   0.124E-25 -.713E-25 0.647E+00   -.191E-12 0.390E-12 -.260E-06
   0.551E-07 -.761E-07 -.108E+02   0.000E+00 -.164E-13 0.102E+02   -.149E-25 -.388E-25 0.647E+00   0.105E-12 0.194E-12 -.260E-06
   -.761E-07 0.551E-07 -.108E+02   0.873E-13 0.235E-13 0.102E+02   -.681E-25 0.129E-25 0.647E+00   -.110E-14 -.172E-12 -.260E-06
   -.761E-07 0.551E-07 -.108E+02   0.122E-12 -.405E-13 0.102E+02   -.525E-25 0.129E-25 0.647E+00   -.138E-13 -.264E-12 -.260E-06
   -.761E-07 0.551E-07 -.108E+02   0.911E-13 -.377E-13 0.102E+02   -.218E-25 -.162E-26 0.647E+00   0.151E-12 0.144E-12 -.260E-06
   -.761E-07 0.552E-07 -.108E+02   0.834E-13 0.120E-13 0.102E+02   -.927E-25 0.129E-25 0.647E+00   -.115E-12 0.260E-12 -.260E-06
 -----------------------------------------------------------------------------------------------
   -.141E-05 -.141E-05 -.224E+02   -.154E-12 0.170E-12 0.112E-11   -.449E-15 -.222E-15 0.224E+02   -.470E-11 0.124E-11 0.128E-03
 
 
 POSITION                                       TOTAL-FORCE (eV/Angst)
 -----------------------------------------------------------------------------------
      1.34936      1.33990      1.28159         0.002948     -0.001051     -0.005541
      6.60313      1.43614      1.28159         0.002948     -0.001051     -0.005541
      1.44560      6.59367      1.28159         0.002948     -0.001051     -0.005541
      6.69936      6.68990      1.28159         0.002948     -0.001051     -0.005541
      4.00064      4.01010      1.28159        -0.002948      0.001051     -0.005541
      9.25441      4.10633      1.28159        -0.002948      0.001051     -0.005541
      4.09687      9.26386      1.28159        -0.002948      0.001051     -0.005541
      9.35064      9.36010      1.28159        -0.002948      0.001051     -0.005541
      1.38322      3.95252      9.09662         0.001051     -0.002948     -0.005541
      6.63698      4.04876      9.09662         0.001051     -0.002948     -0.005541
      1.47945      9.20629      9.09662         0.001051     -0.002948     -0.005541
      6.73322      9.30252      9.09662         0.001051     -0.002948     -0.005541
      3.96679      1.39748      9.09662        -0.001051      0.002948     -0.005541
      9.22055      1.49371      9.09662        -0.001051      0.002948     -0.005541
      4.06302      6.65124      9.09662        -0.001051      0.002948     -0.005541
      9.31679      6.74748      9.09662        -0.001051      0.002948     -0.005541
      1.32564      1.33510      6.49161        -0.002948      0.001051     -0.005541
      6.57941      1.43133      6.49161        -0.002948      0.001051     -0.005541
      1.42187      6.58886      6.49161        -0.002948      0.001051     -0.005541
      6.67564      6.68510      6.49161        -0.002948      0.001051     -0.005541
      4.02436      4.01490      6.49161         0.002948     -0.001051     -0.005541
      9.27813      4.11114      6.49161         0.002948     -0.001051     -0.005541
      4.12060      9.26867      6.49161         0.002948     -0.001051     -0.005541
      9.37436      9.36490      6.49161         0.002948     -0.001051     -0.005541
      3.96198      1.37376      3.88660         0.001051     -0.002948     -0.005541
      9.21575      1.46999      3.88660         0.001051     -0.002948     -0.005541
      4.05822      6.62752      3.88660         0.001051     -0.002948     -0.005541
      9.31198      6.72376      3.88660         0.001051     -0.002948     -0.005541
      1.38802      3.97624      3.88660        -0.001051      0.002948     -0.005541
      6.64179      4.07248      3.88660        -0.001051      0.002948     -0.005541
      1.48425      9.23001      3.88660        -0.001051      0.002948     -0.005541
      6.73802      9.32625      3.88660        -0.001051      0.002948     -0.005541
      0.00000      0.00000      5.22816        -0.000000     -0.000000      0.002333
      5.25377      0.09624      5.22816        -0.000000     -0.000000      0.002333
      0.09624      5.25377      5.22816        -0.000000     -0.000000      0.002333
      5.35000      5.35000      5.22816        -0.000000     -0.000000      0.002333
      2.62688      0.04812      2.62315        -0.000000     -0.000000      0.002333
      7.88065      0.14435      2.62315        -0.000000     -0.000000      0.002333
      2.72312      5.30188      2.62315        -0.000000     -0.000000      0.002333
      7.97688      5.39812      2.62315        -0.000000     -0.000000      0.002333
      2.67500      2.67500      0.01814        -0.000000     -0.000000      0.002333
      7.92877      2.77124      0.01814        -0.000000     -0.000000      0.002333
      2.77124      7.92877      0.01814        -0.000000     -0.000000      0.002333
      8.02500      8.02500      0.01814        -0.000000     -0.000000      0.002333
      0.04812      2.62688      7.83317        -0.000000     -0.000000      0.002333
      5.30188      2.72312      7.83317        -0.000000     -0.000000      0.002333
      0.14435      7.88065      7.83317        -0.000000     -0.000000      0.002333
      5.39812      7.97688      7.83317        -0.000000     -0.000000      0.002333
      0.00000      0.00000      0.02368        -0.000000     -0.000000      0.008750
      5.25377      0.09624      0.02368        -0.000000     -0.000000      0.008750
      0.09624      5.25377      0.02368        -0.000000     -0.000000      0.008750
      5.35000      5.35000      0.02368        -0.000000     -0.000000      0.008750
      2.62688      0.04812      7.83871        -0.000000     -0.000000      0.008750
      7.88065      0.14435      7.83871        -0.000000     -0.000000      0.008750
      2.72312      5.30188      7.83871        -0.000000     -0.000000      0.008750
      7.97688      5.39812      7.83871        -0.000000     -0.000000      0.008750
      2.67500      2.67500      5.23370        -0.000000     -0.000000      0.008750
      7.92877      2.77124      5.23370        -0.000000     -0.000000      0.008750
      2.77124      7.92877      5.23370        -0.000000     -0.000000      0.008750
      8.02500      8.02500      5.23370        -0.000000     -0.000000      0.008750
      0.04812      2.62688      2.62869        -0.000000     -0.000000      0.008750
      5.30188      2.72312      2.62869        -0.000000     -0.000000      0.008750
      0.14435      7.88065      2.62869        -0.000000     -0.000000      0.008750
      5.39812      7.97688      2.62869        -0.000000     -0.000000      0.008750
 -----------------------------------------------------------------------------------
    total drift:                               -0.000001     -0.000001     -0.035966


--------------------------------------------------------------------------------------------------------



  FREE ENERGIE OF THE ION-ELECTRON SYSTEM (eV)
  ---------------------------------------------------
  free  energy   TOTEN  =      -327.98042193 eV

  energy  without entropy=     -327.98042193  energy(sigma->0) =     -327.98042193
 


--------------------------------------------------------------------------------------------------------


    POTLOK:  cpu time    0.1317: real time    0.1323


--------------------------------------------------------------------------------------------------------


 writing wavefunctions
     LOOP+:  cpu time 2998.4853: real time 3019.7628
    4ORBIT:  cpu time    0.0000: real time    0.0000
 


 total charge     
 
# of ion       s       p       d       tot
------------------------------------------
    1        1.314   2.410   0.000   3.723
    2        1.314   2.410   0.000   3.723
    3        1.314   2.410   0.000   3.723
    4        1.314   2.410   0.000   3.723
    5        1.314   2.410   0.000   3.723
    6        1.314   2.410   0.000   3.723
    7        1.314   2.410   0.000   3.723
    8        1.314   2.410   0.000   3.723
    9        1.314   2.410   0.000   3.724
   10        1.314   2.410   0.000   3.724
   11        1.314   2.410   0.000   3.724
   12        1.314   2.410   0.000   3.724
   13        1.314   2.410   0.000   3.724
   14        1.314   2.410   0.000   3.724
   15        1.314   2.410   0.000   3.724
   16        1.314   2.410   0.000   3.724
   17        1.314   2.410   0.000   3.723
   18        1.314   2.410   0.000   3.723
   19        1.314   2.410   0.000   3.723
   20        1.314   2.410   0.000   3.723
   21        1.314   2.410   0.000   3.723
   22        1.314   2.410   0.000   3.723
   23        1.314   2.410   0.000   3.723
   24        1.314   2.410   0.000   3.723
   25        1.314   2.410   0.000   3.724
   26        1.314   2.410   0.000   3.724
   27        1.314   2.410   0.000   3.724
   28        1.314   2.410   0.000   3.724
   29        1.314   2.410   0.000   3.724
   30        1.314   2.410   0.000   3.724
   31        1.314   2.410   0.000   3.724
   32        1.314   2.410   0.000   3.724
   33        0.260   6.202   8.916  15.378
   34        0.260   6.202   8.916  15.378
   35        0.260   6.202   8.916  15.378
   36        0.260   6.202   8.916  15.378
   37        0.260   6.202   8.917  15.378
   38        0.260   6.202   8.917  15.378
   39        0.260   6.202   8.917  15.378
   40        0.260   6.202   8.917  15.378
   41        0.260   6.202   8.916  15.378
   42        0.260   6.202   8.916  15.378
   43        0.260   6.202   8.916  15.378
   44        0.260   6.202   8.916  15.378
   45        0.260   6.202   8.917  15.378
   46        0.260   6.202   8.917  15.378
   47        0.260   6.202   8.917  15.378
   48        0.260   6.202   8.917  15.378
   49        0.350   6.351   5.820  12.521
   50        0.350   6.351   5.820  12.521
   51        0.350   6.351   5.820  12.521
   52        0.350   6.351   5.820  12.521
   53        0.350   6.351   5.820  12.521
   54        0.350   6.351   5.820  12.521
   55        0.350   6.351   5.820  12.521
   56        0.350   6.351   5.820  12.521
   57        0.350   6.351   5.820  12.521
   58        0.350   6.351   5.820  12.521
   59        0.350   6.351   5.820  12.521
   60        0.350   6.351   5.820  12.521
   61        0.350   6.351   5.820  12.521
   62        0.350   6.351   5.820  12.521
   63        0.350   6.351   5.820  12.521
   64        0.350   6.351   5.820  12.521
--------------------------------------------------
tot         51.789 277.968 235.789 565.546
 


 magnetization (x)
 
# of ion       s       p       d       tot
------------------------------------------
    1       -0.000  -0.009   0.000  -0.009
    2       -0.000  -0.009   0.000  -0.009
    3       -0.000  -0.009   0.000  -0.009
    4       -0.000  -0.009   0.000  -0.009
    5       -0.000  -0.009   0.000  -0.009
    6       -0.000  -0.009   0.000  -0.009
    7       -0.000  -0.009   0.000  -0.009
    8       -0.000  -0.009   0.000  -0.009
    9        0.000   0.009   0.000   0.009
   10        0.000   0.009   0.000   0.009
   11        0.000   0.009   0.000   0.009
   12        0.000   0.009   0.000   0.009
   13        0.000   0.009   0.000   0.009
   14        0.000   0.009   0.000   0.009
   15        0.000   0.009   0.000   0.009
   16        0.000   0.009   0.000   0.009
   17       -0.000  -0.009   0.000  -0.009
   18       -0.000  -0.009   0.000  -0.009
   19       -0.000  -0.009   0.000  -0.009
   20       -0.000  -0.009   0.000  -0.009
   21       -0.000  -0.009   0.000  -0.009
   22       -0.000  -0.009   0.000  -0.009
   23       -0.000  -0.009   0.000  -0.009
   24       -0.000  -0.009   0.000  -0.009
   25        0.000   0.009   0.000   0.009
   26        0.000   0.009   0.000   0.009
   27        0.000   0.009   0.000   0.009
   28        0.000   0.009   0.000   0.009
   29        0.000   0.009   0.000   0.009
   30        0.000   0.009   0.000   0.009
   31        0.000   0.009   0.000   0.009
   32        0.000   0.009   0.000   0.009
   33        0.000   0.000  -0.000   0.000
   34        0.000   0.000  -0.000   0.000
   35        0.000   0.000  -0.000   0.000
   36        0.000   0.000  -0.000   0.000
   37       -0.000  -0.000   0.000  -0.001
   38       -0.000  -0.000   0.000  -0.001
   39       -0.000  -0.000   0.000  -0.001
   40       -0.000  -0.000   0.000  -0.001
   41        0.000   0.000  -0.000   0.000
   42        0.000   0.000  -0.000   0.000
   43        0.000   0.000  -0.000   0.000
   44        0.000   0.000  -0.000   0.000
   45       -0.000  -0.000   0.000  -0.001
   46       -0.000  -0.000   0.000  -0.001
   47       -0.000  -0.000   0.000  -0.001
   48       -0.000  -0.000   0.000  -0.001
   49        0.020   0.054   3.670   3.744
   50        0.020   0.054   3.670   3.744
   51        0.020   0.054   3.670   3.744
   52        0.020   0.054   3.670   3.744
   53       -0.020  -0.054  -3.670  -3.744
   54       -0.020  -0.054  -3.670  -3.744
   55       -0.020  -0.054  -3.670  -3.744
   56       -0.020  -0.054  -3.670  -3.744
   57        0.020   0.054   3.670   3.744
   58        0.020   0.054   3.670   3.744
   59        0.020   0.054   3.670   3.744
   60        0.020   0.054   3.670   3.744
   61       -0.020  -0.054  -3.670  -3.744
   62       -0.020  -0.054  -3.670  -3.744
   63       -0.020  -0.054  -3.670  -3.744
   64       -0.020  -0.054  -3.670  -3.744
--------------------------------------------------
tot         -0.001   0.001  -0.001  -0.000
 
 BZINTS: Fermi energy:  4.939225;688.000000 electrons
         Band energy:***********;  BLOECHL correction:  0.000000

 total amount of memory used by VASP MPI-rank0   301249. kBytes
=======================================================================

   base      :      30000. kBytes
   nonl-proj :     175882. kBytes
   fftplans  :       4588. kBytes
   grid      :      69719. kBytes
   one-center:       1990. kBytes
   wavefun   :      19070. kBytes
 
  
  
 General timing and accounting informations for this job:
 ========================================================
  
                  Total CPU time used (sec):     3042.315
                            User time (sec):     3032.228
                          System time (sec):       10.088
                         Elapsed time (sec):     3065.194
  
                   Maximum memory used (kb):      663764.
                   Average memory used (kb):           0.
  
                          Minor page faults:       612105
                          Major page faults:         5500
                 Voluntary context switches:         6789
