 vasp.5.4.4.18Apr17-6-g9f103f2a35 (build Oct 30 2023 17:30:16) complex          
  
 executed on             LinuxIFC date 2024.06.26  17:43:40
 running on  256 total cores
 distrk:  each k-point on  256 cores,    1 groups
 distr:  one band on NCORES_PER_BAND=   1 cores,  256 groups


--------------------------------------------------------------------------------------------------------


 INCAR:
 POTCAR:    PAW_PBE S 06Sep2000                   
 POTCAR:     PAW_PBE Cu_pv 06Sep2000              
 POTCAR:     PAW_PBE Fe_pv 02Aug2007              

 ----------------------------------------------------------------------------- 
|                                                                             |
|           W    W    AA    RRRRR   N    N  II  N    N   GGGG   !!!           |
|           W    W   A  A   R    R  NN   N  II  NN   N  G    G  !!!           |
|           W    W  A    A  R    R  N N  N  II  N N  N  G       !!!           |
|           W WW W  AAAAAA  RRRRR   N  N N  II  N  N N  G  GGG   !            |
|           WW  WW  A    A  R   R   N   NN  II  N   NN  G    G                |
|           W    W  A    A  R    R  N    N  II  N    N   GGGG   !!!           |
|                                                                             |
|      For optimal performance we recommend to set                            |
|        NCORE= 4 - approx SQRT( number of cores)                             |
|      NCORE specifies how many cores store one orbital (NPAR=cpu/NCORE).     |
|      This setting can  greatly improve the performance of VASP for DFT.     |
|      The default,   NCORE=1            might be grossly inefficient         |
|      on modern multi-core architectures or massively parallel machines.     |
|      Do your own testing !!!!                                               |
|      Unfortunately you need to use the default for GW and RPA calculations. |
|      (for HF NCORE is supported but not extensively tested yet)             |
|                                                                             |
 ----------------------------------------------------------------------------- 

 POTCAR:    PAW_PBE S 06Sep2000                   
   SHA256 =  0fc7481fb0695f01bdc6462160264c5c84044ae9ec85a907d398b887a2bc3132 S/
   COPYR  = (c) Copyright 06Sep2000 Georg Kresse                                
   COPYR  = This file is part of the software VASP. Any use, copying, and all ot
   COPYR  = If you do not have a valid VASP license, you may not use, copy or di
   VRHFIN =S : s2p4                                                             
   LEXCH  = PE                                                                  
   EATOM  =   276.8230 eV,   20.3459 Ry                                         
                                                                                
   TITEL  = PAW_PBE S 06Sep2000                                                 
   LULTRA =        F    use ultrasoft PP ?                                      
   IUNSCR =        1    unscreen: 0-lin 1-nonlin 2-no                           
   RPACOR =    1.500    partial core radius                                     
   POMASS =   32.066; ZVAL   =    6.000    mass and valenz                      
   RCORE  =    1.900    outmost cutoff radius                                   
   RWIGS  =    2.200; RWIGS  =    1.164    wigner-seitz radius (au A)           
   ENMAX  =  258.689; ENMIN  =  194.016 eV                                      
   ICORE  =        2    local potential                                         
   LCOR   =        T    correct aug charges                                     
   LPAW   =        T    paw PP                                                  
   EAUG   =  335.092                                                            
   DEXC   =    0.000                                                            
   RMAX   =    1.942    core radius for proj-oper                               
   RAUG   =    1.300    factor for augmentation sphere                          
   RDEP   =    1.954    radius for radial grids                                 
   RDEPT  =    1.744    core radius for aug-charge                              
                                                                                
   Atomic configuration                                                         
    6 entries                                                                   
     n  l   j            E        occ.                                          
     1  0  0.50     -2405.8406   2.0000                                         
     2  0  0.50      -211.7007   2.0000                                         
     2  1  1.50      -156.4958   6.0000                                         
     3  0  0.50       -17.2562   2.0000                                         
     3  1  0.50        -7.0085   4.0000                                         
     3  2  1.50        -6.8029   0.0000                                         
   Description                                                                  
     l       E           TYP  RCUT    TYP  RCUT                                 
     0    -17.2561641     23  1.900                                             
     0    -15.8743224     23  1.900                                             
     1     -7.0085400     23  1.900                                             
     1     -2.7779785     23  1.900                                             
     2     -6.8029130     23  1.900                                             
  local pseudopotential read in
  partial core-charges read in
  partial kinetic energy density read in
  atomic valenz-charges read in
  non local Contribution for L=           0  read in
    real space projection operators read in
  non local Contribution for L=           0  read in
    real space projection operators read in
  non local Contribution for L=           1  read in
    real space projection operators read in
  non local Contribution for L=           1  read in
    real space projection operators read in
    PAW grid and wavefunctions read in
 
   number of l-projection  operators is LMAX  =           4
   number of lm-projection operators is LMMAX =           8
 
 POTCAR:     PAW_PBE Cu_pv 06Sep2000              
   SHA256 =  cb7b504e2ea725fe1f25c85a9ac77d4012ce94cd394135b722c4e25ec297f1cb Cu
   COPYR  = (c) Copyright 06Sep2000 Georg Kresse                                
   COPYR  = This file is part of the software VASP. Any use, copying, and all ot
   COPYR  = If you do not have a valid VASP license, you may not use, copy or di
   VRHFIN =Cu: d10 p1                                                           
   LEXCH  = PE                                                                  
   EATOM  =  4120.1201 eV,  302.8203 Ry                                         
                                                                                
   TITEL  = PAW_PBE Cu_pv 06Sep2000                                             
   LULTRA =        F    use ultrasoft PP ?                                      
   IUNSCR =        1    unscreen: 0-lin 1-nonlin 2-no                           
   RPACOR =    1.500    partial core radius                                     
   POMASS =   63.546; ZVAL   =   17.000    mass and valenz                      
   RCORE  =    2.000    outmost cutoff radius                                   
   RWIGS  =    2.000; RWIGS  =    1.058    wigner-seitz radius (au A)           
   ENMAX  =  368.648; ENMIN  =  276.486 eV                                      
   RCLOC  =    1.304    cutoff for local pot                                    
   LCOR   =        T    correct aug charges                                     
   LPAW   =        T    paw PP                                                  
   EAUG   =  758.233                                                            
   DEXC   =    0.000                                                            
   RMAX   =    2.046    core radius for proj-oper                               
   RAUG   =    1.300    factor for augmentation sphere                          
   RDEP   =    2.025    radius for radial grids                                 
   RDEPT  =    1.558    core radius for aug-charge                              
                                                                                
   Atomic configuration                                                         
    8 entries                                                                   
     n  l   j            E        occ.                                          
     1  0  0.50     -8850.2467   2.0000                                         
     2  0  0.50     -1062.3498   2.0000                                         
     2  1  1.50      -916.8226   6.0000                                         
     3  0  0.50      -114.6929   2.0000                                         
     3  1  1.50       -72.1325   6.0000                                         
     3  2  2.50        -5.0394  10.0000                                         
     4  0  0.50        -4.6097   1.0000                                         
     4  3  2.50        -1.3606   0.0000                                         
   Description                                                                  
     l       E           TYP  RCUT    TYP  RCUT                                 
     1    -72.1324777     23  1.700                                             
     1     -1.3605826     23  1.700                                             
     2     -5.0393776     23  2.000                                             
     2     -6.3999602     23  2.000                                             
     0     -4.6097062     23  1.800                                             
     0     14.1620818     23  1.800                                             
  local pseudopotential read in
  partial core-charges read in
  partial kinetic energy density read in
  atomic valenz-charges read in
  non local Contribution for L=           1  read in
    real space projection operators read in
  non local Contribution for L=           1  read in
    real space projection operators read in
  non local Contribution for L=           2  read in
    real space projection operators read in
  non local Contribution for L=           2  read in
    real space projection operators read in
  non local Contribution for L=           0  read in
    real space projection operators read in
  non local Contribution for L=           0  read in
    real space projection operators read in
    PAW grid and wavefunctions read in
 
   number of l-projection  operators is LMAX  =           6
   number of lm-projection operators is LMMAX =          18
 
 POTCAR:     PAW_PBE Fe_pv 02Aug2007              
   SHA256 =  5d22e414b1f82158bf2c7ecb8b97b28fd0923e48cadc1c3bf74d524558f5dd32 Fe
   COPYR  = (c) Copyright 02Aug2007 Georg Kresse                                
   COPYR  = This file is part of the software VASP. Any use, copying, and all ot
   COPYR  = If you do not have a valid VASP license, you may not use, copy or di
   VRHFIN =Fe:  3pd7s1                                                          
   LEXCH  = PE                                                                  
   EATOM  =  2457.4239 eV,  180.6156 Ry                                         
                                                                                
   TITEL  = PAW_PBE Fe_pv 02Aug2007                                             
   LULTRA =        F    use ultrasoft PP ?                                      
   IUNSCR =        1    unscreen: 0-lin 1-nonlin 2-no                           
   RPACOR =    1.750    partial core radius                                     
   POMASS =   55.847; ZVAL   =   14.000    mass and valenz                      
   RCORE  =    2.200    outmost cutoff radius                                   
   RWIGS  =    2.200; RWIGS  =    1.164    wigner-seitz radius (au A)           
   ENMAX  =  293.238; ENMIN  =  219.928 eV                                      
   ICORE  =        3    local potential                                         
   LCOR   =        T    correct aug charges                                     
   LPAW   =        T    paw PP                                                  
   EAUG   =  578.342                                                            
   DEXC   =    0.000                                                            
   RMAX   =    2.249    core radius for proj-oper                               
   RAUG   =    1.300    factor for augmentation sphere                          
   RDEP   =    2.296    radius for radial grids                                 
   RDEPT  =    1.766    core radius for aug-charge                              
                                                                                
   Atomic configuration                                                         
    8 entries                                                                   
     n  l   j            E        occ.                                          
     1  0  0.50     -6993.8440   2.0000                                         
     2  0  0.50      -814.6047   2.0000                                         
     2  1  1.50      -693.3689   6.0000                                         
     3  0  0.50       -89.4732   2.0000                                         
     3  1  1.50       -55.6373   6.0000                                         
     3  2  2.50        -3.8151   7.0000                                         
     4  0  0.50        -4.2551   1.0000                                         
     4  3  2.50        -1.3606   0.0000                                         
   Description                                                                  
     l       E           TYP  RCUT    TYP  RCUT                                 
     1    -55.6372668     23  2.000                                             
     1     -5.4423304     23  2.000                                             
     2     -3.8151096     23  2.200                                             
     2     -5.1756922     23  2.200                                             
     0     -4.2550951     23  2.200                                             
     0     27.2116520     23  2.200                                             
     3     -1.3605826     23  2.200                                             
  local pseudopotential read in
  partial core-charges read in
  partial kinetic energy density read in
  atomic valenz-charges read in
  non local Contribution for L=           1  read in
    real space projection operators read in
  non local Contribution for L=           1  read in
    real space projection operators read in
  non local Contribution for L=           2  read in
    real space projection operators read in
  non local Contribution for L=           2  read in
    real space projection operators read in
  non local Contribution for L=           0  read in
    real space projection operators read in
  non local Contribution for L=           0  read in
    real space projection operators read in
    PAW grid and wavefunctions read in
 
   number of l-projection  operators is LMAX  =           6
   number of lm-projection operators is LMMAX =          18
 

 ----------------------------------------------------------------------------- 
|                                                                             |
|  ADVICE TO THIS USER RUNNING 'VASP/VAMP'   (HEAR YOUR MASTER'S VOICE ...):  |
|                                                                             |
|      You have a (more or less) 'large supercell' and for larger cells       |
|      it might be more efficient to use real space projection opertators     |
|      So try LREAL= Auto  in the INCAR   file.                               |
|      Mind:          For very  accurate calculation you might also keep the  |
|      reciprocal projection scheme          (i.e. LREAL=.FALSE.)             |
|                                                                             |
 ----------------------------------------------------------------------------- 


 ----------------------------------------------------------------------------- 
|                                                                             |
|  ADVICE TO THIS USER RUNNING 'VASP/VAMP'   (HEAR YOUR MASTER'S VOICE ...):  |
|                                                                             |
|      You enforced a specific xc-type in the INCAR file,                     |
|      a different type was found on the POTCAR file                          |
|          I HOPE YOU KNOW, WHAT YOU ARE  DOING                               |
|                                                                             |
 ----------------------------------------------------------------------------- 

  PAW_PBE S 06Sep2000                   :
 energy of atom  1       EATOM= -276.8230
 kinetic energy error for atom=    0.0007 (will be added to EATOM!!)
   PAW_PBE Cu_pv 06Sep2000              :
 energy of atom  2       EATOM=-4120.1201
 kinetic energy error for atom=    0.0094 (will be added to EATOM!!)
   PAW_PBE Fe_pv 02Aug2007              :
 energy of atom  3       EATOM=-2457.4239
 kinetic energy error for atom=    0.0025 (will be added to EATOM!!)
 
 
 POSCAR: Fe16 Cu16 S32                           
  positions in direct lattice
  velocities in cartesian coordinates
 exchange correlation table for  LEXCH =       14
   RHO(1)=    0.500       N(1)  =     2000
   RHO(2)=  100.500       N(2)  =     4000
 


--------------------------------------------------------------------------------------------------------


 ion  position               nearest neighbor table
   1  0.126  0.125  0.122-  37 2.26  41 2.27  61 2.27  49 2.28
   2  0.626  0.125  0.122-  38 2.26  42 2.27  62 2.27  50 2.28
   3  0.126  0.625  0.122-  39 2.26  43 2.27  63 2.27  51 2.28
   4  0.626  0.625  0.122-  40 2.26  44 2.27  64 2.27  52 2.28
   5  0.374  0.375  0.122-  39 2.26  41 2.27  62 2.27  52 2.28
   6  0.874  0.375  0.122-  40 2.26  42 2.27  61 2.27  51 2.28
   7  0.374  0.875  0.122-  37 2.26  43 2.27  64 2.27  50 2.28
   8  0.874  0.875  0.122-  38 2.26  44 2.27  63 2.27  49 2.28
   9  0.125  0.374  0.872-  41 2.26  45 2.27  51 2.27  55 2.28
  10  0.625  0.374  0.872-  42 2.26  46 2.27  52 2.27  56 2.28
  11  0.125  0.874  0.872-  43 2.26  47 2.27  49 2.27  53 2.28
  12  0.625  0.874  0.872-  44 2.26  48 2.27  50 2.27  54 2.28
  13  0.375  0.126  0.872-  41 2.26  46 2.27  50 2.27  53 2.28
  14  0.875  0.126  0.872-  42 2.26  45 2.27  49 2.27  54 2.28
  15  0.375  0.626  0.872-  43 2.26  48 2.27  52 2.27  55 2.28
  16  0.875  0.626  0.872-  44 2.26  47 2.27  51 2.27  56 2.28
  17  0.124  0.125  0.622-  45 2.26  33 2.27  53 2.27  57 2.28
  18  0.624  0.125  0.622-  46 2.26  34 2.27  54 2.27  58 2.28
  19  0.124  0.625  0.622-  47 2.26  35 2.27  55 2.27  59 2.28
  20  0.624  0.625  0.622-  48 2.26  36 2.27  56 2.27  60 2.28
  21  0.376  0.375  0.622-  46 2.26  36 2.27  55 2.27  57 2.28
  22  0.876  0.375  0.622-  45 2.26  35 2.27  56 2.27  58 2.28
  23  0.376  0.875  0.622-  48 2.26  34 2.27  53 2.27  59 2.28
  24  0.876  0.875  0.622-  47 2.26  33 2.27  54 2.27  60 2.28
  25  0.375  0.124  0.372-  34 2.26  37 2.27  57 2.27  62 2.28
  26  0.875  0.124  0.372-  33 2.26  38 2.27  58 2.27  61 2.28
  27  0.375  0.624  0.372-  36 2.26  39 2.27  59 2.27  64 2.28
  28  0.875  0.624  0.372-  35 2.26  40 2.27  60 2.27  63 2.28
  29  0.125  0.376  0.372-  35 2.26  39 2.27  57 2.27  61 2.28
  30  0.625  0.376  0.372-  36 2.26  40 2.27  58 2.27  62 2.28
  31  0.125  0.876  0.372-  33 2.26  37 2.27  59 2.27  63 2.28
  32  0.625  0.876  0.372-  34 2.26  38 2.27  60 2.27  64 2.28
  33  0.000  0.000  0.502-  26 2.26  31 2.26  17 2.27  24 2.27
  34  0.500  0.000  0.502-  25 2.26  32 2.26  18 2.27  23 2.27
  35  0.000  0.500  0.502-  28 2.26  29 2.26  19 2.27  22 2.27
  36  0.500  0.500  0.502-  27 2.26  30 2.26  20 2.27  21 2.27
  37  0.250  0.000  0.252-   1 2.26   7 2.26  25 2.27  31 2.27
  38  0.750  0.000  0.252-   2 2.26   8 2.26  26 2.27  32 2.27
  39  0.250  0.500  0.252-   3 2.26   5 2.26  27 2.27  29 2.27
  40  0.750  0.500  0.252-   4 2.26   6 2.26  28 2.27  30 2.27
  41  0.250  0.250  0.002-   9 2.26  13 2.26   1 2.27   5 2.27
  42  0.750  0.250  0.002-  10 2.26  14 2.26   2 2.27   6 2.27
  43  0.250  0.750  0.002-  11 2.26  15 2.26   3 2.27   7 2.27
  44  0.750  0.750  0.002-  12 2.26  16 2.26   4 2.27   8 2.27
  45  0.000  0.250  0.752-  17 2.26  22 2.26   9 2.27  14 2.27
  46  0.500  0.250  0.752-  18 2.26  21 2.26  10 2.27  13 2.27
  47  0.000  0.750  0.752-  19 2.26  24 2.26  11 2.27  16 2.27
  48  0.500  0.750  0.752-  20 2.26  23 2.26  12 2.27  15 2.27
  49  0.000  0.000  0.003-  11 2.27  14 2.27   1 2.28   8 2.28
  50  0.500  0.000  0.003-  12 2.27  13 2.27   2 2.28   7 2.28
  51  0.000  0.500  0.003-   9 2.27  16 2.27   3 2.28   6 2.28
  52  0.500  0.500  0.003-  10 2.27  15 2.27   4 2.28   5 2.28
  53  0.250  0.000  0.753-  17 2.27  23 2.27  11 2.28  13 2.28
  54  0.750  0.000  0.753-  18 2.27  24 2.27  12 2.28  14 2.28
  55  0.250  0.500  0.753-  19 2.27  21 2.27   9 2.28  15 2.28
  56  0.750  0.500  0.753-  20 2.27  22 2.27  10 2.28  16 2.28
  57  0.250  0.250  0.503-  25 2.27  29 2.27  17 2.28  21 2.28
  58  0.750  0.250  0.503-  26 2.27  30 2.27  18 2.28  22 2.28
  59  0.250  0.750  0.503-  27 2.27  31 2.27  19 2.28  23 2.28
  60  0.750  0.750  0.503-  28 2.27  32 2.27  20 2.28  24 2.28
  61  0.000  0.250  0.253-   1 2.27   6 2.27  26 2.28  29 2.28
  62  0.500  0.250  0.253-   2 2.27   5 2.27  25 2.28  30 2.28
  63  0.000  0.750  0.253-   3 2.27   8 2.27  28 2.28  31 2.28
  64  0.500  0.750  0.253-   4 2.27   7 2.27  27 2.28  32 2.28
 
  LATTYP: Found a base centered orthorhombic cell.
 ALAT       =    14.4659523457
 B/A-ratio  =     1.0537604313
 C/A-ratio  =     0.7207330666
  
  Lattice vectors:
  
 A1 = (  10.5039300000,   0.2749570000,   0.0000000000)
 A2 = (  -0.2749570000, -10.5039300000,   0.0000000000)
 A3 = (   0.0000000000,   0.0000000000, -10.4260901959)


Analysis of symmetry for initial positions (statically):
=====================================================================
 Subroutine PRICEL returns following result:
 
  LATTYP: Found a face centered orthorhombic cell.
 ALAT       =     7.2329761729
 B/A-ratio  =     1.0537604313
 C/A-ratio  =     1.4414661333
  
  Lattice vectors:
  
 A1 = (  -2.6947217500,  -2.6947217500,   5.2130450979)
 A2 = (  -2.5572432500,   2.5572432500,   5.2130450979)
 A3 = (  -5.2519650000,  -0.1374785000,  -0.0000000000)
 
   8 primitive cells build up your supercell.
 

 Routine SETGRP: Setting up the symmetry group for a 
 base centered orthorhombic supercell.


 Subroutine GETGRP returns: Found  4 space group operations
 (whereof  2 operations were pure point group operations)
 out of a pool of  8 trial point group operations.


The static configuration has the point symmetry C_2 .
 The point group associated with its full space group is C_2v.


Analysis of symmetry for dynamics (positions and initial velocities):
=====================================================================
 Subroutine PRICEL returns following result:
 
  LATTYP: Found a face centered orthorhombic cell.
 ALAT       =     7.2329761729
 B/A-ratio  =     1.0537604313
 C/A-ratio  =     1.4414661333
  
  Lattice vectors:
  
 A1 = (  -2.6947217500,  -2.6947217500,   5.2130450979)
 A2 = (  -2.5572432500,   2.5572432500,   5.2130450979)
 A3 = (  -5.2519650000,  -0.1374785000,  -0.0000000000)
 
   8 primitive cells build up your supercell.
 

 Routine SETGRP: Setting up the symmetry group for a 
 base centered orthorhombic supercell.


 Subroutine GETGRP returns: Found  4 space group operations
 (whereof  2 operations were pure point group operations)
 out of a pool of  8 trial point group operations.


The dynamic configuration has the point symmetry C_2 .
 The point group associated with its full space group is C_2v.


Analysis of structural, dynamic, and magnetic symmetry:
=====================================================================
 Subroutine PRICEL returns following result:
 
  LATTYP: Found a face centered orthorhombic cell.
 ALAT       =     7.2329761729
 B/A-ratio  =     1.0537604313
 C/A-ratio  =     1.4414661333
  
  Lattice vectors:
  
 A1 = (  -2.6947217500,  -2.6947217500,   5.2130450979)
 A2 = (  -2.5572432500,   2.5572432500,   5.2130450979)
 A3 = (  -5.2519650000,  -0.1374785000,  -0.0000000000)
 
   8 primitive cells build up your supercell.
 

 Routine SETGRP: Setting up the symmetry group for a 
 base centered orthorhombic supercell.


 Subroutine GETGRP returns: Found  4 space group operations
 (whereof  2 operations were pure point group operations)
 out of a pool of  8 trial point group operations.


The magnetic configuration has the point symmetry C_2 .
 The point group associated with its full space group is C_2v.


 Subroutine INISYM returns: Found  4 space group operations
 (whereof  2 operations are pure point group operations),
 and found     8 'primitive' translations

 
 
 KPOINTS: Automatic mesh                          

Automatic generation of k-mesh.
Space group operators:
 irot       det(A)        alpha          n_x          n_y          n_z        tau_x        tau_y        tau_z
    1     1.000000     0.000000     1.000000     0.000000     0.000000     0.000000     0.000000     0.000000
    2     1.000000   180.000000     0.000000     0.000000     1.000000     0.000000     0.000000     0.000000
    3    -1.000000   180.000000     0.707107     0.707107     0.000000    -0.750000    -0.000000     0.750000
    4    -1.000000   180.000000     0.707107    -0.707107     0.000000    -0.750000    -0.000000     0.750000
 
 Subroutine IBZKPT returns following result:
 ===========================================
 
 Found     21 irreducible k-points:
 
 Following reciprocal coordinates:
            Coordinates               Weight
  0.000000  0.000000  0.000000      1.000000
  0.250000  0.000000  0.000000      4.000000
  0.500000  0.000000  0.000000      2.000000
  0.250000  0.250000  0.000000      2.000000
  0.500000  0.250000  0.000000      4.000000
 -0.250000  0.250000  0.000000      2.000000
  0.500000  0.500000  0.000000      1.000000
  0.000000  0.000000  0.250000      2.000000
  0.250000  0.000000  0.250000      8.000000
  0.500000  0.000000  0.250000      4.000000
  0.250000  0.250000  0.250000      4.000000
  0.500000  0.250000  0.250000      8.000000
 -0.250000  0.250000  0.250000      4.000000
  0.500000  0.500000  0.250000      2.000000
  0.000000  0.000000  0.500000      1.000000
  0.250000  0.000000  0.500000      4.000000
  0.500000  0.000000  0.500000      2.000000
  0.250000  0.250000  0.500000      2.000000
  0.500000  0.250000  0.500000      4.000000
 -0.250000  0.250000  0.500000      2.000000
  0.500000  0.500000  0.500000      1.000000
 
 Following cartesian coordinates:
            Coordinates               Weight
  0.000000  0.000000  0.000000      1.000000
  0.023817 -0.000623  0.000000      4.000000
  0.047634 -0.001247  0.000000      2.000000
  0.023193  0.023193  0.000000      2.000000
  0.047010  0.022570  0.000000      4.000000
 -0.024440  0.024440  0.000000      2.000000
  0.046387  0.046387  0.000000      1.000000
  0.000000  0.000000  0.023978      2.000000
  0.023817 -0.000623  0.023978      8.000000
  0.047634 -0.001247  0.023978      4.000000
  0.023193  0.023193  0.023978      4.000000
  0.047010  0.022570  0.023978      8.000000
 -0.024440  0.024440  0.023978      4.000000
  0.046387  0.046387  0.023978      2.000000
  0.000000  0.000000  0.047957      1.000000
  0.023817 -0.000623  0.047957      4.000000
  0.047634 -0.001247  0.047957      2.000000
  0.023193  0.023193  0.047957      2.000000
  0.047010  0.022570  0.047957      4.000000
 -0.024440  0.024440  0.047957      2.000000
  0.046387  0.046387  0.047957      1.000000
 
 TETIRR: Found     96 inequivalent tetrahedra from      384
 
 Subroutine IBZKPT_HF returns following result:
 ==============================================
 
 Found     64 k-points in 1st BZ
 the following     64 k-points will be used (e.g. in the exchange kernel)
 Following reciprocal coordinates:   # in IRBZ
  0.000000  0.000000  0.000000    0.01562500   1 t-inv F
  0.250000  0.000000  0.000000    0.01562500   2 t-inv F
  0.500000  0.000000  0.000000    0.01562500   3 t-inv F
  0.250000  0.250000  0.000000    0.01562500   4 t-inv F
  0.500000  0.250000  0.000000    0.01562500   5 t-inv F
 -0.250000  0.250000  0.000000    0.01562500   6 t-inv F
  0.500000  0.500000  0.000000    0.01562500   7 t-inv F
  0.000000  0.000000  0.250000    0.01562500   8 t-inv F
  0.250000  0.000000  0.250000    0.01562500   9 t-inv F
  0.500000  0.000000  0.250000    0.01562500  10 t-inv F
  0.250000  0.250000  0.250000    0.01562500  11 t-inv F
  0.500000  0.250000  0.250000    0.01562500  12 t-inv F
 -0.250000  0.250000  0.250000    0.01562500  13 t-inv F
  0.500000  0.500000  0.250000    0.01562500  14 t-inv F
  0.000000  0.000000  0.500000    0.01562500  15 t-inv F
  0.250000  0.000000  0.500000    0.01562500  16 t-inv F
  0.500000  0.000000  0.500000    0.01562500  17 t-inv F
  0.250000  0.250000  0.500000    0.01562500  18 t-inv F
  0.500000  0.250000  0.500000    0.01562500  19 t-inv F
 -0.250000  0.250000  0.500000    0.01562500  20 t-inv F
  0.500000  0.500000  0.500000    0.01562500  21 t-inv F
 -0.250000  0.000000  0.000000    0.01562500   2 t-inv F
  0.000000 -0.250000  0.000000    0.01562500   2 t-inv F spinflp
  0.000000  0.250000  0.000000    0.01562500   2 t-inv F spinflp
  0.000000 -0.500000  0.000000    0.01562500   3 t-inv F spinflp
 -0.250000 -0.250000  0.000000    0.01562500   4 t-inv F
 -0.500000 -0.250000  0.000000    0.01562500   5 t-inv F
 -0.250000 -0.500000  0.000000    0.01562500   5 t-inv F spinflp
  0.250000  0.500000  0.000000    0.01562500   5 t-inv F spinflp
  0.250000 -0.250000  0.000000    0.01562500   6 t-inv F
 -0.250000  0.000000  0.250000    0.01562500   9 t-inv F
  0.000000 -0.250000  0.250000    0.01562500   9 t-inv F spinflp
  0.000000  0.250000  0.250000    0.01562500   9 t-inv F spinflp
  0.000000 -0.500000  0.250000    0.01562500  10 t-inv F spinflp
 -0.250000 -0.250000  0.250000    0.01562500  11 t-inv F
 -0.500000 -0.250000  0.250000    0.01562500  12 t-inv F
 -0.250000 -0.500000  0.250000    0.01562500  12 t-inv F spinflp
  0.250000  0.500000  0.250000    0.01562500  12 t-inv F spinflp
  0.250000 -0.250000  0.250000    0.01562500  13 t-inv F
 -0.250000  0.000000  0.500000    0.01562500  16 t-inv F
  0.000000 -0.250000  0.500000    0.01562500  16 t-inv F spinflp
  0.000000  0.250000  0.500000    0.01562500  16 t-inv F spinflp
  0.000000 -0.500000  0.500000    0.01562500  17 t-inv F spinflp
 -0.250000 -0.250000  0.500000    0.01562500  18 t-inv F
 -0.500000 -0.250000  0.500000    0.01562500  19 t-inv F
 -0.250000 -0.500000  0.500000    0.01562500  19 t-inv F spinflp
  0.250000  0.500000  0.500000    0.01562500  19 t-inv F spinflp
  0.250000 -0.250000  0.500000    0.01562500  20 t-inv F
  0.000000  0.000000 -0.250000    0.01562500   8 t-inv T
 -0.250000  0.000000 -0.250000    0.01562500   9 t-inv T
  0.250000  0.000000 -0.250000    0.01562500   9 t-inv T
  0.000000  0.250000 -0.250000    0.01562500   9 t-inv T spinflp
  0.000000 -0.250000 -0.250000    0.01562500   9 t-inv T spinflp
 -0.500000  0.000000 -0.250000    0.01562500  10 t-inv T
  0.000000  0.500000 -0.250000    0.01562500  10 t-inv T spinflp
 -0.250000 -0.250000 -0.250000    0.01562500  11 t-inv T
  0.250000  0.250000 -0.250000    0.01562500  11 t-inv T
 -0.500000 -0.250000 -0.250000    0.01562500  12 t-inv T
  0.500000  0.250000 -0.250000    0.01562500  12 t-inv T
  0.250000  0.500000 -0.250000    0.01562500  12 t-inv T spinflp
 -0.250000 -0.500000 -0.250000    0.01562500  12 t-inv T spinflp
  0.250000 -0.250000 -0.250000    0.01562500  13 t-inv T
 -0.250000  0.250000 -0.250000    0.01562500  13 t-inv T
 -0.500000 -0.500000 -0.250000    0.01562500  14 t-inv T


--------------------------------------------------------------------------------------------------------




 Dimension of arrays:
   k-points           NKPTS =     21   k-points in BZ     NKDIM =     21   number of bands    NBANDS=    512
   number of dos      NEDOS =    301   number of ions     NIONS =     64
   non local maximal  LDIM  =      6   non local SUM 2l+1 LMDIM =     18
   total plane-waves  NPLWV = 829440
   max r-space proj   IRMAX =      1   max aug-charges    IRDMAX=  22929
   dimension x,y,z NGX =    96 NGY =   96 NGZ =   90
   dimension x,y,z NGXF=   192 NGYF=  192 NGZF=  180
   support grid    NGXF=   192 NGYF=  192 NGZF=  180
   ions per type =              32  16  16
   NGX,Y,Z   is equivalent  to a cutoff of  15.19, 15.19, 14.35 a.u.
   NGXF,Y,Z  is equivalent  to a cutoff of  30.38, 30.38, 28.70 a.u.

 SYSTEM =  CuFeS2                                  
 POSCAR =  Fe16 Cu16 S32                           

 Startparameter for this run:
   NWRITE =      2    write-flag & timer
   PREC   = accura    normal or accurate (medium, high low for compatibility)
   ISTART =      1    job   : 0-new  1-cont  2-samecut
   ICHARG =      1    charge: 1-file 2-atom 10-const
   ISPIN  =      2    spin polarized calculation?
   LNONCOLLINEAR =      F non collinear calculations
   LSORBIT =      F    spin-orbit coupling
   INIWAV =      1    electr: 0-lowe 1-rand  2-diag
   LASPH  =      F    aspherical Exc in radial PAW
   METAGGA=      F    non-selfconsistent MetaGGA calc.

 Electronic Relaxation 1
   ENCUT  =  700.0 eV  51.45 Ry    7.17 a.u.  22.67 22.67 22.49*2*pi/ulx,y,z
   ENINI  =  700.0     initial cutoff
   ENAUG  =  758.2 eV  augmentation charge cutoff
   NELM   =    500;   NELMIN=  2; NELMDL=  0     # of ELM steps 
   EDIFF  = 0.1E-07   stopping-criterion for ELM
   LREAL  =      F    real-space projection
   NLSPLINE    = F    spline interpolate recip. space projectors
   LCOMPAT=      F    compatible to vasp.4.4
   GGA_COMPAT  = T    GGA compatible to vasp.4.4-vasp.4.6
   LMAXPAW     = -100 max onsite density
   LMAXMIX     =    4 max onsite mixed and CHGCAR
   VOSKOWN=      0    Vosko Wilk Nusair interpolation
   ROPT   =    0.00000   0.00000   0.00000
 Ionic relaxation
   EDIFFG = -.1E-04   stopping-criterion for IOM
   NSW    =      0    number of steps for IOM
   NBLOCK =      1;   KBLOCK =      1    inner block; outer block 
   IBRION =     -1    ionic relax: 0-MD 1-quasi-New 2-CG
   NFREE  =      0    steps in history (QN), initial steepest desc. (CG)
   ISIF   =      2    stress and relaxation
   IWAVPR =     10    prediction:  0-non 1-charg 2-wave 3-comb
   ISYM   =      2    0-nonsym 1-usesym 2-fastsym
   LCORR  =      T    Harris-Foulkes like correction to forces

   POTIM  = 0.5000    time-step for ionic-motion
   TEIN   =    0.0    initial temperature
   TEBEG  =    0.0;   TEEND  =   0.0 temperature during run
   SMASS  =  -3.00    Nose mass-parameter (am)
   estimated Nose-frequenzy (Omega)   =  0.10E-29 period in steps =****** mass=  -0.252E-26a.u.
   SCALEE = 1.0000    scale energy and forces
   NPACO  =    256;   APACO  = 16.0  distance and # of slots for P.C.
   PSTRESS=    0.0 pullay stress

  Mass of Ions in am
   POMASS =  32.07 63.55 55.85
  Ionic Valenz
   ZVAL   =   6.00 17.00 14.00
  Atomic Wigner-Seitz radii
   RWIGS  =  -1.00 -1.00 -1.00
  virtual crystal weights 
   VCA    =   1.00  1.00  1.00
   NELECT =     688.0000    total number of electrons
   NUPDOWN=      -1.0000    fix difference up-down

 DOS related values:
   EMIN   =  10.00;   EMAX   =-10.00  energy-range for DOS
   EFERMI =   0.00
   ISMEAR =    -5;   SIGMA  =   0.03  broadening in eV -4-tet -1-fermi 0-gaus

 Electronic relaxation 2 (details)
   IALGO  =     38    algorithm
   LDIAG  =      T    sub-space diagonalisation (order eigenvalues)
   LSUBROT=      F    optimize rotation matrix (better conditioning)
   TURBO    =      0    0=normal 1=particle mesh
   IRESTART =      0    0=no restart 2=restart with 2 vectors
   NREBOOT  =      0    no. of reboots
   NMIN     =      0    reboot dimension
   EREF     =   0.00    reference energy to select bands
   IMIX   =      4    mixing-type and parameters
     AMIX     =   0.40;   BMIX     =  1.00
     AMIX_MAG =   1.60;   BMIX_MAG =  1.00
     AMIN     =   0.10
     WC   =   100.;   INIMIX=   1;  MIXPRE=   1;  MAXMIX= -45

 Intra band minimization:
   WEIMIN = 0.0000     energy-eigenvalue tresh-hold
   EBREAK =  0.49E-11  absolut break condition
   DEPER  =   0.30     relativ break condition  

   TIME   =   0.40     timestep for ELM

  volume/ion in A,a.u.               =      17.96       121.21
  Fermi-wavevector in a.u.,A,eV,Ry     =   1.379627  2.607118 25.896948  1.903372
  Thomas-Fermi vector in A             =   2.504579
 
 Write flags
   LWAVE        =      T    write WAVECAR
   LDOWNSAMPLE  =      F    k-point downsampling of WAVECAR
   LCHARG       =      T    write CHGCAR
   LVTOT        =      F    write LOCPOT, total local potential
   LVHAR        =      F    write LOCPOT, Hartree potential only
   LELF         =      F    write electronic localiz. function (ELF)
   LORBIT       =     11    0 simple, 1 ext, 2 COOP (PROOUT), +10 PAW based schemes


 Dipole corrections
   LMONO  =      F    monopole corrections only (constant potential shift)
   LDIPOL =      F    correct potential (dipole corrections)
   IDIPOL =      0    1-x, 2-y, 3-z, 4-all directions 
   EPSILON=  1.0000000 bulk dielectric constant

 LDA+U is selected, type is set to LDAUTYPE =  2
   angular momentum for each species LDAUL =     2    2    2
   U (eV)           for each species LDAUU =   0.0  0.1  4.7
   J (eV)           for each species LDAUJ =   0.0  0.0  0.0
 Exchange correlation treatment:
   GGA     =    PS    GGA type
   LEXCH   =    14    internal setting for exchange type
   VOSKOWN=      0    Vosko Wilk Nusair interpolation
   LHFCALC =     F    Hartree Fock is set to
   LHFONE  =     F    Hartree Fock one center treatment
   AEXX    =    0.0000 exact exchange contribution

 Linear response parameters
   LEPSILON=     F    determine dielectric tensor
   LRPA    =     F    only Hartree local field effects (RPA)
   LNABLA  =     F    use nabla operator in PAW spheres
   LVEL    =     F    velocity operator in full k-point grid
   LINTERFAST=   F  fast interpolation
   KINTER  =     0    interpolate to denser k-point grid
   CSHIFT  =0.1000    complex shift for real part using Kramers Kronig
   OMEGAMAX=  -1.0    maximum frequency
   DEG_THRESHOLD= 0.2000000E-02 threshold for treating states as degnerate
   RTIME   =   -0.100 relaxation time in fs
  (WPLASMAI=    0.000 imaginary part of plasma frequency in eV, 0.658/RTIME)
   DFIELD  = 0.0000000 0.0000000 0.0000000 field for delta impulse in time
 
 Orbital magnetization related:
   ORBITALMAG=     F  switch on orbital magnetization
   LCHIMAG   =     F  perturbation theory with respect to B field
   DQ        =  0.001000  dq finite difference perturbation B field
   LLRAUG    =     F  two centre corrections for induced B field

 PEAD related settings:
   LPEAD      =     T    switch on PEAD
   IPEAD      =     4    finite difference order for dpsi/dk
   LCALCPOL   =     T    calculate macroscopic polarization
   LCALCEPS   =     F    calculate dielectric tensor
   EFIELD_PEAD=    0.0000    0.0000    0.0000
   SKIP_EDOTP =     F
   LRPA       =     F
   SKIP_SCF   =     F


--------------------------------------------------------------------------------------------------------


 Static calculation
 charge density and potential will be updated during run
 spin polarized calculation
 Variant of blocked Davidson
 Davidson routine will perform the subspace rotation
 perform sub-space diagonalisation
    after iterative eigenvector-optimisation
 modified Broyden-mixing scheme, WC =      100.0
 initial mixing is a Kerker type mixing with AMIX =  0.4000 and BMIX =      1.0000
 Hartree-type preconditioning will be used
 using additional bands          168
 reciprocal scheme for non local part
 use partial core corrections
 calculate Harris-corrections to forces 
   (improved forces if not selfconsistent)
 use gradient corrections 
 use of overlap-Matrix (Vanderbilt PP)
 Fermi weights with tetrahedron method with Bloechl corrections


--------------------------------------------------------------------------------------------------------


  energy-cutoff  :      700.00
  volume of cell :     1149.55
      direct lattice vectors                 reciprocal lattice vectors
    10.503930000  0.274957000  0.000000000     0.095267741 -0.002493784  0.000000000
     0.274957000 10.503930000  0.000000000    -0.002493784  0.095267741  0.000000000
     0.000000000  0.000000000 10.426090196     0.000000000  0.000000000  0.095913231

  length of vectors
    10.507528101 10.507528101 10.426090196     0.095300375  0.095300375  0.095913231


 
 old parameters found on file WAVECAR:
  energy-cutoff  :      700.00
  volume of cell :     1149.55
      direct lattice vectors                 reciprocal lattice vectors
    10.503930000  0.274957000  0.000000000     0.095267741 -0.002493784  0.000000000
     0.274957000 10.503930000  0.000000000    -0.002493784  0.095267741  0.000000000
     0.000000000  0.000000000 10.426077573     0.000000000  0.000000000  0.095913347

  length of vectors

 
 k-points in units of 2pi/SCALE and weight: Automatic mesh                          
   0.00000000  0.00000000  0.00000000       0.016
   0.02381694 -0.00062345  0.00000000       0.062
   0.04763387 -0.00124689  0.00000000       0.031
   0.02319349  0.02319349  0.00000000       0.031
   0.04701042  0.02257004  0.00000000       0.062
  -0.02444038  0.02444038  0.00000000       0.031
   0.04638698  0.04638698  0.00000000       0.016
   0.00000000  0.00000000  0.02397831       0.031
   0.02381694 -0.00062345  0.02397831       0.125
   0.04763387 -0.00124689  0.02397831       0.062
   0.02319349  0.02319349  0.02397831       0.062
   0.04701042  0.02257004  0.02397831       0.125
  -0.02444038  0.02444038  0.02397831       0.062
   0.04638698  0.04638698  0.02397831       0.031
   0.00000000  0.00000000  0.04795662       0.016
   0.02381694 -0.00062345  0.04795662       0.062
   0.04763387 -0.00124689  0.04795662       0.031
   0.02319349  0.02319349  0.04795662       0.031
   0.04701042  0.02257004  0.04795662       0.062
  -0.02444038  0.02444038  0.04795662       0.031
   0.04638698  0.04638698  0.04795662       0.016
 
 k-points in reciprocal lattice and weights: Automatic mesh                          
   0.00000000  0.00000000  0.00000000       0.016
   0.25000000  0.00000000  0.00000000       0.062
   0.50000000  0.00000000  0.00000000       0.031
   0.25000000  0.25000000  0.00000000       0.031
   0.50000000  0.25000000  0.00000000       0.062
  -0.25000000  0.25000000  0.00000000       0.031
   0.50000000  0.50000000  0.00000000       0.016
   0.00000000  0.00000000  0.25000000       0.031
   0.25000000  0.00000000  0.25000000       0.125
   0.50000000  0.00000000  0.25000000       0.062
   0.25000000  0.25000000  0.25000000       0.062
   0.50000000  0.25000000  0.25000000       0.125
  -0.25000000  0.25000000  0.25000000       0.062
   0.50000000  0.50000000  0.25000000       0.031
   0.00000000  0.00000000  0.50000000       0.016
   0.25000000  0.00000000  0.50000000       0.062
   0.50000000  0.00000000  0.50000000       0.031
   0.25000000  0.25000000  0.50000000       0.031
   0.50000000  0.25000000  0.50000000       0.062
  -0.25000000  0.25000000  0.50000000       0.031
   0.50000000  0.50000000  0.50000000       0.016
 
 position of ions in fractional coordinates (direct lattice) 
   0.12613968  0.12533329  0.12208046
   0.62613968  0.12533329  0.12208046
   0.12613968  0.62533329  0.12208046
   0.62613968  0.62533329  0.12208046
   0.37386032  0.37466671  0.12208046
   0.87386032  0.37466671  0.12208046
   0.37386032  0.87466671  0.12208046
   0.87386032  0.87466671  0.12208046
   0.12466671  0.37386032  0.87208046
   0.62466671  0.37386032  0.87208046
   0.12466671  0.87386032  0.87208046
   0.62466671  0.87386032  0.87208046
   0.37533329  0.12613968  0.87208046
   0.87533329  0.12613968  0.87208046
   0.37533329  0.62613968  0.87208046
   0.87533329  0.62613968  0.87208046
   0.12386032  0.12466671  0.62208046
   0.62386032  0.12466671  0.62208046
   0.12386032  0.62466671  0.62208046
   0.62386032  0.62466671  0.62208046
   0.37613968  0.37533329  0.62208046
   0.87613968  0.37533329  0.62208046
   0.37613968  0.87533329  0.62208046
   0.87613968  0.87533329  0.62208046
   0.37466671  0.12386032  0.37208046
   0.87466671  0.12386032  0.37208046
   0.37466671  0.62386032  0.37208046
   0.87466671  0.62386032  0.37208046
   0.12533329  0.37613968  0.37208046
   0.62533329  0.37613968  0.37208046
   0.12533329  0.87613968  0.37208046
   0.62533329  0.87613968  0.37208046
   0.00000000  0.00000000  0.50248684
   0.50000000  0.00000000  0.50248684
   0.00000000  0.50000000  0.50248684
   0.50000000  0.50000000  0.50248684
   0.25000000  0.00000000  0.25248684
   0.75000000  0.00000000  0.25248684
   0.25000000  0.50000000  0.25248684
   0.75000000  0.50000000  0.25248684
   0.25000000  0.25000000  0.00248684
   0.75000000  0.25000000  0.00248684
   0.25000000  0.75000000  0.00248684
   0.75000000  0.75000000  0.00248684
   0.00000000  0.25000000  0.75248684
   0.50000000  0.25000000  0.75248684
   0.00000000  0.75000000  0.75248684
   0.50000000  0.75000000  0.75248684
   0.00000000  0.00000000  0.00335223
   0.50000000  0.00000000  0.00335223
   0.00000000  0.50000000  0.00335223
   0.50000000  0.50000000  0.00335223
   0.25000000  0.00000000  0.75335223
   0.75000000  0.00000000  0.75335223
   0.25000000  0.50000000  0.75335223
   0.75000000  0.50000000  0.75335223
   0.25000000  0.25000000  0.50335223
   0.75000000  0.25000000  0.50335223
   0.25000000  0.75000000  0.50335223
   0.75000000  0.75000000  0.50335223
   0.00000000  0.25000000  0.25335223
   0.50000000  0.25000000  0.25335223
   0.00000000  0.75000000  0.25335223
   0.50000000  0.75000000  0.25335223
 
 position of ions in cartesian coordinates  (Angst):
   1.35942361  1.35117514  1.27282191
   6.61138861  1.48865364  1.27282191
   1.49690211  6.60314014  1.27282191
   6.74886711  6.74061864  1.27282191
   4.03001989  4.03826836  1.27282191
   9.28198489  4.17574686  1.27282191
   4.16749839  9.29023336  1.27282191
   9.41946339  9.42771186  1.27282191
   1.41228586  3.96128064  9.09238956
   6.66425086  4.09875914  9.09238956
   1.54976436  9.21324564  9.09238956
   6.80172936  9.35072414  9.09238956
   3.97715764  1.42816286  9.09238956
   9.22912264  1.56564136  9.09238956
   4.11463614  6.68012786  9.09238956
   9.36660114  6.81760636  9.09238956
   1.33529814  1.34354661  6.48586701
   6.58726314  1.48102511  6.48586701
   1.47277664  6.59551161  6.48586701
   6.72474164  6.73299011  6.48586701
   4.05414536  4.04589689  6.48586701
   9.30611036  4.18337539  6.48586701
   4.19162386  9.29786189  6.48586701
   9.44358886  9.43534039  6.48586701
   3.96952911  1.40403739  3.87934446
   9.22149411  1.54151589  3.87934446
   4.10700761  6.65600239  3.87934446
   9.35897261  6.79348089  3.87934446
   1.41991439  3.98540611  3.87934446
   6.67187939  4.12288461  3.87934446
   1.55739289  9.23737111  3.87934446
   6.80935789  9.37484961  3.87934446
   0.00000000  0.00000000  5.23897314
   5.25196500  0.13747850  5.23897314
   0.13747850  5.25196500  5.23897314
   5.38944350  5.38944350  5.23897314
   2.62598250  0.06873925  2.63245059
   7.87794750  0.20621775  2.63245059
   2.76346100  5.32070425  2.63245059
   8.01542600  5.45818275  2.63245059
   2.69472175  2.69472175  0.02592804
   7.94668675  2.83220025  0.02592804
   2.83220025  7.94668675  0.02592804
   8.08416525  8.08416525  0.02592804
   0.06873925  2.62598250  7.84549569
   5.32070425  2.76346100  7.84549569
   0.20621775  7.87794750  7.84549569
   5.45818275  8.01542600  7.84549569
   0.00000000  0.00000000  0.03495068
   5.25196500  0.13747850  0.03495068
   0.13747850  5.25196500  0.03495068
   5.38944350  5.38944350  0.03495068
   2.62598250  0.06873925  7.85451833
   7.87794750  0.20621775  7.85451833
   2.76346100  5.32070425  7.85451833
   8.01542600  5.45818275  7.85451833
   2.69472175  2.69472175  5.24799578
   7.94668675  2.83220025  5.24799578
   2.83220025  7.94668675  5.24799578
   8.08416525  8.08416525  5.24799578
   0.06873925  2.62598250  2.64147323
   5.32070425  2.76346100  2.64147323
   0.20621775  7.87794750  2.64147323
   5.45818275  8.01542600  2.64147323
 


--------------------------------------------------------------------------------------------------------


 k-point  1 :   0.0000 0.0000 0.0000  plane waves:   48387
 k-point  2 :   0.2500 0.0000 0.0000  plane waves:   48334
 k-point  3 :   0.5000 0.0000 0.0000  plane waves:   48364
 k-point  4 :   0.2500 0.2500 0.0000  plane waves:   48399
 k-point  5 :   0.5000 0.2500 0.0000  plane waves:   48349
 k-point  6 :  -0.2500 0.2500 0.0000  plane waves:   48345
 k-point  7 :   0.5000 0.5000 0.0000  plane waves:   48316
 k-point  8 :   0.0000 0.0000 0.2500  plane waves:   48365
 k-point  9 :   0.2500 0.0000 0.2500  plane waves:   48333
 k-point 10 :   0.5000 0.0000 0.2500  plane waves:   48394
 k-point 11 :   0.2500 0.2500 0.2500  plane waves:   48337
 k-point 12 :   0.5000 0.2500 0.2500  plane waves:   48354
 k-point 13 :  -0.2500 0.2500 0.2500  plane waves:   48338
 k-point 14 :   0.5000 0.5000 0.2500  plane waves:   48332
 k-point 15 :   0.0000 0.0000 0.5000  plane waves:   48368
 k-point 16 :   0.2500 0.0000 0.5000  plane waves:   48356
 k-point 17 :   0.5000 0.0000 0.5000  plane waves:   48276
 k-point 18 :   0.2500 0.2500 0.5000  plane waves:   48292
 k-point 19 :   0.5000 0.2500 0.5000  plane waves:   48288
 k-point 20 :  -0.2500 0.2500 0.5000  plane waves:   48362
 k-point 21 :   0.5000 0.5000 0.5000  plane waves:   48272

 maximum and minimum number of plane-waves per node :     48399    48272

 maximum number of plane-waves:     48399
 maximum index in each direction: 
   IXMAX=   22   IYMAX=   22   IZMAX=   22
   IXMIN=  -23   IYMIN=  -23   IZMIN=  -22


 serial   3D FFT for wavefunctions
 parallel 3D FFT for charge:
    minimum data exchange during FFTs selected (reduces bandwidth)


 total amount of memory used by VASP MPI-rank0   664114. kBytes
=======================================================================

   base      :      30000. kBytes
   nonl-proj :     491069. kBytes
   fftplans  :       4588. kBytes
   grid      :      69719. kBytes
   one-center:       1990. kBytes
   wavefun   :      66748. kBytes
 
     INWAV:  cpu time   42.4499: real time   42.6844
 Broyden mixing: mesh for mixing (old mesh)
   NGX = 45   NGY = 45   NGZ = 45
  (NGX  =192   NGY  =192   NGZ  =180)
  gives a total of  91125 points

 initial charge density was supplied:
 number of electron     688.0000275 magnetization       0.0000000
 keeping initial charge density in first step


--------------------------------------------------------------------------------------------------------


 Maximum index for augmentation-charges          893 (set IRDMAX)


--------------------------------------------------------------------------------------------------------


 First call to EWALD:  gamma=   0.169
 Maximum number of real-space cells 3x 3x 3
 Maximum number of reciprocal cells 3x 3x 3

    FEWALD:  cpu time    0.0026: real time    0.0026


--------------------------------------- Iteration      1(   1)  ---------------------------------------


    POTLOK:  cpu time    0.3186: real time    0.3713
    SETDIJ:  cpu time    0.0145: real time    0.0146
     EDDAV:  cpu time  473.5831: real time  476.9196
 BZINTS: Fermi energy:  5.064173;688.000000 electrons
         Band energy:***********;  BLOECHL correction:  0.000000
       DOS:  cpu time    0.0240: real time    0.0241
    CHARGE:  cpu time    2.9394: real time    2.9621
    MIXING:  cpu time    0.0028: real time    0.0028
    --------------------------------------------
      LOOP:  cpu time  476.8824: real time  480.2945

 eigenvalue-minimisations  : 63488
 total energy-change (2. order) :-0.3278345E+03  (-0.1412127E-05)
 number of electron     688.0000275 magnetization       0.0000000
 augmentation part      282.2241881 magnetization       0.0000000

 Broyden mixing:
  rms(total) = 0.51357E-03    rms(broyden)= 0.51356E-03
  rms(prec ) = 0.63686E-03
  weight for this iteration     100.00

 Free energy of the ion-electron system (eV)
  ---------------------------------------------------
  alpha Z        PSCENC =      2358.44745478
  Ewald energy   TEWEN  =    -62500.76766251
  -Hartree energ DENC   =    -42931.92921036
  -exchange      EXHF   =         0.00000000
  -V(xc)+E(xc)   XCENC  =      3286.50822944
  PAW double counting   =    112261.19576605  -115954.87460984
  entropy T*S    EENTRO =         0.00000000
  eigenvalues    EBANDS =    -10866.47959471
  atomic energy  EATOM  =    114020.06510763
  Solvation  Ediel_sol  =         0.00000000
  ---------------------------------------------------
  free energy    TOTEN  =      -327.83451951 eV

  energy without entropy =     -327.83451951  energy(sigma->0) =     -327.83451951


--------------------------------------------------------------------------------------------------------




--------------------------------------- Iteration      1(   2)  ---------------------------------------


    POTLOK:  cpu time    0.1412: real time    0.1449
    SETDIJ:  cpu time    0.0132: real time    0.0132
     EDDAV:  cpu time  280.1653: real time  282.1693
 BZINTS: Fermi energy:  4.988845;688.000000 electrons
         Band energy:***********;  BLOECHL correction:  0.000000
       DOS:  cpu time    0.0235: real time    0.0235
    CHARGE:  cpu time    2.9359: real time    2.9586
    MIXING:  cpu time    0.0019: real time    0.0131
    --------------------------------------------
      LOOP:  cpu time  283.2810: real time  285.3226

 eigenvalue-minimisations  : 47360
 total energy-change (2. order) : 0.2627930E-06  (-0.4413318E-06)
 number of electron     688.0000275 magnetization       0.0000000
 augmentation part      282.2247170 magnetization       0.0000000

 Broyden mixing:
  rms(total) = 0.73638E-03    rms(broyden)= 0.73636E-03
  rms(prec ) = 0.86550E-03
  weight for this iteration     100.00

 eigenvalues of (default mixing * dielectric matrix)
  average eigenvalue GAMMA=   0.2805
  0.2805

 Free energy of the ion-electron system (eV)
  ---------------------------------------------------
  alpha Z        PSCENC =      2358.44745478
  Ewald energy   TEWEN  =    -62500.76766251
  -Hartree energ DENC   =    -42931.93356439
  -exchange      EXHF   =         0.00000000
  -V(xc)+E(xc)   XCENC  =      3286.50904772
  PAW double counting   =    112261.15600022  -115954.83307778
  entropy T*S    EENTRO =         0.00000000
  eigenvalues    EBANDS =    -10866.47782492
  atomic energy  EATOM  =    114020.06510763
  Solvation  Ediel_sol  =         0.00000000
  ---------------------------------------------------
  free energy    TOTEN  =      -327.83451924 eV

  energy without entropy =     -327.83451924  energy(sigma->0) =     -327.83451924


--------------------------------------------------------------------------------------------------------




--------------------------------------- Iteration      1(   3)  ---------------------------------------


    POTLOK:  cpu time    0.1428: real time    0.1439
    SETDIJ:  cpu time    0.0131: real time    0.0132
     EDDAV:  cpu time  456.8785: real time  459.8950
 BZINTS: Fermi energy:  5.003688;688.000000 electrons
         Band energy:***********;  BLOECHL correction:  0.000000
       DOS:  cpu time    0.0236: real time    0.0237
    CHARGE:  cpu time    3.1110: real time    3.1327
    MIXING:  cpu time    0.0019: real time    0.0019
    --------------------------------------------
      LOOP:  cpu time  460.1710: real time  463.2104

 eigenvalue-minimisations  : 61696
 total energy-change (2. order) : 0.3253372E-06  (-0.2136868E-06)
 number of electron     688.0000275 magnetization       0.0000000
 augmentation part      282.2245473 magnetization       0.0000000

 Broyden mixing:
  rms(total) = 0.22538E-03    rms(broyden)= 0.22536E-03
  rms(prec ) = 0.26026E-03
  weight for this iteration     100.00

 eigenvalues of (default mixing * dielectric matrix)
  average eigenvalue GAMMA=   0.6400
  0.9510  0.3290

 Free energy of the ion-electron system (eV)
  ---------------------------------------------------
  alpha Z        PSCENC =      2358.44745478
  Ewald energy   TEWEN  =    -62500.76766251
  -Hartree energ DENC   =    -42931.92518911
  -exchange      EXHF   =         0.00000000
  -V(xc)+E(xc)   XCENC  =      3286.50811274
  PAW double counting   =    112261.15138968  -115954.82936239
  entropy T*S    EENTRO =         0.00000000
  eigenvalues    EBANDS =    -10866.48436974
  atomic energy  EATOM  =    114020.06510763
  Solvation  Ediel_sol  =         0.00000000
  ---------------------------------------------------
  free energy    TOTEN  =      -327.83451892 eV

  energy without entropy =     -327.83451892  energy(sigma->0) =     -327.83451892


--------------------------------------------------------------------------------------------------------




--------------------------------------- Iteration      1(   4)  ---------------------------------------


    POTLOK:  cpu time    0.1560: real time    0.1569
    SETDIJ:  cpu time    0.0149: real time    0.0150
     EDDAV:  cpu time  459.1453: real time  462.1881
 BZINTS: Fermi energy:  4.947092;688.000000 electrons
         Band energy:***********;  BLOECHL correction:  0.000000
       DOS:  cpu time    0.0249: real time    0.0250
    CHARGE:  cpu time    2.9451: real time    2.9652
    MIXING:  cpu time    0.0016: real time    0.0016
    --------------------------------------------
      LOOP:  cpu time  462.2878: real time  465.3518

 eigenvalue-minimisations  : 62720
 total energy-change (2. order) : 0.1580775E-06  (-0.2498391E-07)
 number of electron     688.0000275 magnetization       0.0000000
 augmentation part      282.2242617 magnetization       0.0000000

 Broyden mixing:
  rms(total) = 0.14137E-03    rms(broyden)= 0.14137E-03
  rms(prec ) = 0.16690E-03
  weight for this iteration     100.00

 eigenvalues of (default mixing * dielectric matrix)
  average eigenvalue GAMMA=   0.9409
  1.8426  0.3606  0.6194

 Free energy of the ion-electron system (eV)
  ---------------------------------------------------
  alpha Z        PSCENC =      2358.44745478
  Ewald energy   TEWEN  =    -62500.76766251
  -Hartree energ DENC   =    -42931.94066993
  -exchange      EXHF   =         0.00000000
  -V(xc)+E(xc)   XCENC  =      3286.50842726
  PAW double counting   =    112261.18181465  -115954.86136099
  entropy T*S    EENTRO =         0.00000000
  eigenvalues    EBANDS =    -10866.46762965
  atomic energy  EATOM  =    114020.06510763
  Solvation  Ediel_sol  =         0.00000000
  ---------------------------------------------------
  free energy    TOTEN  =      -327.83451876 eV

  energy without entropy =     -327.83451876  energy(sigma->0) =     -327.83451876


--------------------------------------------------------------------------------------------------------




--------------------------------------- Iteration      1(   5)  ---------------------------------------


    POTLOK:  cpu time    0.1412: real time    0.1431
    SETDIJ:  cpu time    0.0132: real time    0.0132
     EDDAV:  cpu time  557.6132: real time  561.2726
 BZINTS: Fermi energy:  4.942356;688.000000 electrons
         Band energy:***********;  BLOECHL correction:  0.000000
       DOS:  cpu time    0.0253: real time    0.0254
    CHARGE:  cpu time    2.9976: real time    3.0162
    MIXING:  cpu time    0.0062: real time    0.0062
    --------------------------------------------
      LOOP:  cpu time  560.7966: real time  564.4767

 eigenvalue-minimisations  : 72448
 total energy-change (2. order) :-0.1239823E-07  (-0.1098934E-07)
 number of electron     688.0000275 magnetization       0.0000000
 augmentation part      282.2244368 magnetization       0.0000000

 Broyden mixing:
  rms(total) = 0.50203E-04    rms(broyden)= 0.50202E-04
  rms(prec ) = 0.56002E-04
  weight for this iteration     100.00

 eigenvalues of (default mixing * dielectric matrix)
  average eigenvalue GAMMA=   0.9271
  1.8691  0.3527  0.7433  0.7433

 Free energy of the ion-electron system (eV)
  ---------------------------------------------------
  alpha Z        PSCENC =      2358.44745478
  Ewald energy   TEWEN  =    -62500.76766251
  -Hartree energ DENC   =    -42931.93194582
  -exchange      EXHF   =         0.00000000
  -V(xc)+E(xc)   XCENC  =      3286.50829621
  PAW double counting   =    112261.16561599  -115954.84355393
  entropy T*S    EENTRO =         0.00000000
  eigenvalues    EBANDS =    -10866.47783113
  atomic energy  EATOM  =    114020.06510763
  Solvation  Ediel_sol  =         0.00000000
  ---------------------------------------------------
  free energy    TOTEN  =      -327.83451877 eV

  energy without entropy =     -327.83451877  energy(sigma->0) =     -327.83451877


--------------------------------------------------------------------------------------------------------




--------------------------------------- Iteration      1(   6)  ---------------------------------------


    POTLOK:  cpu time    0.1535: real time    0.1558
    SETDIJ:  cpu time    0.0129: real time    0.0130
     EDDAV:  cpu time  300.4745: real time  302.5656
 BZINTS: Fermi energy:  4.941772;688.000000 electrons
         Band energy:***********;  BLOECHL correction:  0.000000
       DOS:  cpu time    0.0235: real time    0.0236
    --------------------------------------------
      LOOP:  cpu time  300.6645: real time  302.7580

 eigenvalue-minimisations  : 45824
 total energy-change (2. order) : 0.3026798E-08  (-0.1766423E-08)
 number of electron     688.0000275 magnetization       0.0000000
 augmentation part      282.2244368 magnetization       0.0000000

 Free energy of the ion-electron system (eV)
  ---------------------------------------------------
  alpha Z        PSCENC =      2358.44745478
  Ewald energy   TEWEN  =    -62500.76766251
  -Hartree energ DENC   =    -42931.93503986
  -exchange      EXHF   =         0.00000000
  -V(xc)+E(xc)   XCENC  =      3286.50839740
  PAW double counting   =    112261.15067833  -115954.82907177
  entropy T*S    EENTRO =         0.00000000
  eigenvalues    EBANDS =    -10866.47438279
  atomic energy  EATOM  =    114020.06510763
  Solvation  Ediel_sol  =         0.00000000
  ---------------------------------------------------
  free energy    TOTEN  =      -327.83451877 eV

  energy without entropy =     -327.83451877  energy(sigma->0) =     -327.83451877


--------------------------------------------------------------------------------------------------------




 average (electrostatic) potential at core
  the test charge radii are     0.9698  0.8297  0.9500
  (the norm of the test charge is              1.0000)
       1 -86.6093       2 -86.6093       3 -86.6093       4 -86.6093       5 -86.6093
       6 -86.6093       7 -86.6093       8 -86.6093       9 -86.6093      10 -86.6093
      11 -86.6093      12 -86.6093      13 -86.6093      14 -86.6093      15 -86.6093
      16 -86.6093      17 -86.6093      18 -86.6093      19 -86.6093      20 -86.6093
      21 -86.6093      22 -86.6093      23 -86.6093      24 -86.6093      25 -86.6093
      26 -86.6093      27 -86.6093      28 -86.6093      29 -86.6093      30 -86.6093
      31 -86.6093      32 -86.6093      33 -80.6916      34 -80.6916      35 -80.6916
      36 -80.6916      37 -80.6916      38 -80.6916      39 -80.6916      40 -80.6916
      41 -80.6916      42 -80.6916      43 -80.6916      44 -80.6916      45 -80.6916
      46 -80.6916      47 -80.6916      48 -80.6916      49 -80.2122      50 -80.2122
      51 -80.2122      52 -80.2122      53 -80.2122      54 -80.2122      55 -80.2122
      56 -80.2122      57 -80.2122      58 -80.2122      59 -80.2122      60 -80.2122
      61 -80.2122      62 -80.2122      63 -80.2122      64 -80.2122
 
 
 
 E-fermi :   4.9418     XC(G=0): -10.4733     alpha+bet :-10.5566


 spin component 1

 k-point     1 :       0.0000    0.0000    0.0000
  band No.  band energies     occupation 
      1     -64.3033      1.00000
      2     -64.3033      1.00000
      3     -64.3033      1.00000
      4     -64.3033      1.00000
      5     -64.3033      1.00000
      6     -64.3033      1.00000
      7     -64.3033      1.00000
      8     -64.3033      1.00000
      9     -64.2727      1.00000
     10     -64.2727      1.00000
     11     -64.2727      1.00000
     12     -64.2727      1.00000
     13     -64.2727      1.00000
     14     -64.2727      1.00000
     15     -64.2727      1.00000
     16     -64.2727      1.00000
     17     -64.2684      1.00000
     18     -64.2684      1.00000
     19     -64.2684      1.00000
     20     -64.2684      1.00000
     21     -64.2684      1.00000
     22     -64.2684      1.00000
     23     -64.2684      1.00000
     24     -64.2684      1.00000
     25     -64.2641      1.00000
     26     -64.2641      1.00000
     27     -64.2641      1.00000
     28     -64.2641      1.00000
     29     -64.2641      1.00000
     30     -64.2641      1.00000
     31     -64.2641      1.00000
     32     -64.2641      1.00000
     33     -64.2629      1.00000
     34     -64.2629      1.00000
     35     -64.2629      1.00000
     36     -64.2629      1.00000
     37     -64.2629      1.00000
     38     -64.2629      1.00000
     39     -64.2629      1.00000
     40     -64.2629      1.00000
     41     -64.2410      1.00000
     42     -64.2410      1.00000
     43     -64.2410      1.00000
     44     -64.2410      1.00000
     45     -64.2410      1.00000
     46     -64.2410      1.00000
     47     -64.2410      1.00000
     48     -64.2410      1.00000
     49     -51.8545      1.00000
     50     -51.8545      1.00000
     51     -51.8545      1.00000
     52     -51.8545      1.00000
     53     -51.8545      1.00000
     54     -51.8545      1.00000
     55     -51.8545      1.00000
     56     -51.8545      1.00000
     57     -51.8522      1.00000
     58     -51.8522      1.00000
     59     -51.8522      1.00000
     60     -51.8522      1.00000
     61     -51.8522      1.00000
     62     -51.8522      1.00000
     63     -51.8522      1.00000
     64     -51.8522      1.00000
     65     -51.8244      1.00000
     66     -51.8244      1.00000
     67     -51.8244      1.00000
     68     -51.8244      1.00000
     69     -51.8244      1.00000
     70     -51.8244      1.00000
     71     -51.8244      1.00000
     72     -51.8244      1.00000
     73     -47.7165      1.00000
     74     -47.7165      1.00000
     75     -47.7165      1.00000
     76     -47.7165      1.00000
     77     -47.7165      1.00000
     78     -47.7165      1.00000
     79     -47.7165      1.00000
     80     -47.7165      1.00000
     81     -47.7107      1.00000
     82     -47.7107      1.00000
     83     -47.7107      1.00000
     84     -47.7107      1.00000
     85     -47.7107      1.00000
     86     -47.7107      1.00000
     87     -47.7107      1.00000
     88     -47.7107      1.00000
     89     -47.7086      1.00000
     90     -47.7086      1.00000
     91     -47.7086      1.00000
     92     -47.7086      1.00000
     93     -47.7086      1.00000
     94     -47.7086      1.00000
     95     -47.7086      1.00000
     96     -47.7086      1.00000
     97      -9.1027      1.00000
     98      -8.4955      1.00000
     99      -8.4856      1.00000
    100      -8.4856      1.00000
    101      -8.4853      1.00000
    102      -8.4853      1.00000
    103      -8.4686      1.00000
    104      -8.1742      1.00000
    105      -8.1633      1.00000
    106      -8.1369      1.00000
    107      -8.1312      1.00000
    108      -8.1268      1.00000
    109      -8.1268      1.00000
    110      -8.1268      1.00000
    111      -8.1268      1.00000
    112      -8.1001      1.00000
    113      -8.1001      1.00000
    114      -8.1001      1.00000
    115      -8.1001      1.00000
    116      -8.0767      1.00000
    117      -8.0514      1.00000
    118      -8.0437      1.00000
    119      -8.0127      1.00000
    120      -7.7585      1.00000
    121      -7.7530      1.00000
    122      -7.7458      1.00000
    123      -7.7414      1.00000
    124      -7.7414      1.00000
    125      -7.7409      1.00000
    126      -7.7409      1.00000
    127      -7.7353      1.00000
    128      -7.7288      1.00000
    129      -2.0607      1.00000
    130      -2.0350      1.00000
    131      -2.0350      1.00000
    132      -2.0270      1.00000
    133      -2.0270      1.00000
    134      -2.0107      1.00000
    135      -1.9628      1.00000
    136      -1.9614      1.00000
    137      -1.9110      1.00000
    138      -1.8896      1.00000
    139      -1.8779      1.00000
    140      -1.8733      1.00000
    141      -1.8733      1.00000
    142      -1.8686      1.00000
    143      -1.8686      1.00000
    144      -1.8679      1.00000
    145      -1.8511      1.00000
    146      -1.8282      1.00000
    147      -1.8282      1.00000
    148      -1.8239      1.00000
    149      -1.8239      1.00000
    150      -1.8239      1.00000
    151      -1.7992      1.00000
    152      -1.7863      1.00000
    153      -1.7863      1.00000
    154      -1.7838      1.00000
    155      -1.7830      1.00000
    156      -1.7722      1.00000
    157      -1.7722      1.00000
    158      -1.7510      1.00000
    159      -1.7383      1.00000
    160      -1.7383      1.00000
    161      -1.7358      1.00000
    162      -1.7335      1.00000
    163      -1.7335      1.00000
    164      -1.7252      1.00000
    165      -1.7158      1.00000
    166      -1.6960      1.00000
    167      -1.6930      1.00000
    168      -1.6910      1.00000
    169      -1.0103      1.00000
    170      -0.8954      1.00000
    171      -0.8873      1.00000
    172      -0.7975      1.00000
    173      -0.7277      1.00000
    174      -0.4985      1.00000
    175      -0.2257      1.00000
    176      -0.2257      1.00000
    177      -0.2211      1.00000
    178      -0.2211      1.00000
    179      -0.1857      1.00000
    180      -0.1810      1.00000
    181      -0.1114      1.00000
    182      -0.0248      1.00000
    183      -0.0248      1.00000
    184      -0.0153      1.00000
    185      -0.0153      1.00000
    186       0.0427      1.00000
    187       0.0473      1.00000
    188       0.1081      1.00000
    189       0.1081      1.00000
    190       0.1106      1.00000
    191       0.1106      1.00000
    192       0.1189      1.00000
    193       0.2114      1.00000
    194       0.2783      1.00000
    195       0.2783      1.00000
    196       0.2862      1.00000
    197       0.2862      1.00000
    198       0.3027      1.00000
    199       0.3419      1.00000
    200       0.6812      1.00000
    201       0.7241      1.00000
    202       0.7522      1.00000
    203       0.7697      1.00000
    204       0.8095      1.00000
    205       0.8095      1.00000
    206       0.8206      1.00000
    207       0.8206      1.00000
    208       0.8724      1.00000
    209       0.8724      1.00000
    210       0.8871      1.00000
    211       0.8871      1.00000
    212       1.0212      1.00000
    213       1.0212      1.00000
    214       1.0217      1.00000
    215       1.0217      1.00000
    216       1.0479      1.00000
    217       1.1141      1.00000
    218       1.1330      1.00000
    219       1.1577      1.00000
    220       1.1823      1.00000
    221       1.1920      1.00000
    222       1.1920      1.00000
    223       1.1934      1.00000
    224       1.1934      1.00000
    225       1.2020      1.00000
    226       1.2129      1.00000
    227       1.2170      1.00000
    228       1.2597      1.00000
    229       1.2644      1.00000
    230       1.2890      1.00000
    231       1.2948      1.00000
    232       1.2948      1.00000
    233       1.3036      1.00000
    234       1.3036      1.00000
    235       1.3084      1.00000
    236       1.3698      1.00000
    237       1.4376      1.00000
    238       1.4815      1.00000
    239       1.5841      1.00000
    240       1.5865      1.00000
    241       1.6244      1.00000
    242       1.7397      1.00000
    243       1.7963      1.00000
    244       1.7963      1.00000
    245       1.8026      1.00000
    246       1.8026      1.00000
    247       1.8739      1.00000
    248       1.9305      1.00000
    249       1.9305      1.00000
    250       1.9452      1.00000
    251       1.9452      1.00000
    252       1.9813      1.00000
    253       1.9990      1.00000
    254       2.0123      1.00000
    255       2.0168      1.00000
    256       2.0314      1.00000
    257       2.1577      1.00000
    258       2.1745      1.00000
    259       2.1745      1.00000
    260       2.2024      1.00000
    261       2.2201      1.00000
    262       2.2201      1.00000
    263       2.3190      1.00000
    264       2.3312      1.00000
    265       2.6321      1.00000
    266       2.7389      1.00000
    267       2.7541      1.00000
    268       2.7541      1.00000
    269       2.7704      1.00000
    270       2.7704      1.00000
    271       2.7768      1.00000
    272       2.7860      1.00000
    273       2.7860      1.00000
    274       2.7884      1.00000
    275       2.7884      1.00000
    276       2.7886      1.00000
    277       2.8096      1.00000
    278       2.8324      1.00000
    279       2.8419      1.00000
    280       2.8763      1.00000
    281       2.9125      1.00000
    282       2.9293      1.00000
    283       2.9293      1.00000
    284       2.9321      1.00000
    285       2.9321      1.00000
    286       2.9670      1.00000
    287       2.9897      1.00000
    288       3.0743      1.00000
    289       3.1174      1.00000
    290       3.1281      1.00000
    291       3.1419      1.00000
    292       3.2026      1.00000
    293       3.2026      1.00000
    294       3.2074      1.00000
    295       3.2162      1.00000
    296       3.2162      1.00000
    297       3.2762      1.00000
    298       3.3008      1.00000
    299       3.3017      1.00000
    300       3.3803      1.00000
    301       3.3803      1.00000
    302       3.4241      1.00000
    303       3.4241      1.00000
    304       3.4294      1.00000
    305       3.5375      1.00000
    306       3.5629      1.00000
    307       3.5629      1.00000
    308       3.5638      1.00000
    309       3.5638      1.00000
    310       3.5841      1.00000
    311       3.6623      1.00000
    312       3.6623      1.00000
    313       3.6670      1.00000
    314       3.6670      1.00000
    315       3.7214      1.00000
    316       3.7362      1.00000
    317       3.8053      1.00000
    318       3.8783      1.00000
    319       4.0178      1.00000
    320       4.0610      1.00000
    321       4.0610      1.00000
    322       4.0638      1.00000
    323       4.0844      1.00000
    324       4.0844      1.00000
    325       4.1067      1.00000
    326       4.1067      1.00000
    327       4.1212      1.00000
    328       4.1379      1.00000
    329       4.1622      1.00000
    330       4.1704      1.00000
    331       4.1704      1.00000
    332       4.2156      1.00000
    333       4.2305      1.00000
    334       4.2578      1.00000
    335       4.3183      1.00000
    336       4.4658      1.00000
    337       4.6664      1.00000
    338       4.6764      1.00000
    339       4.6764      1.00000
    340       4.6972      1.00000
    341       4.6972      1.00000
    342       4.7203      1.00000
    343       4.7565      1.00000
    344       4.8811      1.00000
    345       5.7168      0.00000
    346       5.7168      0.00000
    347       5.7380      0.00000
    348       5.7455      0.00000
    349       5.7455      0.00000
    350       5.7566      0.00000
    351       5.7580      0.00000
    352       5.8916      0.00000
    353       5.9160      0.00000
    354       5.9405      0.00000
    355       5.9405      0.00000
    356       5.9480      0.00000
    357       5.9886      0.00000
    358       6.0012      0.00000
    359       6.0012      0.00000
    360       6.0270      0.00000
    361       6.0270      0.00000
    362       6.0441      0.00000
    363       6.0692      0.00000
    364       6.0692      0.00000
    365       6.2024      0.00000
    366       6.2051      0.00000
    367       6.2051      0.00000
    368       6.2085      0.00000
    369       6.2132      0.00000
    370       6.2132      0.00000
    371       6.2315      0.00000
    372       6.2687      0.00000
    373       6.2874      0.00000
    374       6.3446      0.00000
    375       6.3604      0.00000
    376       6.4225      0.00000
    377       6.4467      0.00000
    378       6.4856      0.00000
    379       6.4856      0.00000
    380       6.4899      0.00000
    381       6.4899      0.00000
    382       6.5459      0.00000
    383       6.6759      0.00000
    384       6.7861      0.00000
    385       7.6660      0.00000
    386       8.6899      0.00000
    387       8.8043      0.00000
    388       8.8122      0.00000
    389       8.8784      0.00000
    390       9.1010      0.00000
    391       9.2235      0.00000
    392       9.2937      0.00000
    393       9.4404      0.00000
    394       9.4404      0.00000
    395       9.4411      0.00000
    396       9.4411      0.00000
    397       9.4438      0.00000
    398       9.5155      0.00000
    399      10.1220      0.00000
    400      10.1985      0.00000
    401      10.2426      0.00000
    402      10.2484      0.00000
    403      10.5400      0.00000
    404      10.6285      0.00000
    405      10.6285      0.00000
    406      10.6319      0.00000
    407      10.6319      0.00000
    408      10.6666      0.00000
    409      10.6666      0.00000
    410      10.6669      0.00000
    411      10.6669      0.00000
    412      10.7477      0.00000
    413      10.7556      0.00000
    414      10.7690      0.00000
    415      10.7690      0.00000
    416      10.7979      0.00000
    417      10.7979      0.00000
    418      10.8293      0.00000
    419      10.8657      0.00000
    420      10.8657      0.00000
    421      10.9121      0.00000
    422      10.9121      0.00000
    423      10.9247      0.00000
    424      11.0522      0.00000
    425      11.2394      0.00000
    426      11.4319      0.00000
    427      11.6441      0.00000
    428      11.6441      0.00000
    429      11.6497      0.00000
    430      11.6497      0.00000
    431      11.6645      0.00000
    432      11.6993      0.00000
    433      11.8220      0.00000
    434      11.8313      0.00000
    435      11.8313      0.00000
    436      11.8319      0.00000
    437      11.8319      0.00000
    438      11.8823      0.00000
    439      11.9448      0.00000
    440      12.0815      0.00000
    441      12.0831      0.00000
    442      12.1583      0.00000
    443      12.1827      0.00000
    444      12.2604      0.00000
    445      12.2884      0.00000
    446      12.3168      0.00000
    447      12.3168      0.00000
[...]
   -.421E+02 0.545E+00 0.161E+02   0.429E+02 -.526E+00 -.162E+02   -.856E+00 -.185E-01 0.162E+00   -.743E-04 -.431E-04 -.201E-04
   -.421E+02 0.545E+00 0.161E+02   0.429E+02 -.526E+00 -.162E+02   -.856E+00 -.185E-01 0.162E+00   -.743E-04 -.431E-04 -.201E-04
   -.421E+02 0.545E+00 0.161E+02   0.429E+02 -.526E+00 -.162E+02   -.856E+00 -.185E-01 0.162E+00   -.743E-04 -.431E-04 -.201E-04
   -.421E+02 0.545E+00 0.161E+02   0.429E+02 -.526E+00 -.162E+02   -.856E+00 -.185E-01 0.162E+00   -.743E-04 -.431E-04 -.201E-04
   0.421E+02 -.545E+00 0.161E+02   -.429E+02 0.526E+00 -.162E+02   0.856E+00 0.185E-01 0.162E+00   0.743E-04 0.431E-04 -.201E-04
   0.421E+02 -.545E+00 0.161E+02   -.429E+02 0.526E+00 -.162E+02   0.856E+00 0.185E-01 0.162E+00   0.743E-04 0.431E-04 -.201E-04
   0.421E+02 -.545E+00 0.161E+02   -.429E+02 0.526E+00 -.162E+02   0.856E+00 0.185E-01 0.162E+00   0.743E-04 0.431E-04 -.201E-04
   0.421E+02 -.545E+00 0.161E+02   -.429E+02 0.526E+00 -.162E+02   0.856E+00 0.185E-01 0.162E+00   0.743E-04 0.431E-04 -.201E-04
   0.545E+00 -.421E+02 0.161E+02   -.526E+00 0.429E+02 -.162E+02   -.185E-01 -.856E+00 0.162E+00   -.431E-04 -.743E-04 -.201E-04
   0.545E+00 -.421E+02 0.161E+02   -.526E+00 0.429E+02 -.162E+02   -.185E-01 -.856E+00 0.162E+00   -.431E-04 -.743E-04 -.201E-04
   0.545E+00 -.421E+02 0.161E+02   -.526E+00 0.429E+02 -.162E+02   -.185E-01 -.856E+00 0.162E+00   -.431E-04 -.743E-04 -.201E-04
   0.545E+00 -.421E+02 0.161E+02   -.526E+00 0.429E+02 -.162E+02   -.185E-01 -.856E+00 0.162E+00   -.431E-04 -.743E-04 -.201E-04
   -.545E+00 0.421E+02 0.161E+02   0.526E+00 -.429E+02 -.162E+02   0.185E-01 0.856E+00 0.162E+00   0.431E-04 0.743E-04 -.201E-04
   -.545E+00 0.421E+02 0.161E+02   0.526E+00 -.429E+02 -.162E+02   0.185E-01 0.856E+00 0.162E+00   0.431E-04 0.743E-04 -.201E-04
   -.545E+00 0.421E+02 0.161E+02   0.526E+00 -.429E+02 -.162E+02   0.185E-01 0.856E+00 0.162E+00   0.431E-04 0.743E-04 -.201E-04
   -.545E+00 0.421E+02 0.161E+02   0.526E+00 -.429E+02 -.162E+02   0.185E-01 0.856E+00 0.162E+00   0.431E-04 0.743E-04 -.201E-04
   -.114E-06 0.843E-07 -.189E+02   0.808E-13 -.121E-12 0.182E+02   0.155E-18 0.136E-18 0.767E+00   -.179E-10 -.340E-11 -.810E-04
   -.114E-06 0.843E-07 -.189E+02   0.528E-13 -.114E-12 0.182E+02   -.132E-18 0.217E-18 0.767E+00   0.138E-10 -.551E-11 -.810E-04
   -.114E-06 0.843E-07 -.189E+02   0.240E-13 -.107E-12 0.182E+02   -.678E-19 -.217E-18 0.767E+00   -.945E-11 -.683E-11 -.810E-04
   -.114E-06 0.844E-07 -.189E+02   0.528E-13 -.114E-12 0.182E+02   0.411E-19 -.163E-18 0.767E+00   0.768E-11 0.940E-11 -.810E-04
   0.843E-07 -.114E-06 -.189E+02   -.284E-13 0.114E-12 0.182E+02   0.110E-18 0.593E-20 0.767E+00   -.241E-10 0.975E-11 -.810E-04
   0.843E-07 -.114E-06 -.189E+02   -.568E-13 0.114E-12 0.182E+02   0.162E-18 0.390E-19 0.767E+00   0.326E-10 0.791E-11 -.810E-04
   0.843E-07 -.114E-06 -.189E+02   -.284E-13 0.114E-12 0.182E+02   -.102E-19 -.872E-19 0.767E+00   -.751E-11 -.675E-11 -.810E-04
   0.843E-07 -.114E-06 -.189E+02   0.000E+00 0.114E-12 0.182E+02   -.295E-19 0.132E-18 0.767E+00   0.145E-10 -.124E-10 -.810E-04
   -.114E-06 0.843E-07 -.189E+02   -.426E-13 -.101E-12 0.182E+02   -.728E-19 -.325E-18 0.767E+00   0.102E-10 -.240E-11 -.810E-04
   -.114E-06 0.843E-07 -.189E+02   -.426E-13 -.108E-12 0.182E+02   -.343E-19 0.542E-19 0.767E+00   -.147E-10 -.125E-10 -.810E-04
   -.114E-06 0.843E-07 -.189E+02   -.568E-13 -.113E-12 0.182E+02   -.114E-18 0.108E-18 0.767E+00   0.288E-11 0.577E-11 -.810E-04
   -.114E-06 0.843E-07 -.189E+02   -.853E-13 -.106E-12 0.182E+02   0.176E-18 -.217E-18 0.767E+00   -.511E-11 -.458E-11 -.810E-04
   0.843E-07 -.114E-06 -.189E+02   0.787E-13 0.111E-12 0.182E+02   0.138E-18 -.102E-18 0.767E+00   0.892E-11 -.108E-10 -.810E-04
   0.843E-07 -.114E-06 -.189E+02   0.110E-12 0.111E-12 0.182E+02   0.243E-19 -.195E-19 0.767E+00   0.590E-11 -.274E-10 -.810E-04
   0.843E-07 -.114E-06 -.189E+02   0.107E-12 0.113E-12 0.182E+02   0.141E-18 -.407E-19 0.767E+00   0.116E-10 0.166E-12 -.810E-04
   0.843E-07 -.114E-06 -.189E+02   0.528E-13 0.113E-12 0.182E+02   -.529E-22 0.542E-19 0.767E+00   0.120E-11 0.218E-10 -.810E-04
   0.610E-07 -.666E-07 -.152E+02   -.249E-13 -.888E-13 0.143E+02   -.651E-18 0.108E-17 0.913E+00   0.103E-10 0.764E-11 -.109E-04
   0.610E-07 -.666E-07 -.152E+02   -.711E-14 -.568E-13 0.143E+02   -.109E-17 -.651E-18 0.913E+00   -.985E-11 0.121E-10 -.109E-04
   0.610E-07 -.666E-07 -.152E+02   -.178E-13 -.462E-13 0.143E+02   -.813E-19 -.759E-18 0.913E+00   0.116E-10 0.257E-11 -.109E-04
   0.610E-07 -.666E-07 -.152E+02   0.000E+00 -.128E-12 0.143E+02   0.962E-18 0.542E-18 0.913E+00   -.741E-11 -.147E-10 -.109E-04
   -.666E-07 0.610E-07 -.152E+02   0.110E-12 -.149E-12 0.143E+02   0.128E-17 -.184E-17 0.913E+00   0.173E-10 -.614E-11 -.109E-04
   -.666E-07 0.610E-07 -.152E+02   0.156E-12 -.853E-13 0.143E+02   0.637E-18 -.542E-18 0.913E+00   -.210E-10 0.840E-12 -.109E-04
   -.666E-07 0.610E-07 -.152E+02   0.888E-13 -.163E-12 0.143E+02   -.154E-17 0.119E-17 0.913E+00   0.519E-11 0.394E-11 -.109E-04
   -.666E-07 0.610E-07 -.152E+02   0.121E-12 -.142E-12 0.143E+02   -.145E-17 0.108E-18 0.913E+00   -.130E-10 0.586E-11 -.109E-04
   0.610E-07 -.666E-07 -.152E+02   -.355E-13 -.160E-13 0.143E+02   -.329E-18 -.108E-18 0.913E+00   -.660E-11 -.230E-11 -.109E-04
   0.610E-07 -.666E-07 -.152E+02   -.213E-13 -.759E-13 0.143E+02   -.138E-17 -.325E-18 0.913E+00   0.716E-11 -.113E-11 -.109E-04
   0.610E-07 -.666E-07 -.152E+02   -.142E-13 -.218E-13 0.143E+02   -.131E-17 0.119E-17 0.913E+00   -.172E-11 -.324E-11 -.109E-04
   0.610E-07 -.666E-07 -.152E+02   0.000E+00 -.178E-13 0.143E+02   0.203E-18 0.434E-18 0.913E+00   0.268E-11 0.904E-11 -.109E-04
   -.666E-07 0.610E-07 -.152E+02   0.213E-12 -.604E-13 0.143E+02   0.138E-17 0.206E-17 0.913E+00   -.839E-11 0.406E-11 -.109E-04
   -.666E-07 0.610E-07 -.152E+02   0.184E-12 -.672E-13 0.143E+02   0.671E-18 -.152E-17 0.913E+00   0.251E-11 0.154E-10 -.109E-04
   -.666E-07 0.610E-07 -.152E+02   0.178E-12 -.449E-13 0.143E+02   -.976E-18 -.434E-18 0.913E+00   -.855E-11 0.500E-11 -.109E-04
   -.666E-07 0.610E-07 -.152E+02   0.248E-12 -.517E-13 0.143E+02   -.254E-17 0.434E-18 0.913E+00   0.293E-12 -.179E-10 -.109E-04
 -----------------------------------------------------------------------------------------------
   -.232E-06 -.232E-06 -.320E+02   0.471E-12 -.131E-12 0.198E-11   -.176E-14 -.178E-14 0.320E+02   0.109E-10 -.149E-10 -.212E-02
 
 
 POSITION                                       TOTAL-FORCE (eV/Angst)
 -----------------------------------------------------------------------------------
      1.35942      1.35118      1.27282        -0.000009      0.000132      0.000039
      6.61139      1.48865      1.27282        -0.000009      0.000132      0.000039
      1.49690      6.60314      1.27282        -0.000009      0.000132      0.000039
      6.74887      6.74062      1.27282        -0.000009      0.000132      0.000039
      4.03002      4.03827      1.27282         0.000009     -0.000132      0.000039
      9.28198      4.17575      1.27282         0.000009     -0.000132      0.000039
      4.16750      9.29023      1.27282         0.000009     -0.000132      0.000039
      9.41946      9.42771      1.27282         0.000009     -0.000132      0.000039
      1.41229      3.96128      9.09239        -0.000132      0.000009      0.000039
      6.66425      4.09876      9.09239        -0.000132      0.000009      0.000039
      1.54976      9.21325      9.09239        -0.000132      0.000009      0.000039
      6.80173      9.35072      9.09239        -0.000132      0.000009      0.000039
      3.97716      1.42816      9.09239         0.000132     -0.000009      0.000039
      9.22912      1.56564      9.09239         0.000132     -0.000009      0.000039
      4.11464      6.68013      9.09239         0.000132     -0.000009      0.000039
      9.36660      6.81761      9.09239         0.000132     -0.000009      0.000039
      1.33530      1.34355      6.48587         0.000009     -0.000132      0.000039
      6.58726      1.48103      6.48587         0.000009     -0.000132      0.000039
      1.47278      6.59551      6.48587         0.000009     -0.000132      0.000039
      6.72474      6.73299      6.48587         0.000009     -0.000132      0.000039
      4.05415      4.04590      6.48587        -0.000009      0.000132      0.000039
      9.30611      4.18338      6.48587        -0.000009      0.000132      0.000039
      4.19162      9.29786      6.48587        -0.000009      0.000132      0.000039
      9.44359      9.43534      6.48587        -0.000009      0.000132      0.000039
      3.96953      1.40404      3.87934        -0.000132      0.000009      0.000039
      9.22149      1.54152      3.87934        -0.000132      0.000009      0.000039
      4.10701      6.65600      3.87934        -0.000132      0.000009      0.000039
      9.35897      6.79348      3.87934        -0.000132      0.000009      0.000039
      1.41991      3.98541      3.87934         0.000132     -0.000009      0.000039
      6.67188      4.12288      3.87934         0.000132     -0.000009      0.000039
      1.55739      9.23737      3.87934         0.000132     -0.000009      0.000039
      6.80936      9.37485      3.87934         0.000132     -0.000009      0.000039
      0.00000      0.00000      5.23897        -0.000000     -0.000000     -0.000393
      5.25197      0.13748      5.23897        -0.000000     -0.000000     -0.000393
      0.13748      5.25197      5.23897        -0.000000     -0.000000     -0.000393
      5.38944      5.38944      5.23897        -0.000000     -0.000000     -0.000393
      2.62598      0.06874      2.63245        -0.000000     -0.000000     -0.000393
      7.87795      0.20622      2.63245        -0.000000     -0.000000     -0.000393
      2.76346      5.32070      2.63245        -0.000000     -0.000000     -0.000393
      8.01543      5.45818      2.63245        -0.000000     -0.000000     -0.000393
      2.69472      2.69472      0.02593        -0.000000     -0.000000     -0.000393
      7.94669      2.83220      0.02593        -0.000000     -0.000000     -0.000393
      2.83220      7.94669      0.02593        -0.000000     -0.000000     -0.000393
      8.08417      8.08417      0.02593        -0.000000     -0.000000     -0.000393
      0.06874      2.62598      7.84550        -0.000000     -0.000000     -0.000393
      5.32070      2.76346      7.84550        -0.000000     -0.000000     -0.000393
      0.20622      7.87795      7.84550        -0.000000     -0.000000     -0.000393
      5.45818      8.01543      7.84550        -0.000000     -0.000000     -0.000393
      0.00000      0.00000      0.03495        -0.000000     -0.000000      0.000316
      5.25197      0.13748      0.03495        -0.000000     -0.000000      0.000316
      0.13748      5.25197      0.03495        -0.000000     -0.000000      0.000316
      5.38944      5.38944      0.03495        -0.000000     -0.000000      0.000316
      2.62598      0.06874      7.85452        -0.000000     -0.000000      0.000316
      7.87795      0.20622      7.85452        -0.000000     -0.000000      0.000316
      2.76346      5.32070      7.85452        -0.000000     -0.000000      0.000316
      8.01543      5.45818      7.85452        -0.000000     -0.000000      0.000316
      2.69472      2.69472      5.24800        -0.000000     -0.000000      0.000316
      7.94669      2.83220      5.24800        -0.000000     -0.000000      0.000316
      2.83220      7.94669      5.24800        -0.000000     -0.000000      0.000316
      8.08417      8.08417      5.24800        -0.000000     -0.000000      0.000316
      0.06874      2.62598      2.64147        -0.000000     -0.000000      0.000316
      5.32070      2.76346      2.64147        -0.000000     -0.000000      0.000316
      0.20622      7.87795      2.64147        -0.000000     -0.000000      0.000316
      5.45818      8.01543      2.64147        -0.000000     -0.000000      0.000316
 -----------------------------------------------------------------------------------
    total drift:                               -0.000000     -0.000000     -0.002497


--------------------------------------------------------------------------------------------------------



  FREE ENERGIE OF THE ION-ELECTRON SYSTEM (eV)
  ---------------------------------------------------
  free  energy   TOTEN  =      -327.83451877 eV

  energy  without entropy=     -327.83451877  energy(sigma->0) =     -327.83451877
 


--------------------------------------------------------------------------------------------------------


    POTLOK:  cpu time    0.1545: real time    0.1553


--------------------------------------------------------------------------------------------------------


 writing wavefunctions
     LOOP+:  cpu time 3140.6948: real time 3372.0926
    4ORBIT:  cpu time    0.0000: real time    0.0000
 


 total charge     
 
# of ion       s       p       d       tot
------------------------------------------
    1        1.314   2.409   0.000   3.723
    2        1.314   2.409   0.000   3.723
    3        1.314   2.409   0.000   3.723
    4        1.314   2.409   0.000   3.723
    5        1.314   2.409   0.000   3.723
    6        1.314   2.409   0.000   3.723
    7        1.314   2.409   0.000   3.723
    8        1.314   2.409   0.000   3.723
    9        1.314   2.410   0.000   3.723
   10        1.314   2.410   0.000   3.723
   11        1.314   2.410   0.000   3.723
   12        1.314   2.410   0.000   3.723
   13        1.314   2.410   0.000   3.723
   14        1.314   2.410   0.000   3.723
   15        1.314   2.410   0.000   3.723
   16        1.314   2.410   0.000   3.723
   17        1.314   2.409   0.000   3.723
   18        1.314   2.409   0.000   3.723
   19        1.314   2.409   0.000   3.723
   20        1.314   2.409   0.000   3.723
   21        1.314   2.409   0.000   3.723
   22        1.314   2.409   0.000   3.723
   23        1.314   2.409   0.000   3.723
   24        1.314   2.409   0.000   3.723
   25        1.314   2.410   0.000   3.723
   26        1.314   2.410   0.000   3.723
   27        1.314   2.410   0.000   3.723
   28        1.314   2.410   0.000   3.723
   29        1.314   2.410   0.000   3.723
   30        1.314   2.410   0.000   3.723
   31        1.314   2.410   0.000   3.723
   32        1.314   2.410   0.000   3.723
   33        0.259   6.202   8.916  15.378
   34        0.259   6.202   8.916  15.378
   35        0.259   6.202   8.916  15.378
   36        0.259   6.202   8.916  15.378
   37        0.259   6.202   8.916  15.378
   38        0.259   6.202   8.916  15.378
   39        0.259   6.202   8.916  15.378
   40        0.259   6.202   8.916  15.378
   41        0.259   6.202   8.916  15.378
   42        0.259   6.202   8.916  15.378
   43        0.259   6.202   8.916  15.378
   44        0.259   6.202   8.916  15.378
   45        0.259   6.202   8.916  15.378
   46        0.259   6.202   8.916  15.378
   47        0.259   6.202   8.916  15.378
   48        0.259   6.202   8.916  15.378
   49        0.350   6.350   5.820  12.520
   50        0.350   6.350   5.820  12.520
   51        0.350   6.350   5.820  12.520
   52        0.350   6.350   5.820  12.520
   53        0.350   6.350   5.820  12.520
   54        0.350   6.350   5.820  12.520
   55        0.350   6.350   5.820  12.520
   56        0.350   6.350   5.820  12.520
   57        0.350   6.350   5.820  12.520
   58        0.350   6.350   5.820  12.520
   59        0.350   6.350   5.820  12.520
   60        0.350   6.350   5.820  12.520
   61        0.350   6.350   5.820  12.520
   62        0.350   6.350   5.820  12.520
   63        0.350   6.350   5.820  12.520
   64        0.350   6.350   5.820  12.520
--------------------------------------------------
tot         51.785 277.935 235.788 565.508
 


 magnetization (x)
 
# of ion       s       p       d       tot
------------------------------------------
    1       -0.001  -0.013   0.000  -0.013
    2       -0.001  -0.013   0.000  -0.013
    3       -0.001  -0.013   0.000  -0.013
    4       -0.001  -0.013   0.000  -0.013
    5       -0.001  -0.013   0.000  -0.013
    6       -0.001  -0.013   0.000  -0.013
    7       -0.001  -0.013   0.000  -0.013
    8       -0.001  -0.013   0.000  -0.013
    9        0.001   0.013   0.000   0.013
   10        0.001   0.013   0.000   0.013
   11        0.001   0.013   0.000   0.013
   12        0.001   0.013   0.000   0.013
   13        0.001   0.013   0.000   0.013
   14        0.001   0.013   0.000   0.013
   15        0.001   0.013   0.000   0.013
   16        0.001   0.013   0.000   0.013
   17       -0.001  -0.013   0.000  -0.013
   18       -0.001  -0.013   0.000  -0.013
   19       -0.001  -0.013   0.000  -0.013
   20       -0.001  -0.013   0.000  -0.013
   21       -0.001  -0.013   0.000  -0.013
   22       -0.001  -0.013   0.000  -0.013
   23       -0.001  -0.013   0.000  -0.013
   24       -0.001  -0.013   0.000  -0.013
   25        0.001   0.013   0.000   0.013
   26        0.001   0.013   0.000   0.013
   27        0.001   0.013   0.000   0.013
   28        0.001   0.013   0.000   0.013
   29        0.001   0.013   0.000   0.013
   30        0.001   0.013   0.000   0.013
   31        0.001   0.013   0.000   0.013
   32        0.001   0.013   0.000   0.013
   33        0.000   0.000   0.000   0.001
   34        0.000   0.000   0.000   0.001
   35        0.000   0.000   0.000   0.001
   36        0.000   0.000   0.000   0.001
   37       -0.000  -0.000  -0.000  -0.001
   38       -0.000  -0.000  -0.000  -0.001
   39       -0.000  -0.000  -0.000  -0.001
   40       -0.000  -0.000  -0.000  -0.001
   41        0.000   0.000   0.000   0.001
   42        0.000   0.000   0.000   0.001
   43        0.000   0.000   0.000   0.001
   44        0.000   0.000   0.000   0.001
   45       -0.000  -0.000  -0.000  -0.001
   46       -0.000  -0.000  -0.000  -0.001
   47       -0.000  -0.000  -0.000  -0.001
   48       -0.000  -0.000  -0.000  -0.001
   49        0.020   0.054   3.670   3.744
   50        0.020   0.054   3.670   3.744
   51        0.020   0.054   3.670   3.744
   52        0.020   0.054   3.670   3.744
   53       -0.020  -0.054  -3.670  -3.743
   54       -0.020  -0.054  -3.670  -3.743
   55       -0.020  -0.054  -3.670  -3.743
   56       -0.020  -0.054  -3.670  -3.743
   57        0.020   0.054   3.670   3.744
   58        0.020   0.054   3.670   3.744
   59        0.020   0.054   3.670   3.744
   60        0.020   0.054   3.670   3.744
   61       -0.020  -0.054  -3.670  -3.743
   62       -0.020  -0.054  -3.670  -3.743
   63       -0.020  -0.054  -3.670  -3.743
   64       -0.020  -0.054  -3.670  -3.743
--------------------------------------------------
tot         -0.001   0.001  -0.000  -0.000
 
 BZINTS: Fermi energy:  4.941772;688.000000 electrons
         Band energy:***********;  BLOECHL correction:  0.000000

 total amount of memory used by VASP MPI-rank0   664114. kBytes
=======================================================================

   base      :      30000. kBytes
   nonl-proj :     491069. kBytes
   fftplans  :       4588. kBytes
   grid      :      69719. kBytes
   one-center:       1990. kBytes
   wavefun   :      66748. kBytes
 
  
  
 General timing and accounting informations for this job:
 ========================================================
  
                  Total CPU time used (sec):     3251.446
                            User time (sec):     3229.112
                          System time (sec):       22.335
                         Elapsed time (sec):     3486.165
  
                   Maximum memory used (kb):     1168260.
                   Average memory used (kb):           0.
  
                          Minor page faults:       602548
                          Major page faults:         4995
                 Voluntary context switches:        22680
