       N       E                     dE             d eps       ncg     rms          rms(c)
DAV:   1     0.620204634690E+04    0.62020E+04   -0.50378E+05 61440   0.194E+03
DAV:   2    -0.886346961672E+02   -0.62907E+04   -0.61595E+04 64512   0.440E+02
DAV:   3    -0.372384285869E+03   -0.28375E+03   -0.28245E+03 88832   0.102E+02
DAV:   4    -0.376325884884E+03   -0.39416E+01   -0.39414E+01 66816   0.123E+01
DAV:   5    -0.376430219927E+03   -0.10434E+00   -0.10433E+00 86272   0.202E+00    0.750E+01
DAV:   6    -0.334866908582E+03    0.41563E+02   -0.59006E+02 61440   0.812E+01    0.999E+01
DAV:   7    -0.329882863463E+03    0.49840E+01   -0.10839E+02 61440   0.272E+01    0.436E+01
DAV:   8    -0.329629017690E+03    0.25385E+00   -0.33335E+01 79872   0.202E+01    0.314E+01
DAV:   9    -0.331563817482E+03   -0.19348E+01   -0.92767E+01 75008   0.234E+01    0.231E+01
DAV:  10    -0.327982793971E+03    0.35810E+01   -0.21648E+01 81664   0.157E+01    0.285E+00
DAV:  11    -0.328109391416E+03   -0.12660E+00   -0.10600E+00 78336   0.167E+00    0.352E+00
DAV:  12    -0.328096796093E+03    0.12595E-01   -0.47361E-01 81920   0.178E+00    0.135E+00
DAV:  13    -0.328101454677E+03   -0.46586E-02   -0.50564E-02 76544   0.435E-01    0.945E-01
DAV:  14    -0.328110924619E+03   -0.94699E-02   -0.47125E-02 88576   0.354E-01    0.393E-01
DAV:  15    -0.328110532300E+03    0.39232E-03   -0.55657E-03 68096   0.190E-01    0.162E-01
DAV:  16    -0.328110639453E+03   -0.10715E-03   -0.42261E-04 87296   0.303E-02    0.121E-01
DAV:  17    -0.328110989910E+03   -0.35046E-03   -0.13306E-03 71936   0.534E-02    0.886E-02
DAV:  18    -0.328111034918E+03   -0.45009E-04   -0.12702E-04 79616   0.197E-02    0.464E-02
DAV:  19    -0.328111039951E+03   -0.50322E-05   -0.31714E-05 85504   0.772E-03    0.261E-02
DAV:  20    -0.328111041324E+03   -0.13735E-05   -0.47447E-06 72448   0.258E-03    0.226E-02
DAV:  21    -0.328111039813E+03    0.15112E-05   -0.24772E-05 87296   0.926E-03    0.110E-02
DAV:  22    -0.328111040074E+03   -0.26124E-06   -0.26679E-06 76544   0.449E-03    0.912E-03
DAV:  23    -0.328111040236E+03   -0.16190E-06   -0.31774E-07 81920   0.112E-03    0.685E-03
DAV:  24    -0.328111040069E+03    0.16681E-06   -0.20841E-07 96768   0.968E-04    0.267E-03
DAV:  25    -0.328111040048E+03    0.21275E-07   -0.19023E-07 84224   0.879E-04    0.734E-04
DAV:  26    -0.328111040051E+03   -0.26339E-08   -0.15787E-08 65024   0.204E-04
   1 F= -.32811104E+03 E0= -.32811104E+03  d E =0.000000E+00  mag=     0.0000
