       N       E                     dE             d eps       ncg     rms          rms(c)
DAV:   1     0.603371595575E+04    0.60337E+04   -0.51710E+05 16384   0.196E+03
DAV:   2    -0.102963158177E+03   -0.61367E+04   -0.60282E+04 18432   0.446E+02
DAV:   3    -0.346732527147E+03   -0.24377E+03   -0.24301E+03 22016   0.967E+01
DAV:   4    -0.350151164794E+03   -0.34186E+01   -0.34185E+01 20224   0.116E+01
DAV:   5    -0.350256586509E+03   -0.10542E+00   -0.10542E+00 22272   0.198E+00    0.359E+01
DAV:   6    -0.333540348944E+03    0.16716E+02   -0.15984E+01 25600   0.124E+01    0.197E+01
DAV:   7    -0.328881182253E+03    0.46592E+01   -0.14441E+01 22528   0.106E+01    0.170E+01
DAV:   8    -0.328179604928E+03    0.70158E+00   -0.87857E+00 23296   0.778E+00    0.711E+00
DAV:   9    -0.328089687346E+03    0.89918E-01   -0.32321E+00 21760   0.560E+00    0.408E+00
DAV:  10    -0.328072457339E+03    0.17230E-01   -0.12923E+00 21760   0.295E+00    0.257E+00
DAV:  11    -0.328075214902E+03   -0.27576E-02   -0.21609E-01 23040   0.115E+00    0.912E-01
DAV:  12    -0.328087579272E+03   -0.12364E-01   -0.47479E-02 24576   0.401E-01    0.446E-01
DAV:  13    -0.328089577039E+03   -0.19978E-02   -0.97457E-03 18944   0.242E-01    0.200E-01
DAV:  14    -0.328090652425E+03   -0.10754E-02   -0.27738E-03 22272   0.710E-02    0.124E-01
DAV:  15    -0.328091342299E+03   -0.68987E-03   -0.19194E-03 19456   0.495E-02    0.634E-02
DAV:  16    -0.328091586655E+03   -0.24436E-03   -0.74426E-04 22528   0.271E-02    0.437E-02
DAV:  17    -0.328091701929E+03   -0.11527E-03   -0.64133E-04 20480   0.261E-02    0.207E-02
DAV:  18    -0.328091722040E+03   -0.20111E-04   -0.15069E-04 19968   0.133E-02    0.113E-02
DAV:  19    -0.328091723466E+03   -0.14265E-05   -0.58823E-06 19968   0.418E-03    0.716E-03
DAV:  20    -0.328091724276E+03   -0.81037E-06   -0.47475E-06 23552   0.280E-03    0.319E-03
DAV:  21    -0.328091724491E+03   -0.21419E-06   -0.66354E-07 24064   0.123E-03    0.184E-03
DAV:  22    -0.328091724525E+03   -0.34051E-07   -0.92571E-08 26624   0.451E-04    0.999E-04
DAV:  23    -0.328091724539E+03   -0.14305E-07   -0.33832E-08 15872   0.262E-04    0.459E-04
DAV:  24    -0.328091724554E+03   -0.15352E-07   -0.33380E-08 15872   0.199E-04    0.248E-04
DAV:  25    -0.328091724560E+03   -0.56752E-08   -0.78870E-09 14848   0.108E-04
   1 F= -.32809172E+03 E0= -.32809172E+03  d E =0.000000E+00  mag=     0.0000
