 vasp.5.4.4.18Apr17-6-g9f103f2a35 (build Oct 30 2023 17:30:16) complex          
  
 executed on             LinuxIFC date 2024.06.30  21:44:53
 running on  256 total cores
 distrk:  each k-point on  256 cores,    1 groups
 distr:  one band on NCORES_PER_BAND=   1 cores,  256 groups


--------------------------------------------------------------------------------------------------------


 INCAR:
 POTCAR:    PAW_PBE S 06Sep2000                   
 POTCAR:     PAW_PBE Cu_pv 06Sep2000              
 POTCAR:     PAW_PBE Fe_pv 02Aug2007              

 ----------------------------------------------------------------------------- 
|                                                                             |
|           W    W    AA    RRRRR   N    N  II  N    N   GGGG   !!!           |
|           W    W   A  A   R    R  NN   N  II  NN   N  G    G  !!!           |
|           W    W  A    A  R    R  N N  N  II  N N  N  G       !!!           |
|           W WW W  AAAAAA  RRRRR   N  N N  II  N  N N  G  GGG   !            |
|           WW  WW  A    A  R   R   N   NN  II  N   NN  G    G                |
|           W    W  A    A  R    R  N    N  II  N    N   GGGG   !!!           |
|                                                                             |
|      For optimal performance we recommend to set                            |
|        NCORE= 4 - approx SQRT( number of cores)                             |
|      NCORE specifies how many cores store one orbital (NPAR=cpu/NCORE).     |
|      This setting can  greatly improve the performance of VASP for DFT.     |
|      The default,   NCORE=1            might be grossly inefficient         |
|      on modern multi-core architectures or massively parallel machines.     |
|      Do your own testing !!!!                                               |
|      Unfortunately you need to use the default for GW and RPA calculations. |
|      (for HF NCORE is supported but not extensively tested yet)             |
|                                                                             |
 ----------------------------------------------------------------------------- 

 POTCAR:    PAW_PBE S 06Sep2000                   
   SHA256 =  0fc7481fb0695f01bdc6462160264c5c84044ae9ec85a907d398b887a2bc3132 S/
   COPYR  = (c) Copyright 06Sep2000 Georg Kresse                                
   COPYR  = This file is part of the software VASP. Any use, copying, and all ot
   COPYR  = If you do not have a valid VASP license, you may not use, copy or di
   VRHFIN =S : s2p4                                                             
   LEXCH  = PE                                                                  
   EATOM  =   276.8230 eV,   20.3459 Ry                                         
                                                                                
   TITEL  = PAW_PBE S 06Sep2000                                                 
   LULTRA =        F    use ultrasoft PP ?                                      
   IUNSCR =        1    unscreen: 0-lin 1-nonlin 2-no                           
   RPACOR =    1.500    partial core radius                                     
   POMASS =   32.066; ZVAL   =    6.000    mass and valenz                      
   RCORE  =    1.900    outmost cutoff radius                                   
   RWIGS  =    2.200; RWIGS  =    1.164    wigner-seitz radius (au A)           
   ENMAX  =  258.689; ENMIN  =  194.016 eV                                      
   ICORE  =        2    local potential                                         
   LCOR   =        T    correct aug charges                                     
   LPAW   =        T    paw PP                                                  
   EAUG   =  335.092                                                            
   DEXC   =    0.000                                                            
   RMAX   =    1.942    core radius for proj-oper                               
   RAUG   =    1.300    factor for augmentation sphere                          
   RDEP   =    1.954    radius for radial grids                                 
   RDEPT  =    1.744    core radius for aug-charge                              
                                                                                
   Atomic configuration                                                         
    6 entries                                                                   
     n  l   j            E        occ.                                          
     1  0  0.50     -2405.8406   2.0000                                         
     2  0  0.50      -211.7007   2.0000                                         
     2  1  1.50      -156.4958   6.0000                                         
     3  0  0.50       -17.2562   2.0000                                         
     3  1  0.50        -7.0085   4.0000                                         
     3  2  1.50        -6.8029   0.0000                                         
   Description                                                                  
     l       E           TYP  RCUT    TYP  RCUT                                 
     0    -17.2561641     23  1.900                                             
     0    -15.8743224     23  1.900                                             
     1     -7.0085400     23  1.900                                             
     1     -2.7779785     23  1.900                                             
     2     -6.8029130     23  1.900                                             
  local pseudopotential read in
  partial core-charges read in
  partial kinetic energy density read in
  atomic valenz-charges read in
  non local Contribution for L=           0  read in
    real space projection operators read in
  non local Contribution for L=           0  read in
    real space projection operators read in
  non local Contribution for L=           1  read in
    real space projection operators read in
  non local Contribution for L=           1  read in
    real space projection operators read in
    PAW grid and wavefunctions read in
 
   number of l-projection  operators is LMAX  =           4
   number of lm-projection operators is LMMAX =           8
 
 POTCAR:     PAW_PBE Cu_pv 06Sep2000              
   SHA256 =  cb7b504e2ea725fe1f25c85a9ac77d4012ce94cd394135b722c4e25ec297f1cb Cu
   COPYR  = (c) Copyright 06Sep2000 Georg Kresse                                
   COPYR  = This file is part of the software VASP. Any use, copying, and all ot
   COPYR  = If you do not have a valid VASP license, you may not use, copy or di
   VRHFIN =Cu: d10 p1                                                           
   LEXCH  = PE                                                                  
   EATOM  =  4120.1201 eV,  302.8203 Ry                                         
                                                                                
   TITEL  = PAW_PBE Cu_pv 06Sep2000                                             
   LULTRA =        F    use ultrasoft PP ?                                      
   IUNSCR =        1    unscreen: 0-lin 1-nonlin 2-no                           
   RPACOR =    1.500    partial core radius                                     
   POMASS =   63.546; ZVAL   =   17.000    mass and valenz                      
   RCORE  =    2.000    outmost cutoff radius                                   
   RWIGS  =    2.000; RWIGS  =    1.058    wigner-seitz radius (au A)           
   ENMAX  =  368.648; ENMIN  =  276.486 eV                                      
   RCLOC  =    1.304    cutoff for local pot                                    
   LCOR   =        T    correct aug charges                                     
   LPAW   =        T    paw PP                                                  
   EAUG   =  758.233                                                            
   DEXC   =    0.000                                                            
   RMAX   =    2.046    core radius for proj-oper                               
   RAUG   =    1.300    factor for augmentation sphere                          
   RDEP   =    2.025    radius for radial grids                                 
   RDEPT  =    1.558    core radius for aug-charge                              
                                                                                
   Atomic configuration                                                         
    8 entries                                                                   
     n  l   j            E        occ.                                          
     1  0  0.50     -8850.2467   2.0000                                         
     2  0  0.50     -1062.3498   2.0000                                         
     2  1  1.50      -916.8226   6.0000                                         
     3  0  0.50      -114.6929   2.0000                                         
     3  1  1.50       -72.1325   6.0000                                         
     3  2  2.50        -5.0394  10.0000                                         
     4  0  0.50        -4.6097   1.0000                                         
     4  3  2.50        -1.3606   0.0000                                         
   Description                                                                  
     l       E           TYP  RCUT    TYP  RCUT                                 
     1    -72.1324777     23  1.700                                             
     1     -1.3605826     23  1.700                                             
     2     -5.0393776     23  2.000                                             
     2     -6.3999602     23  2.000                                             
     0     -4.6097062     23  1.800                                             
     0     14.1620818     23  1.800                                             
  local pseudopotential read in
  partial core-charges read in
  partial kinetic energy density read in
  atomic valenz-charges read in
  non local Contribution for L=           1  read in
    real space projection operators read in
  non local Contribution for L=           1  read in
    real space projection operators read in
  non local Contribution for L=           2  read in
    real space projection operators read in
  non local Contribution for L=           2  read in
    real space projection operators read in
  non local Contribution for L=           0  read in
    real space projection operators read in
  non local Contribution for L=           0  read in
    real space projection operators read in
    PAW grid and wavefunctions read in
 
   number of l-projection  operators is LMAX  =           6
   number of lm-projection operators is LMMAX =          18
 
 POTCAR:     PAW_PBE Fe_pv 02Aug2007              
   SHA256 =  5d22e414b1f82158bf2c7ecb8b97b28fd0923e48cadc1c3bf74d524558f5dd32 Fe
   COPYR  = (c) Copyright 02Aug2007 Georg Kresse                                
   COPYR  = This file is part of the software VASP. Any use, copying, and all ot
   COPYR  = If you do not have a valid VASP license, you may not use, copy or di
   VRHFIN =Fe:  3pd7s1                                                          
   LEXCH  = PE                                                                  
   EATOM  =  2457.4239 eV,  180.6156 Ry                                         
                                                                                
   TITEL  = PAW_PBE Fe_pv 02Aug2007                                             
   LULTRA =        F    use ultrasoft PP ?                                      
   IUNSCR =        1    unscreen: 0-lin 1-nonlin 2-no                           
   RPACOR =    1.750    partial core radius                                     
   POMASS =   55.847; ZVAL   =   14.000    mass and valenz                      
   RCORE  =    2.200    outmost cutoff radius                                   
   RWIGS  =    2.200; RWIGS  =    1.164    wigner-seitz radius (au A)           
   ENMAX  =  293.238; ENMIN  =  219.928 eV                                      
   ICORE  =        3    local potential                                         
   LCOR   =        T    correct aug charges                                     
   LPAW   =        T    paw PP                                                  
   EAUG   =  578.342                                                            
   DEXC   =    0.000                                                            
   RMAX   =    2.249    core radius for proj-oper                               
   RAUG   =    1.300    factor for augmentation sphere                          
   RDEP   =    2.296    radius for radial grids                                 
   RDEPT  =    1.766    core radius for aug-charge                              
                                                                                
   Atomic configuration                                                         
    8 entries                                                                   
     n  l   j            E        occ.                                          
     1  0  0.50     -6993.8440   2.0000                                         
     2  0  0.50      -814.6047   2.0000                                         
     2  1  1.50      -693.3689   6.0000                                         
     3  0  0.50       -89.4732   2.0000                                         
     3  1  1.50       -55.6373   6.0000                                         
     3  2  2.50        -3.8151   7.0000                                         
     4  0  0.50        -4.2551   1.0000                                         
     4  3  2.50        -1.3606   0.0000                                         
   Description                                                                  
     l       E           TYP  RCUT    TYP  RCUT                                 
     1    -55.6372668     23  2.000                                             
     1     -5.4423304     23  2.000                                             
     2     -3.8151096     23  2.200                                             
     2     -5.1756922     23  2.200                                             
     0     -4.2550951     23  2.200                                             
     0     27.2116520     23  2.200                                             
     3     -1.3605826     23  2.200                                             
  local pseudopotential read in
  partial core-charges read in
  partial kinetic energy density read in
  atomic valenz-charges read in
  non local Contribution for L=           1  read in
    real space projection operators read in
  non local Contribution for L=           1  read in
    real space projection operators read in
  non local Contribution for L=           2  read in
    real space projection operators read in
  non local Contribution for L=           2  read in
    real space projection operators read in
  non local Contribution for L=           0  read in
    real space projection operators read in
  non local Contribution for L=           0  read in
    real space projection operators read in
    PAW grid and wavefunctions read in
 
   number of l-projection  operators is LMAX  =           6
   number of lm-projection operators is LMMAX =          18
 

 ----------------------------------------------------------------------------- 
|                                                                             |
|  ADVICE TO THIS USER RUNNING 'VASP/VAMP'   (HEAR YOUR MASTER'S VOICE ...):  |
|                                                                             |
|      You have a (more or less) 'large supercell' and for larger cells       |
|      it might be more efficient to use real space projection opertators     |
|      So try LREAL= Auto  in the INCAR   file.                               |
|      Mind:          For very  accurate calculation you might also keep the  |
|      reciprocal projection scheme          (i.e. LREAL=.FALSE.)             |
|                                                                             |
 ----------------------------------------------------------------------------- 


 ----------------------------------------------------------------------------- 
|                                                                             |
|  ADVICE TO THIS USER RUNNING 'VASP/VAMP'   (HEAR YOUR MASTER'S VOICE ...):  |
|                                                                             |
|      You enforced a specific xc-type in the INCAR file,                     |
|      a different type was found on the POTCAR file                          |
|          I HOPE YOU KNOW, WHAT YOU ARE  DOING                               |
|                                                                             |
 ----------------------------------------------------------------------------- 

  PAW_PBE S 06Sep2000                   :
 energy of atom  1       EATOM= -276.8230
 kinetic energy error for atom=    0.0007 (will be added to EATOM!!)
   PAW_PBE Cu_pv 06Sep2000              :
 energy of atom  2       EATOM=-4120.1201
 kinetic energy error for atom=    0.0094 (will be added to EATOM!!)
   PAW_PBE Fe_pv 02Aug2007              :
 energy of atom  3       EATOM=-2457.4239
 kinetic energy error for atom=    0.0025 (will be added to EATOM!!)
 
 
 POSCAR: Fe16 Cu16 S32                           
  positions in direct lattice
  No initial velocities read in
 exchange correlation table for  LEXCH =       14
   RHO(1)=    0.500       N(1)  =     2000
   RHO(2)=  100.500       N(2)  =     4000
 


--------------------------------------------------------------------------------------------------------


 ion  position               nearest neighbor table
   1  0.126  0.123  0.125-  41 2.26  37 2.26  61 2.27  49 2.28
   2  0.626  0.123  0.125-  42 2.26  38 2.26  62 2.27  50 2.28
   3  0.126  0.623  0.125-  43 2.26  39 2.26  63 2.27  51 2.28
   4  0.626  0.623  0.125-  44 2.26  40 2.26  64 2.27  52 2.28
   5  0.374  0.373  0.125-  39 2.26  41 2.26  52 2.27  62 2.28
   6  0.874  0.373  0.125-  40 2.26  42 2.26  51 2.27  61 2.28
   7  0.374  0.873  0.125-  37 2.26  43 2.26  50 2.27  64 2.28
   8  0.874  0.873  0.125-  38 2.26  44 2.26  49 2.27  63 2.28
   9  0.125  0.373  0.875-  41 2.26  45 2.26  51 2.27  55 2.27
  10  0.625  0.373  0.875-  42 2.26  46 2.26  52 2.27  56 2.27
  11  0.125  0.873  0.875-  43 2.26  47 2.26  49 2.27  53 2.27
  12  0.625  0.873  0.875-  44 2.26  48 2.26  50 2.27  54 2.27
  13  0.375  0.125  0.875-  41 2.26  46 2.26  50 2.28  53 2.28
  14  0.875  0.125  0.875-  42 2.26  45 2.26  49 2.28  54 2.28
  15  0.375  0.625  0.875-  43 2.26  48 2.26  52 2.28  55 2.28
  16  0.875  0.625  0.875-  44 2.26  47 2.26  51 2.28  56 2.28
  17  0.124  0.123  0.625-  45 2.26  33 2.26  57 2.27  53 2.28
  18  0.624  0.123  0.625-  46 2.26  34 2.26  58 2.27  54 2.28
  19  0.124  0.623  0.625-  47 2.26  35 2.26  59 2.27  55 2.28
  20  0.624  0.623  0.625-  48 2.26  36 2.26  60 2.27  56 2.28
  21  0.376  0.373  0.625-  36 2.26  46 2.26  55 2.27  57 2.28
  22  0.876  0.373  0.625-  35 2.26  45 2.26  56 2.27  58 2.28
  23  0.376  0.873  0.625-  34 2.26  48 2.26  53 2.27  59 2.28
  24  0.876  0.873  0.625-  33 2.26  47 2.26  54 2.27  60 2.28
  25  0.375  0.123  0.375-  34 2.26  37 2.26  57 2.27  62 2.27
  26  0.875  0.123  0.375-  33 2.26  38 2.26  58 2.27  61 2.27
  27  0.375  0.623  0.375-  36 2.26  39 2.26  59 2.27  64 2.27
  28  0.875  0.623  0.375-  35 2.26  40 2.26  60 2.27  63 2.27
  29  0.125  0.375  0.375-  35 2.26  39 2.26  57 2.28  61 2.28
  30  0.625  0.375  0.375-  36 2.26  40 2.26  58 2.28  62 2.28
  31  0.125  0.875  0.375-  33 2.26  37 2.26  59 2.28  63 2.28
  32  0.625  0.875  0.375-  34 2.26  38 2.26  60 2.28  64 2.28
  33  0.999  0.002  0.500-  24 2.26  31 2.26  26 2.26  17 2.26
  34  0.499  0.002  0.500-  23 2.26  32 2.26  25 2.26  18 2.26
  35  0.999  0.502  0.500-  22 2.26  29 2.26  28 2.26  19 2.26
  36  0.499  0.502  0.500-  21 2.26  30 2.26  27 2.26  20 2.26
  37  0.251  0.002  0.250-   7 2.26  31 2.26  25 2.26   1 2.26
  38  0.751  0.002  0.250-   8 2.26  32 2.26  26 2.26   2 2.26
  39  0.251  0.502  0.250-   5 2.26  29 2.26  27 2.26   3 2.26
  40  0.751  0.502  0.250-   6 2.26  30 2.26  28 2.26   4 2.26
  41  0.249  0.252  0.000-   1 2.26  13 2.26   9 2.26   5 2.26
  42  0.749  0.252  0.000-   2 2.26  14 2.26  10 2.26   6 2.26
  43  0.249  0.752  0.000-   3 2.26  15 2.26  11 2.26   7 2.26
  44  0.749  0.752  0.000-   4 2.26  16 2.26  12 2.26   8 2.26
  45  0.001  0.252  0.750-  17 2.26  14 2.26   9 2.26  22 2.26
  46  0.501  0.252  0.750-  18 2.26  13 2.26  10 2.26  21 2.26
  47  0.001  0.752  0.750-  19 2.26  16 2.26  11 2.26  24 2.26
  48  0.501  0.752  0.750-  20 2.26  15 2.26  12 2.26  23 2.26
  49  1.000  0.001  0.000-   8 2.27  11 2.27  14 2.28   1 2.28
  50  0.500  0.001  0.000-   7 2.27  12 2.27  13 2.28   2 2.28
  51  1.000  0.501  0.000-   6 2.27   9 2.27  16 2.28   3 2.28
  52  0.500  0.501  0.000-   5 2.27  10 2.27  15 2.28   4 2.28
  53  0.250  0.001  0.750-  23 2.27  11 2.27  13 2.28  17 2.28
  54  0.750  0.001  0.750-  24 2.27  12 2.27  14 2.28  18 2.28
  55  0.250  0.501  0.750-  21 2.27   9 2.27  15 2.28  19 2.28
  56  0.750  0.501  0.750-  22 2.27  10 2.27  16 2.28  20 2.28
  57  0.250  0.251  0.500-  17 2.27  25 2.27  29 2.28  21 2.28
  58  0.750  0.251  0.500-  18 2.27  26 2.27  30 2.28  22 2.28
  59  0.250  0.751  0.500-  19 2.27  27 2.27  31 2.28  23 2.28
  60  0.750  0.751  0.500-  20 2.27  28 2.27  32 2.28  24 2.28
  61  0.000  0.251  0.250-   1 2.27  26 2.27  29 2.28   6 2.28
  62  0.500  0.251  0.250-   2 2.27  25 2.27  30 2.28   5 2.28
  63  0.000  0.751  0.250-   3 2.27  28 2.27  31 2.28   8 2.28
  64  0.500  0.751  0.250-   4 2.27  27 2.27  32 2.28   7 2.28
 
  LATTYP: Found a simple monoclinic cell.
 ALAT       =    15.0006141082
 B/A-ratio  =     0.7011610274
 C/A-ratio  =     1.5721847135
 COS(beta)  =    -0.9509792994
  
  Lattice vectors:
  
 A1 = ( -10.6587040000,   0.0000000000, -10.5551150000)
 A2 = (   0.0000000000, -10.5178460000,   0.0000000000)
 A3 = (  10.8040370000,   0.0000000000,  20.9634300000)


Analysis of symmetry for initial positions (statically):
=====================================================================
 Subroutine PRICEL returns following result:
 
  LATTYP: Found a base centered monoclinic cell.
 ALAT       =    11.5298045272
 B/A-ratio  =     0.4561155384
 C/A-ratio  =     0.9028192612
 COS(beta)  =    -0.8098268646
  
  Lattice vectors:
  
 A1 = (  -2.5556762500,  -2.6294615000,   5.1674575000)
 A2 = (  -2.5556762500,   2.6294615000,   5.1674575000)
 A3 = (  -0.1453330000,   0.0000000000, -10.4083150000)
 
   8 primitive cells build up your supercell.
 

 Routine SETGRP: Setting up the symmetry group for a 
 simple monoclinic supercell.


 Subroutine GETGRP returns: Found  2 space group operations
 (whereof  1 operations were pure point group operations)
 out of a pool of  4 trial point group operations.


The static configuration has the point symmetry C_1 .
 The point group associated with its full space group is C_2 .


Analysis of symmetry for dynamics (positions and initial velocities):
=====================================================================
 Subroutine PRICEL returns following result:
 
  LATTYP: Found a base centered monoclinic cell.
 ALAT       =    11.5298045272
 B/A-ratio  =     0.4561155384
 C/A-ratio  =     0.9028192612
 COS(beta)  =    -0.8098268646
  
  Lattice vectors:
  
 A1 = (  -2.5556762500,  -2.6294615000,   5.1674575000)
 A2 = (  -2.5556762500,   2.6294615000,   5.1674575000)
 A3 = (  -0.1453330000,   0.0000000000, -10.4083150000)
 
   8 primitive cells build up your supercell.
 

 Routine SETGRP: Setting up the symmetry group for a 
 simple monoclinic supercell.


 Subroutine GETGRP returns: Found  2 space group operations
 (whereof  1 operations were pure point group operations)
 out of a pool of  4 trial point group operations.


The dynamic configuration has the point symmetry C_1 .
 The point group associated with its full space group is C_2 .


Analysis of structural, dynamic, and magnetic symmetry:
=====================================================================
 Subroutine PRICEL returns following result:
 
  LATTYP: Found a base centered monoclinic cell.
 ALAT       =    11.5298045272
 B/A-ratio  =     0.4561155384
 C/A-ratio  =     0.9028192612
 COS(beta)  =    -0.8098268646
  
  Lattice vectors:
  
 A1 = (  -2.5556762500,  -2.6294615000,   5.1674575000)
 A2 = (  -2.5556762500,   2.6294615000,   5.1674575000)
 A3 = (  -0.1453330000,   0.0000000000, -10.4083150000)
 
   8 primitive cells build up your supercell.
 

 Routine SETGRP: Setting up the symmetry group for a 
 simple monoclinic supercell.


 Subroutine GETGRP returns: Found  2 space group operations
 (whereof  1 operations were pure point group operations)
 out of a pool of  4 trial point group operations.


The magnetic configuration has the point symmetry C_1 .
 The point group associated with its full space group is C_2 .


 Subroutine INISYM returns: Found  2 space group operations
 (whereof  1 operations are pure point group operations),
 and found     8 'primitive' translations

 
 
 KPOINTS: Automatic mesh                          

Automatic generation of k-mesh.
Space group operators:
 irot       det(A)        alpha          n_x          n_y          n_z        tau_x        tau_y        tau_z
    1     1.000000     0.000001     1.000000     0.000000     0.000000     0.000000     0.000000     0.000000
    2     1.000000   180.000000     0.000000     1.000000     0.000000    -0.250000     0.000000    -0.250000
 
 Subroutine IBZKPT returns following result:
 ===========================================
 
 Found      8 irreducible k-points:
 
 Following reciprocal coordinates:
            Coordinates               Weight
  0.000000  0.000000  0.000000      1.000000
  0.500000  0.000000 -0.000000      1.000000
  0.000000  0.500000  0.000000      1.000000
  0.500000  0.500000 -0.000000      1.000000
  0.000000  0.000000  0.500000      1.000000
  0.500000  0.000000  0.500000      1.000000
  0.000000  0.500000  0.500000      1.000000
  0.500000  0.500000  0.500000      1.000000
 
 Following cartesian coordinates:
            Coordinates               Weight
  0.000000  0.000000  0.000000      1.000000
  0.047568  0.000000 -0.000664      1.000000
  0.000000  0.047538  0.000000      1.000000
  0.047568  0.047538 -0.000664      1.000000
 -0.000671  0.000000  0.048048      1.000000
  0.046897  0.000000  0.047384      1.000000
 -0.000671  0.047538  0.048048      1.000000
  0.046897  0.047538  0.047384      1.000000
 
 TETIRR: Found     24 inequivalent tetrahedra from       48
 
 Subroutine IBZKPT_HF returns following result:
 ==============================================
 
 Found      8 k-points in 1st BZ
 the following      8 k-points will be used (e.g. in the exchange kernel)
 Following reciprocal coordinates:   # in IRBZ
  0.000000  0.000000  0.000000    0.12500000   1 t-inv F
  0.500000  0.000000 -0.000000    0.12500000   2 t-inv F
  0.000000  0.500000  0.000000    0.12500000   3 t-inv F
  0.500000  0.500000 -0.000000    0.12500000   4 t-inv F
  0.000000  0.000000  0.500000    0.12500000   5 t-inv F
  0.500000  0.000000  0.500000    0.12500000   6 t-inv F
  0.000000  0.500000  0.500000    0.12500000   7 t-inv F
  0.500000  0.500000  0.500000    0.12500000   8 t-inv F


--------------------------------------------------------------------------------------------------------




 Dimension of arrays:
   k-points           NKPTS =      8   k-points in BZ     NKDIM =      8   number of bands    NBANDS=    512
   number of dos      NEDOS =    301   number of ions     NIONS =     64
   non local maximal  LDIM  =      6   non local SUM 2l+1 LMDIM =     18
   total plane-waves  NPLWV = 829440
   max r-space proj   IRMAX =      1   max aug-charges    IRDMAX=  22906
   dimension x,y,z NGX =    96 NGY =   96 NGZ =   90
   dimension x,y,z NGXF=   192 NGYF=  192 NGZF=  180
   support grid    NGXF=   192 NGYF=  192 NGZF=  180
   ions per type =              32  16  16
   NGX,Y,Z   is equivalent  to a cutoff of  15.18, 15.17, 14.37 a.u.
   NGXF,Y,Z  is equivalent  to a cutoff of  30.36, 30.35, 28.75 a.u.

 SYSTEM =  CuFeS2                                  
 POSCAR =  Fe16 Cu16 S32                           

 Startparameter for this run:
   NWRITE =      2    write-flag & timer
   PREC   = accura    normal or accurate (medium, high low for compatibility)
   ISTART =      0    job   : 0-new  1-cont  2-samecut
   ICHARG =      1    charge: 1-file 2-atom 10-const
   ISPIN  =      2    spin polarized calculation?
   LNONCOLLINEAR =      F non collinear calculations
   LSORBIT =      F    spin-orbit coupling
   INIWAV =      1    electr: 0-lowe 1-rand  2-diag
   LASPH  =      F    aspherical Exc in radial PAW
   METAGGA=      F    non-selfconsistent MetaGGA calc.

 Electronic Relaxation 1
   ENCUT  =  700.0 eV  51.45 Ry    7.17 a.u.  22.68 22.69 22.46*2*pi/ulx,y,z
   ENINI  =  700.0     initial cutoff
   ENAUG  =  758.2 eV  augmentation charge cutoff
   NELM   =    500;   NELMIN=  2; NELMDL= -5     # of ELM steps 
   EDIFF  = 0.1E-07   stopping-criterion for ELM
   LREAL  =      F    real-space projection
   NLSPLINE    = F    spline interpolate recip. space projectors
   LCOMPAT=      F    compatible to vasp.4.4
   GGA_COMPAT  = T    GGA compatible to vasp.4.4-vasp.4.6
   LMAXPAW     = -100 max onsite density
   LMAXMIX     =    4 max onsite mixed and CHGCAR
   VOSKOWN=      0    Vosko Wilk Nusair interpolation
   ROPT   =    0.00000   0.00000   0.00000
 Ionic relaxation
   EDIFFG = -.1E-04   stopping-criterion for IOM
   NSW    =      0    number of steps for IOM
   NBLOCK =      1;   KBLOCK =      1    inner block; outer block 
   IBRION =     -1    ionic relax: 0-MD 1-quasi-New 2-CG
   NFREE  =      0    steps in history (QN), initial steepest desc. (CG)
   ISIF   =      2    stress and relaxation
   IWAVPR =     10    prediction:  0-non 1-charg 2-wave 3-comb
   ISYM   =      2    0-nonsym 1-usesym 2-fastsym
   LCORR  =      T    Harris-Foulkes like correction to forces

   POTIM  = 0.5000    time-step for ionic-motion
   TEIN   =    0.0    initial temperature
   TEBEG  =    0.0;   TEEND  =   0.0 temperature during run
   SMASS  =  -3.00    Nose mass-parameter (am)
   estimated Nose-frequenzy (Omega)   =  0.10E-29 period in steps =****** mass=  -0.253E-26a.u.
   SCALEE = 1.0000    scale energy and forces
   NPACO  =    256;   APACO  = 16.0  distance and # of slots for P.C.
   PSTRESS=    0.0 pullay stress

  Mass of Ions in am
   POMASS =  32.07 63.55 55.85
  Ionic Valenz
   ZVAL   =   6.00 17.00 14.00
  Atomic Wigner-Seitz radii
   RWIGS  =  -1.00 -1.00 -1.00
  virtual crystal weights 
   VCA    =   1.00  1.00  1.00
   NELECT =     688.0000    total number of electrons
   NUPDOWN=      -1.0000    fix difference up-down

 DOS related values:
   EMIN   =  10.00;   EMAX   =-10.00  energy-range for DOS
   EFERMI =   0.00
   ISMEAR =    -5;   SIGMA  =   0.03  broadening in eV -4-tet -1-fermi 0-gaus

 Electronic relaxation 2 (details)
   IALGO  =     38    algorithm
   LDIAG  =      T    sub-space diagonalisation (order eigenvalues)
   LSUBROT=      F    optimize rotation matrix (better conditioning)
   TURBO    =      0    0=normal 1=particle mesh
   IRESTART =      0    0=no restart 2=restart with 2 vectors
   NREBOOT  =      0    no. of reboots
   NMIN     =      0    reboot dimension
   EREF     =   0.00    reference energy to select bands
   IMIX   =      4    mixing-type and parameters
     AMIX     =   0.40;   BMIX     =  1.00
     AMIX_MAG =   1.60;   BMIX_MAG =  1.00
     AMIN     =   0.10
     WC   =   100.;   INIMIX=   1;  MIXPRE=   1;  MAXMIX= -45

 Intra band minimization:
   WEIMIN = 0.0000     energy-eigenvalue tresh-hold
   EBREAK =  0.49E-11  absolut break condition
   DEPER  =   0.30     relativ break condition  

   TIME   =   0.40     timestep for ELM

  volume/ion in A,a.u.               =      17.98       121.33
  Fermi-wavevector in a.u.,A,eV,Ry     =   1.379165  2.606243 25.879577  1.902095
  Thomas-Fermi vector in A             =   2.504159
 
 Write flags
   LWAVE        =      T    write WAVECAR
   LDOWNSAMPLE  =      F    k-point downsampling of WAVECAR
   LCHARG       =      T    write CHGCAR
   LVTOT        =      F    write LOCPOT, total local potential
   LVHAR        =      F    write LOCPOT, Hartree potential only
   LELF         =      F    write electronic localiz. function (ELF)
   LORBIT       =     11    0 simple, 1 ext, 2 COOP (PROOUT), +10 PAW based schemes


 Dipole corrections
   LMONO  =      F    monopole corrections only (constant potential shift)
   LDIPOL =      F    correct potential (dipole corrections)
   IDIPOL =      0    1-x, 2-y, 3-z, 4-all directions 
   EPSILON=  1.0000000 bulk dielectric constant

 LDA+U is selected, type is set to LDAUTYPE =  2
   angular momentum for each species LDAUL =     2    2    2
   U (eV)           for each species LDAUU =   0.0  0.1  4.7
   J (eV)           for each species LDAUJ =   0.0  0.0  0.0
 Exchange correlation treatment:
   GGA     =    PS    GGA type
   LEXCH   =    14    internal setting for exchange type
   VOSKOWN=      0    Vosko Wilk Nusair interpolation
   LHFCALC =     F    Hartree Fock is set to
   LHFONE  =     F    Hartree Fock one center treatment
   AEXX    =    0.0000 exact exchange contribution

 Linear response parameters
   LEPSILON=     F    determine dielectric tensor
   LRPA    =     F    only Hartree local field effects (RPA)
   LNABLA  =     F    use nabla operator in PAW spheres
   LVEL    =     F    velocity operator in full k-point grid
   LINTERFAST=   F  fast interpolation
   KINTER  =     0    interpolate to denser k-point grid
   CSHIFT  =0.1000    complex shift for real part using Kramers Kronig
   OMEGAMAX=  -1.0    maximum frequency
   DEG_THRESHOLD= 0.2000000E-02 threshold for treating states as degnerate
   RTIME   =   -0.100 relaxation time in fs
  (WPLASMAI=    0.000 imaginary part of plasma frequency in eV, 0.658/RTIME)
   DFIELD  = 0.0000000 0.0000000 0.0000000 field for delta impulse in time
 
 Orbital magnetization related:
   ORBITALMAG=     F  switch on orbital magnetization
   LCHIMAG   =     F  perturbation theory with respect to B field
   DQ        =  0.001000  dq finite difference perturbation B field
   LLRAUG    =     F  two centre corrections for induced B field

 PEAD related settings:
   LPEAD      =     T    switch on PEAD
   IPEAD      =     4    finite difference order for dpsi/dk
   LCALCPOL   =     T    calculate macroscopic polarization
   LCALCEPS   =     F    calculate dielectric tensor
   EFIELD_PEAD=    0.0000    0.0000    0.0000
   SKIP_EDOTP =     F
   LRPA       =     F
   SKIP_SCF   =     F


--------------------------------------------------------------------------------------------------------


 Static calculation
 charge density and potential will be updated during run
 spin polarized calculation
 Variant of blocked Davidson
 Davidson routine will perform the subspace rotation
 perform sub-space diagonalisation
    after iterative eigenvector-optimisation
 modified Broyden-mixing scheme, WC =      100.0
 initial mixing is a Kerker type mixing with AMIX =  0.4000 and BMIX =      1.0000
 Hartree-type preconditioning will be used
 using additional bands          168
 reciprocal scheme for non local part
 use partial core corrections
 calculate Harris-corrections to forces 
   (improved forces if not selfconsistent)
 use gradient corrections 
 use of overlap-Matrix (Vanderbilt PP)
 Fermi weights with tetrahedron method with Bloechl corrections


--------------------------------------------------------------------------------------------------------


  energy-cutoff  :      700.00
  volume of cell :     1150.71
      direct lattice vectors                 reciprocal lattice vectors
    10.513371000  0.000000000  0.146800000     0.095135519  0.000000000 -0.001328393
     0.000000000 10.517846000  0.000000000     0.000000000  0.095076501  0.000000000
     0.145333000  0.000000000 10.408315000    -0.001341802  0.000000000  0.096095767

  length of vectors
    10.514395847 10.517846000 10.409329605     0.095144793  0.095076501  0.096105134


 
 k-points in units of 2pi/SCALE and weight: Automatic mesh                          
   0.00000000  0.00000000  0.00000000       0.125
   0.04756776  0.00000000 -0.00066420       0.125
   0.00000000  0.04753825  0.00000000       0.125
   0.04756776  0.04753825 -0.00066420       0.125
  -0.00067090  0.00000000  0.04804788       0.125
   0.04689686  0.00000000  0.04738369       0.125
  -0.00067090  0.04753825  0.04804788       0.125
   0.04689686  0.04753825  0.04738369       0.125
 
 k-points in reciprocal lattice and weights: Automatic mesh                          
   0.00000000  0.00000000  0.00000000       0.125
   0.50000000  0.00000000 -0.00000000       0.125
   0.00000000  0.50000000  0.00000000       0.125
   0.50000000  0.50000000 -0.00000000       0.125
   0.00000000  0.00000000  0.50000000       0.125
   0.50000000  0.00000000  0.50000000       0.125
   0.00000000  0.50000000  0.50000000       0.125
   0.50000000  0.50000000  0.50000000       0.125
 
 position of ions in fractional coordinates (direct lattice) 
   0.12619500  0.12326000  0.12525300
   0.62619500  0.12326000  0.12525300
   0.12619500  0.62326000  0.12525300
   0.62619500  0.62326000  0.12525300
   0.37380500  0.37326000  0.12474700
   0.87380500  0.37326000  0.12474700
   0.37380500  0.87326000  0.12474700
   0.87380500  0.87326000  0.12474700
   0.12500000  0.37266700  0.87500000
   0.62500000  0.37266700  0.87500000
   0.12500000  0.87266700  0.87500000
   0.62500000  0.87266700  0.87500000
   0.37500000  0.12487000  0.87500000
   0.87500000  0.12487000  0.87500000
   0.37500000  0.62487000  0.87500000
   0.87500000  0.62487000  0.87500000
   0.12380500  0.12326000  0.62474700
   0.62380500  0.12326000  0.62474700
   0.12380500  0.62326000  0.62474700
   0.62380500  0.62326000  0.62474700
   0.37619500  0.37326000  0.62525300
   0.87619500  0.37326000  0.62525300
   0.37619500  0.87326000  0.62525300
   0.87619500  0.87326000  0.62525300
   0.37500000  0.12266700  0.37500000
   0.87500000  0.12266700  0.37500000
   0.37500000  0.62266700  0.37500000
   0.87500000  0.62266700  0.37500000
   0.12500000  0.37487000  0.37500000
   0.62500000  0.37487000  0.37500000
   0.12500000  0.87487000  0.37500000
   0.62500000  0.87487000  0.37500000
   0.99948600  0.00153400  0.50000400
   0.49948600  0.00153400  0.50000400
   0.99948600  0.50153400  0.50000400
   0.49948600  0.50153400  0.50000400
   0.25051400  0.00153400  0.24999600
   0.75051400  0.00153400  0.24999600
   0.25051400  0.50153400  0.24999600
   0.75051400  0.50153400  0.24999600
   0.24948600  0.25153400  0.00000400
   0.74948600  0.25153400  0.00000400
   0.24948600  0.75153400  0.00000400
   0.74948600  0.75153400  0.00000400
   0.00051400  0.25153400  0.74999600
   0.50051400  0.25153400  0.74999600
   0.00051400  0.75153400  0.74999600
   0.50051400  0.75153400  0.74999600
   0.99971900  0.00143700  0.00010100
   0.49971900  0.00143700  0.00010100
   0.99971900  0.50143700  0.00010100
   0.49971900  0.50143700  0.00010100
   0.25028100  0.00143700  0.74989900
   0.75028100  0.00143700  0.74989900
   0.25028100  0.50143700  0.74989900
   0.75028100  0.50143700  0.74989900
   0.24971900  0.25143700  0.50010100
   0.74971900  0.25143700  0.50010100
   0.24971900  0.75143700  0.50010100
   0.74971900  0.75143700  0.50010100
   0.00028100  0.25143700  0.24989900
   0.50028100  0.25143700  0.24989900
   0.00028100  0.75143700  0.24989900
   0.50028100  0.75143700  0.24989900
 
 position of ions in cartesian coordinates  (Angst):
   1.34493825  1.29642970  1.32219810
   6.60162375  1.29642970  1.39559810
   1.34493825  6.55535270  1.32219810
   6.60162375  6.55535270  1.39559810
   3.94808050  3.92589120  1.35328065
   9.20476600  3.92589120  1.42668065
   3.94808050  9.18481420  1.35328065
   9.20476600  9.18481420  1.42668065
   1.44133775  3.91965412  9.12562562
   6.69802325  3.91965412  9.19902562
   1.44133775  9.17857712  9.12562562
   6.69802325  9.17857712  9.19902562
   4.06968050  1.31336343  9.16232562
   9.32636600  1.31336343  9.23572563
   4.06968050  6.57228643  9.16232562
   9.32636600  6.57228643  9.23572563
   1.39240425  1.29642970  6.52073815
   6.64908975  1.29642970  6.59413815
   1.39240425  6.55535270  6.52073815
   6.64908975  6.55535270  6.59413815
   4.04594750  3.92589120  6.56305560
   9.30263300  3.92589120  6.63645560
   4.04594750  9.18481420  6.56305560
   9.30263300  9.18481420  6.63645560
   3.99701400  1.29019262  3.95816812
   9.25369950  1.29019262  4.03156812
   3.99701400  6.54911562  3.95816812
   9.25369950  6.54911562  4.03156812
   1.36867125  3.94282493  3.92146812
   6.62535675  3.94282493  3.99486812
   1.36867125  9.20174793  3.92146812
   6.62535675  9.20174793  3.99486812
  10.58063421  0.01613438  5.35092368
   5.32394871  0.01613438  5.27752368
  10.58063421  5.27505738  5.35092368
   5.32394871  5.27505738  5.27752368
   2.67007929  0.01613438  2.63881257
   7.92676479  0.01613438  2.71221257
   2.67007929  5.27505738  2.63881257
   7.92676479  5.27505738  2.71221257
   2.62293946  2.64559588  0.03666618
   7.87962496  2.64559588  0.11006618
   2.62293946  7.90451888  0.03666618
   7.87962496  7.90451888  0.11006618
   0.11440304  2.64559588  7.80627007
   5.37108854  2.64559588  7.87967007
   0.11440304  7.90451888  7.80627007
   5.37108854  7.90451888  7.87967007
  10.51043142  0.01511414  0.14780999
   5.25374592  0.01511414  0.07440999
  10.51043142  5.27403714  0.14780999
   5.25374592  5.27403714  0.07440999
   2.74028208  0.01511414  7.84192626
   7.99696758  0.01511414  7.91532626
   2.74028208  5.27403714  7.84192626
   7.99696758  5.27403714  7.91532626
   2.69806967  2.64457564  5.24186749
   7.95475517  2.64457564  5.31526749
   2.69806967  7.90349864  5.24186749
   7.95475517  7.90349864  5.31526749
   0.03927283  2.64457564  2.60106876
   5.29595833  2.64457564  2.67446876
   0.03927283  7.90349864  2.60106876
   5.29595833  7.90349864  2.67446876
 


--------------------------------------------------------------------------------------------------------


 k-point  1 :   0.0000 0.0000 0.0000  plane waves:   48417
 k-point  2 :   0.5000 0.0000-0.0000  plane waves:   48374
 k-point  3 :   0.0000 0.5000 0.0000  plane waves:   48446
 k-point  4 :   0.5000 0.5000-0.0000  plane waves:   48424
 k-point  5 :   0.0000 0.0000 0.5000  plane waves:   48384
 k-point  6 :   0.5000 0.0000 0.5000  plane waves:   48406
 k-point  7 :   0.0000 0.5000 0.5000  plane waves:   48352
 k-point  8 :   0.5000 0.5000 0.5000  plane waves:   48332

 maximum and minimum number of plane-waves per node :     48446    48332

 maximum number of plane-waves:     48446
 maximum index in each direction: 
   IXMAX=   22   IYMAX=   22   IZMAX=   22
   IXMIN=  -23   IYMIN=  -23   IZMIN=  -22


 serial   3D FFT for wavefunctions
 parallel 3D FFT for charge:
    minimum data exchange during FFTs selected (reduces bandwidth)


 total amount of memory used by VASP MPI-rank0   349631. kBytes
=======================================================================

   base      :      30000. kBytes
   nonl-proj :     217907. kBytes
   fftplans  :       4588. kBytes
   grid      :      69719. kBytes
   one-center:       1990. kBytes
   wavefun   :      25427. kBytes
 
     INWAV:  cpu time    0.0000: real time    0.0000
 Broyden mixing: mesh for mixing (old mesh)
   NGX = 45   NGY = 45   NGZ = 45
  (NGX  =192   NGY  =192   NGZ  =180)
  gives a total of  91125 points

 initial charge density was supplied:
 number of electron     688.0000190 magnetization       0.0000000
 keeping initial charge density in first step


--------------------------------------------------------------------------------------------------------


 Maximum index for augmentation-charges          897 (set IRDMAX)


--------------------------------------------------------------------------------------------------------


 First call to EWALD:  gamma=   0.169
 Maximum number of real-space cells 3x 3x 3
 Maximum number of reciprocal cells 3x 3x 3

    FEWALD:  cpu time    0.0031: real time    0.0035


--------------------------------------- Iteration      1(   1)  ---------------------------------------


    POTLOK:  cpu time    0.3402: real time    0.3767
    SETDIJ:  cpu time    0.0192: real time    0.0194
     EDDAV:  cpu time   86.3844: real time   87.0867
 BZINTS: Fermi energy: 14.903579;688.000000 electrons
         Band energy:***********;  BLOECHL correction: -0.005029
       DOS:  cpu time    0.0380: real time    0.0381
    --------------------------------------------
      LOOP:  cpu time   86.7819: real time   87.5209

 eigenvalue-minimisations  : 16384
 total energy-change (2. order) : 0.6047619E+04  (-0.5166032E+05)
 number of electron     688.0000190 magnetization       0.0000000
 augmentation part      688.0000190 magnetization       0.0000000

 Free energy of the ion-electron system (eV)
  ---------------------------------------------------
  alpha Z        PSCENC =      2356.07489209
  Ewald energy   TEWEN  =    -62469.94685307
  -Hartree energ DENC   =    -42904.06511269
  -exchange      EXHF   =         0.00000000
  -V(xc)+E(xc)   XCENC  =      3285.04818710
  PAW double counting   =    112224.67741066  -115917.87443654
  entropy T*S    EENTRO =         0.00000000
  eigenvalues    EBANDS =     -4546.36030167
  atomic energy  EATOM  =    114020.06510763
  Solvation  Ediel_sol  =         0.00000000
  ---------------------------------------------------
  free energy    TOTEN  =      6047.61889352 eV

  energy without entropy =     6047.61889352  energy(sigma->0) =     6047.61889352


--------------------------------------------------------------------------------------------------------




--------------------------------------- Iteration      1(   2)  ---------------------------------------


     EDDAV:  cpu time  106.2137: real time  107.0218
 BZINTS: Fermi energy:  5.370943;688.000000 electrons
         Band energy:***********;  BLOECHL correction:  0.000000
       DOS:  cpu time    0.0061: real time    0.0061
    --------------------------------------------
      LOOP:  cpu time  106.2197: real time  107.0278

 eigenvalue-minimisations  : 18688
 total energy-change (2. order) :-0.6138818E+04  (-0.6029496E+04)
 number of electron     688.0000190 magnetization       0.0000000
 augmentation part      688.0000190 magnetization       0.0000000

 Free energy of the ion-electron system (eV)
  ---------------------------------------------------
  alpha Z        PSCENC =      2356.07489209
  Ewald energy   TEWEN  =    -62469.94685307
  -Hartree energ DENC   =    -42904.06511269
  -exchange      EXHF   =         0.00000000
  -V(xc)+E(xc)   XCENC  =      3285.04818710
  PAW double counting   =    112224.67741066  -115917.87443654
  entropy T*S    EENTRO =         0.00000000
  eigenvalues    EBANDS =    -10685.17788110
  atomic energy  EATOM  =    114020.06510763
  Solvation  Ediel_sol  =         0.00000000
  ---------------------------------------------------
  free energy    TOTEN  =       -91.19868592 eV

  energy without entropy =      -91.19868592  energy(sigma->0) =      -91.19868592


--------------------------------------------------------------------------------------------------------




--------------------------------------- Iteration      1(   3)  ---------------------------------------


     EDDAV:  cpu time  144.0192: real time  145.0394
 BZINTS: Fermi energy:  4.914648;688.000000 electrons
         Band energy:***********;  BLOECHL correction:  0.000000
       DOS:  cpu time    0.0059: real time    0.0059
    --------------------------------------------
      LOOP:  cpu time  144.0251: real time  145.0453

 eigenvalue-minimisations  : 21760
 total energy-change (2. order) :-0.2412886E+03  (-0.2405502E+03)
 number of electron     688.0000190 magnetization       0.0000000
 augmentation part      688.0000190 magnetization       0.0000000

 Free energy of the ion-electron system (eV)
  ---------------------------------------------------
  alpha Z        PSCENC =      2356.07489209
  Ewald energy   TEWEN  =    -62469.94685307
  -Hartree energ DENC   =    -42904.06511269
  -exchange      EXHF   =         0.00000000
  -V(xc)+E(xc)   XCENC  =      3285.04818710
  PAW double counting   =    112224.67741066  -115917.87443654
  entropy T*S    EENTRO =         0.00000000
  eigenvalues    EBANDS =    -10926.46644032
  atomic energy  EATOM  =    114020.06510763
  Solvation  Ediel_sol  =         0.00000000
  ---------------------------------------------------
  free energy    TOTEN  =      -332.48724513 eV

  energy without entropy =     -332.48724513  energy(sigma->0) =     -332.48724513


--------------------------------------------------------------------------------------------------------




--------------------------------------- Iteration      1(   4)  ---------------------------------------


     EDDAV:  cpu time  132.4057: real time  133.3488
 BZINTS: Fermi energy:  4.974971;688.000000 electrons
         Band energy:***********;  BLOECHL correction:  0.000000
       DOS:  cpu time    0.0066: real time    0.0066
    --------------------------------------------
      LOOP:  cpu time  132.4123: real time  133.3555

 eigenvalue-minimisations  : 20480
 total energy-change (2. order) :-0.3391450E+01  (-0.3391299E+01)
 number of electron     688.0000190 magnetization       0.0000000
 augmentation part      688.0000190 magnetization       0.0000000

 Free energy of the ion-electron system (eV)
  ---------------------------------------------------
  alpha Z        PSCENC =      2356.07489209
  Ewald energy   TEWEN  =    -62469.94685307
  -Hartree energ DENC   =    -42904.06511269
  -exchange      EXHF   =         0.00000000
  -V(xc)+E(xc)   XCENC  =      3285.04818710
  PAW double counting   =    112224.67741066  -115917.87443654
  entropy T*S    EENTRO =         0.00000000
  eigenvalues    EBANDS =    -10929.85789010
  atomic energy  EATOM  =    114020.06510763
  Solvation  Ediel_sol  =         0.00000000
  ---------------------------------------------------
  free energy    TOTEN  =      -335.87869491 eV

  energy without entropy =     -335.87869491  energy(sigma->0) =     -335.87869491


--------------------------------------------------------------------------------------------------------




--------------------------------------- Iteration      1(   5)  ---------------------------------------


     EDDAV:  cpu time  139.5395: real time  140.5270
 BZINTS: Fermi energy:  4.896277;688.000000 electrons
         Band energy:***********;  BLOECHL correction:  0.000000
       DOS:  cpu time    0.0066: real time    0.0066
    CHARGE:  cpu time    1.4041: real time    1.4141
    MIXING:  cpu time    0.0052: real time    0.0053
    --------------------------------------------
      LOOP:  cpu time  140.9555: real time  141.9530

 eigenvalue-minimisations  : 20992
 total energy-change (2. order) :-0.1045132E+00  (-0.1045126E+00)
 number of electron     688.0000359 magnetization       0.0000000
 augmentation part      282.9585142 magnetization       0.0000000

 Broyden mixing:
  rms(total) = 0.21323E+01    rms(broyden)= 0.21320E+01
  rms(prec ) = 0.23966E+01
  weight for this iteration     100.00

 Free energy of the ion-electron system (eV)
  ---------------------------------------------------
  alpha Z        PSCENC =      2356.07489209
  Ewald energy   TEWEN  =    -62469.94685307
  -Hartree energ DENC   =    -42904.06511269
  -exchange      EXHF   =         0.00000000
  -V(xc)+E(xc)   XCENC  =      3285.04818710
  PAW double counting   =    112224.67741066  -115917.87443654
  entropy T*S    EENTRO =         0.00000000
  eigenvalues    EBANDS =    -10929.96240327
  atomic energy  EATOM  =    114020.06510763
  Solvation  Ediel_sol  =         0.00000000
  ---------------------------------------------------
  free energy    TOTEN  =      -335.98320809 eV

  energy without entropy =     -335.98320809  energy(sigma->0) =     -335.98320809


--------------------------------------------------------------------------------------------------------




--------------------------------------- Iteration      1(   6)  ---------------------------------------


    POTLOK:  cpu time    0.1426: real time    0.1436
    SETDIJ:  cpu time    0.0131: real time    0.0132
     EDDAV:  cpu time  164.5444: real time  165.6996
 BZINTS: Fermi energy:  4.968093;688.000000 electrons
         Band energy:***********;  BLOECHL correction:  0.000000
       DOS:  cpu time    0.0066: real time    0.0066
    CHARGE:  cpu time    1.4025: real time    1.4119
    MIXING:  cpu time    0.0029: real time    0.0090
    --------------------------------------------
      LOOP:  cpu time  166.1122: real time  167.2839

 eigenvalue-minimisations  : 24576
 total energy-change (2. order) : 0.6004494E+01  (-0.4906804E+00)
 number of electron     688.0000358 magnetization       0.0000000
 augmentation part      281.7443907 magnetization       0.0000000

 Broyden mixing:
  rms(total) = 0.11415E+01    rms(broyden)= 0.11415E+01
  rms(prec ) = 0.12814E+01
  weight for this iteration     100.00

 eigenvalues of (default mixing * dielectric matrix)
  average eigenvalue GAMMA=   0.9000
  0.9000

 Free energy of the ion-electron system (eV)
  ---------------------------------------------------
  alpha Z        PSCENC =      2356.07489209
  Ewald energy   TEWEN  =    -62469.94685307
  -Hartree energ DENC   =    -42973.75365749
  -exchange      EXHF   =         0.00000000
  -V(xc)+E(xc)   XCENC  =      3286.81533099
  PAW double counting   =    112892.44014262  -116594.48945271
  entropy T*S    EENTRO =         0.00000000
  eigenvalues    EBANDS =    -10847.18422402
  atomic energy  EATOM  =    114020.06510763
  Solvation  Ediel_sol  =         0.00000000
  ---------------------------------------------------
  free energy    TOTEN  =      -329.97871397 eV

  energy without entropy =     -329.97871397  energy(sigma->0) =     -329.97871397


--------------------------------------------------------------------------------------------------------




--------------------------------------- Iteration      1(   7)  ---------------------------------------


    POTLOK:  cpu time    0.1431: real time    0.1440
    SETDIJ:  cpu time    0.0133: real time    0.0133
     EDDAV:  cpu time  159.0692: real time  160.1724
 BZINTS: Fermi energy:  4.997290;688.000000 electrons
         Band energy:***********;  BLOECHL correction:  0.000000
       DOS:  cpu time    0.0064: real time    0.0064
    CHARGE:  cpu time    1.4045: real time    1.4138
    MIXING:  cpu time    0.0019: real time    0.0025
    --------------------------------------------
      LOOP:  cpu time  160.6382: real time  161.7525

 eigenvalue-minimisations  : 23296
 total energy-change (2. order) : 0.1804346E+01  (-0.4054294E+00)
 number of electron     688.0000359 magnetization       0.0000000
 augmentation part      282.6904598 magnetization       0.0000000

 Broyden mixing:
  rms(total) = 0.77218E+00    rms(broyden)= 0.77217E+00
  rms(prec ) = 0.80983E+00
  weight for this iteration     100.00

 eigenvalues of (default mixing * dielectric matrix)
  average eigenvalue GAMMA=   1.0137
  1.4754  0.5521

 Free energy of the ion-electron system (eV)
  ---------------------------------------------------
  alpha Z        PSCENC =      2356.07489209
  Ewald energy   TEWEN  =    -62469.94685307
  -Hartree energ DENC   =    -42924.61043630
  -exchange      EXHF   =         0.00000000
  -V(xc)+E(xc)   XCENC  =      3286.15684746
  PAW double counting   =    112723.63368118  -116413.04507910
  entropy T*S    EENTRO =         0.00000000
  eigenvalues    EBANDS =    -10906.50252802
  atomic energy  EATOM  =    114020.06510763
  Solvation  Ediel_sol  =         0.00000000
  ---------------------------------------------------
  free energy    TOTEN  =      -328.17436813 eV

  energy without entropy =     -328.17436813  energy(sigma->0) =     -328.17436813


--------------------------------------------------------------------------------------------------------




--------------------------------------- Iteration      1(   8)  ---------------------------------------


    POTLOK:  cpu time    0.1430: real time    0.1439
    SETDIJ:  cpu time    0.0132: real time    0.0132
     EDDAV:  cpu time  156.2395: real time  157.3189
 BZINTS: Fermi energy:  5.000177;688.000000 electrons
         Band energy:***********;  BLOECHL correction:  0.000000
       DOS:  cpu time    0.0064: real time    0.0064
    CHARGE:  cpu time    1.4016: real time    1.4111
    MIXING:  cpu time    0.0018: real time    0.0018
    --------------------------------------------
      LOOP:  cpu time  157.8055: real time  158.8954

 eigenvalue-minimisations  : 22528
 total energy-change (2. order) : 0.1453334E+00  (-0.1119272E+00)
 number of electron     688.0000359 magnetization       0.0000000
 augmentation part      282.3655882 magnetization       0.0000000

 Broyden mixing:
  rms(total) = 0.33286E+00    rms(broyden)= 0.33286E+00
  rms(prec ) = 0.34519E+00
  weight for this iteration     100.00

 eigenvalues of (default mixing * dielectric matrix)
  average eigenvalue GAMMA=   1.0361
  1.9089  0.7036  0.4958

 Free energy of the ion-electron system (eV)
  ---------------------------------------------------
  alpha Z        PSCENC =      2356.07489209
  Ewald energy   TEWEN  =    -62469.94685307
  -Hartree energ DENC   =    -42943.19062493
  -exchange      EXHF   =         0.00000000
  -V(xc)+E(xc)   XCENC  =      3286.28963015
  PAW double counting   =    112584.80489878  -116278.73924246
  entropy T*S    EENTRO =         0.00000000
  eigenvalues    EBANDS =    -10883.38684291
  atomic energy  EATOM  =    114020.06510763
  Solvation  Ediel_sol  =         0.00000000
  ---------------------------------------------------
  free energy    TOTEN  =      -328.02903473 eV

  energy without entropy =     -328.02903473  energy(sigma->0) =     -328.02903473


--------------------------------------------------------------------------------------------------------




--------------------------------------- Iteration      1(   9)  ---------------------------------------


    POTLOK:  cpu time    0.1431: real time    0.1440
    SETDIJ:  cpu time    0.0131: real time    0.0131
     EDDAV:  cpu time  162.6290: real time  163.7489
 BZINTS: Fermi energy:  5.005126;688.000000 electrons
         Band energy:***********;  BLOECHL correction:  0.000000
       DOS:  cpu time    0.0064: real time    0.0064
    CHARGE:  cpu time    1.4030: real time    1.4118
    MIXING:  cpu time    0.0017: real time    0.0017
    --------------------------------------------
      LOOP:  cpu time  164.1963: real time  165.3260

 eigenvalue-minimisations  : 23040
 total energy-change (2. order) : 0.1081537E-03  (-0.2394664E-01)
 number of electron     688.0000359 magnetization       0.0000000
 augmentation part      282.1663954 magnetization       0.0000000

 Broyden mixing:
  rms(total) = 0.16750E+00    rms(broyden)= 0.16750E+00
  rms(prec ) = 0.17909E+00
  weight for this iteration     100.00

 eigenvalues of (default mixing * dielectric matrix)
  average eigenvalue GAMMA=   1.0569
  1.8515  1.2079  0.6791  0.4891

 Free energy of the ion-electron system (eV)
  ---------------------------------------------------
  alpha Z        PSCENC =      2356.07489209
  Ewald energy   TEWEN  =    -62469.94685307
  -Hartree energ DENC   =    -42958.19918263
  -exchange      EXHF   =         0.00000000
  -V(xc)+E(xc)   XCENC  =      3286.71728802
  PAW double counting   =    112536.19828110  -116231.27386108
  entropy T*S    EENTRO =         0.00000000
  eigenvalues    EBANDS =    -10867.66459864
  atomic energy  EATOM  =    114020.06510763
  Solvation  Ediel_sol  =         0.00000000
  ---------------------------------------------------
  free energy    TOTEN  =      -328.02892658 eV

  energy without entropy =     -328.02892658  energy(sigma->0) =     -328.02892658


--------------------------------------------------------------------------------------------------------




--------------------------------------- Iteration      1(  10)  ---------------------------------------


    POTLOK:  cpu time    0.1408: real time    0.1418
    SETDIJ:  cpu time    0.0131: real time    0.0132
     EDDAV:  cpu time  156.6337: real time  157.7045
 BZINTS: Fermi energy:  4.984194;688.000000 electrons
         Band energy:***********;  BLOECHL correction:  0.000000
       DOS:  cpu time    0.0065: real time    0.0065
    CHARGE:  cpu time    1.4022: real time    1.4119
    MIXING:  cpu time    0.0019: real time    0.0019
    --------------------------------------------
      LOOP:  cpu time  158.1982: real time  159.2798

 eigenvalue-minimisations  : 22272
 total energy-change (2. order) :-0.1318035E-01  (-0.2487615E-01)
 number of electron     688.0000359 magnetization       0.0000000
 augmentation part      282.2070512 magnetization       0.0000000

 Broyden mixing:
  rms(total) = 0.16504E+00    rms(broyden)= 0.16504E+00
  rms(prec ) = 0.19162E+00
  weight for this iteration     100.00

 eigenvalues of (default mixing * dielectric matrix)
  average eigenvalue GAMMA=   0.9869
  1.7669  1.5897  0.6726  0.5525  0.3528

 Free energy of the ion-electron system (eV)
  ---------------------------------------------------
  alpha Z        PSCENC =      2356.07489209
  Ewald energy   TEWEN  =    -62469.94685307
  -Hartree energ DENC   =    -42948.53647700
  -exchange      EXHF   =         0.00000000
  -V(xc)+E(xc)   XCENC  =      3286.28702781
  PAW double counting   =    112431.97797648  -116125.59985706
  entropy T*S    EENTRO =         0.00000000
  eigenvalues    EBANDS =    -10878.36392381
  atomic energy  EATOM  =    114020.06510763
  Solvation  Ediel_sol  =         0.00000000
  ---------------------------------------------------
  free energy    TOTEN  =      -328.04210692 eV

  energy without entropy =     -328.04210692  energy(sigma->0) =     -328.04210692


--------------------------------------------------------------------------------------------------------




--------------------------------------- Iteration      1(  11)  ---------------------------------------


    POTLOK:  cpu time    0.1428: real time    0.1437
    SETDIJ:  cpu time    0.0131: real time    0.0132
     EDDAV:  cpu time  134.5223: real time  135.4803
 BZINTS: Fermi energy:  4.987972;688.000000 electrons
         Band energy:***********;  BLOECHL correction:  0.000000
       DOS:  cpu time    0.0065: real time    0.0065
    CHARGE:  cpu time    1.4086: real time    1.4183
    MIXING:  cpu time    0.0021: real time    0.0026
    --------------------------------------------
      LOOP:  cpu time  136.0954: real time  137.0646

 eigenvalue-minimisations  : 20480
 total energy-change (2. order) : 0.6698855E-02  (-0.1329085E-01)
 number of electron     688.0000359 magnetization       0.0000000
 augmentation part      282.2462962 magnetization       0.0000000

 Broyden mixing:
  rms(total) = 0.59252E-01    rms(broyden)= 0.59248E-01
  rms(prec ) = 0.62515E-01
  weight for this iteration     100.00

 eigenvalues of (default mixing * dielectric matrix)
  average eigenvalue GAMMA=   1.1334
  2.1742  2.1742  0.8870  0.6590  0.5762  0.3300

 Free energy of the ion-electron system (eV)
  ---------------------------------------------------
  alpha Z        PSCENC =      2356.07489209
  Ewald energy   TEWEN  =    -62469.94685307
  -Hartree energ DENC   =    -42951.33356489
  -exchange      EXHF   =         0.00000000
  -V(xc)+E(xc)   XCENC  =      3286.51621419
  PAW double counting   =    112372.03594716  -116065.59768080
  entropy T*S    EENTRO =         0.00000000
  eigenvalues    EBANDS =    -10875.84947038
  atomic energy  EATOM  =    114020.06510763
  Solvation  Ediel_sol  =         0.00000000
  ---------------------------------------------------
  free energy    TOTEN  =      -328.03540807 eV

  energy without entropy =     -328.03540807  energy(sigma->0) =     -328.03540807


--------------------------------------------------------------------------------------------------------




--------------------------------------- Iteration      1(  12)  ---------------------------------------


    POTLOK:  cpu time    0.1412: real time    0.1421
    SETDIJ:  cpu time    0.0133: real time    0.0133
     EDDAV:  cpu time  135.0587: real time  136.0131
 BZINTS: Fermi energy:  4.984629;688.000000 electrons
         Band energy:***********;  BLOECHL correction:  0.000000
       DOS:  cpu time    0.0065: real time    0.0065
    CHARGE:  cpu time    1.4044: real time    1.4144
    MIXING:  cpu time    0.0021: real time    0.0021
    --------------------------------------------
      LOOP:  cpu time  136.6262: real time  137.5915

 eigenvalue-minimisations  : 20480
 total energy-change (2. order) :-0.4224177E-02  (-0.1503312E-02)
 number of electron     688.0000359 magnetization       0.0000000
 augmentation part      282.2170084 magnetization       0.0000000

 Broyden mixing:
  rms(total) = 0.23105E-01    rms(broyden)= 0.23104E-01
  rms(prec ) = 0.25959E-01
  weight for this iteration     100.00

 eigenvalues of (default mixing * dielectric matrix)
  average eigenvalue GAMMA=   1.1180
  2.2465  2.2465  1.0242  0.6930  0.6400  0.6400  0.3361

 Free energy of the ion-electron system (eV)
  ---------------------------------------------------
  alpha Z        PSCENC =      2356.07489209
  Ewald energy   TEWEN  =    -62469.94685307
  -Hartree energ DENC   =    -42953.09742856
  -exchange      EXHF   =         0.00000000
  -V(xc)+E(xc)   XCENC  =      3286.52048902
  PAW double counting   =    112302.28359504  -115996.33213395
  entropy T*S    EENTRO =         0.00000000
  eigenvalues    EBANDS =    -10873.60730043
  atomic energy  EATOM  =    114020.06510763
  Solvation  Ediel_sol  =         0.00000000
  ---------------------------------------------------
  free energy    TOTEN  =      -328.03963224 eV

  energy without entropy =     -328.03963224  energy(sigma->0) =     -328.03963224


--------------------------------------------------------------------------------------------------------




--------------------------------------- Iteration      1(  13)  ---------------------------------------


    POTLOK:  cpu time    0.1444: real time    0.1453
    SETDIJ:  cpu time    0.0131: real time    0.0132
     EDDAV:  cpu time  159.9267: real time  161.0123
 BZINTS: Fermi energy:  4.980206;688.000000 electrons
         Band energy:***********;  BLOECHL correction:  0.000000
       DOS:  cpu time    0.0066: real time    0.0066
    CHARGE:  cpu time    1.4033: real time    1.4131
    MIXING:  cpu time    0.0021: real time    0.0021
    --------------------------------------------
      LOOP:  cpu time  161.4963: real time  162.5926

 eigenvalue-minimisations  : 22272
 total energy-change (2. order) :-0.5323162E-03  (-0.3454065E-03)
 number of electron     688.0000359 magnetization       0.0000000
 augmentation part      282.2218312 magnetization       0.0000000

 Broyden mixing:
  rms(total) = 0.13558E-01    rms(broyden)= 0.13557E-01
  rms(prec ) = 0.14886E-01
  weight for this iteration     100.00

 eigenvalues of (default mixing * dielectric matrix)
  average eigenvalue GAMMA=   1.1288
  2.2837  2.2837  1.1140  1.1140  0.6693  0.6139  0.6139  0.3378

 Free energy of the ion-electron system (eV)
  ---------------------------------------------------
  alpha Z        PSCENC =      2356.07489209
  Ewald energy   TEWEN  =    -62469.94685307
  -Hartree energ DENC   =    -42952.02267677
  -exchange      EXHF   =         0.00000000
  -V(xc)+E(xc)   XCENC  =      3286.49217423
  PAW double counting   =    112283.10507315  -115976.89345098
  entropy T*S    EENTRO =         0.00000000
  eigenvalues    EBANDS =    -10874.91443084
  atomic energy  EATOM  =    114020.06510763
  Solvation  Ediel_sol  =         0.00000000
  ---------------------------------------------------
  free energy    TOTEN  =      -328.04016456 eV

  energy without entropy =     -328.04016456  energy(sigma->0) =     -328.04016456


--------------------------------------------------------------------------------------------------------




--------------------------------------- Iteration      1(  14)  ---------------------------------------


    POTLOK:  cpu time    0.1386: real time    0.1425
    SETDIJ:  cpu time    0.0131: real time    0.0131
     EDDAV:  cpu time  132.0048: real time  132.9388
 BZINTS: Fermi energy:  4.978468;688.000000 electrons
         Band energy:***********;  BLOECHL correction:  0.000000
       DOS:  cpu time    0.0065: real time    0.0066
    CHARGE:  cpu time    1.4032: real time    1.4124
    MIXING:  cpu time    0.0021: real time    0.0021
    --------------------------------------------
      LOOP:  cpu time  133.5684: real time  134.5156

 eigenvalue-minimisations  : 20224
 total energy-change (2. order) :-0.4011811E-03  (-0.1506811E-03)
 number of electron     688.0000359 magnetization       0.0000000
 augmentation part      282.2247972 magnetization       0.0000000

 Broyden mixing:
  rms(total) = 0.66471E-02    rms(broyden)= 0.66467E-02
  rms(prec ) = 0.69121E-02
  weight for this iteration     100.00

 eigenvalues of (default mixing * dielectric matrix)
  average eigenvalue GAMMA=   1.1970
  2.4650  2.4650  1.4620  1.4620  0.3378  0.6180  0.6180  0.7000  0.6448

 Free energy of the ion-electron system (eV)
  ---------------------------------------------------
  alpha Z        PSCENC =      2356.07489209
  Ewald energy   TEWEN  =    -62469.94685307
  -Hartree energ DENC   =    -42952.22997554
  -exchange      EXHF   =         0.00000000
  -V(xc)+E(xc)   XCENC  =      3286.50491125
  PAW double counting   =    112272.18175198  -115966.08583373
  entropy T*S    EENTRO =         0.00000000
  eigenvalues    EBANDS =    -10874.60456636
  atomic energy  EATOM  =    114020.06510763
  Solvation  Ediel_sol  =         0.00000000
  ---------------------------------------------------
  free energy    TOTEN  =      -328.04056574 eV

  energy without entropy =     -328.04056574  energy(sigma->0) =     -328.04056574


--------------------------------------------------------------------------------------------------------




--------------------------------------- Iteration      1(  15)  ---------------------------------------


    POTLOK:  cpu time    0.1425: real time    0.1434
    SETDIJ:  cpu time    0.0131: real time    0.0132
     EDDAV:  cpu time  188.8418: real time  190.1019
 BZINTS: Fermi energy:  4.977477;688.000000 electrons
         Band energy:***********;  BLOECHL correction:  0.000000
       DOS:  cpu time    0.0066: real time    0.0066
    CHARGE:  cpu time    1.4076: real time    1.4172
    MIXING:  cpu time    0.0023: real time    0.0023
    --------------------------------------------
      LOOP:  cpu time  190.4139: real time  191.6847

 eigenvalue-minimisations  : 25600
 total energy-change (2. order) :-0.1637973E-03  (-0.4320473E-04)
 number of electron     688.0000359 magnetization       0.0000000
 augmentation part      282.2200699 magnetization       0.0000000

 Broyden mixing:
  rms(total) = 0.36719E-02    rms(broyden)= 0.36716E-02
  rms(prec ) = 0.39195E-02
  weight for this iteration     100.00

 eigenvalues of (default mixing * dielectric matrix)
  average eigenvalue GAMMA=   1.1982
  2.7426  2.3052  1.7891  1.1273  1.1273  0.3378  0.6200  0.6200  0.7014  0.6117

 Free energy of the ion-electron system (eV)
  ---------------------------------------------------
  alpha Z        PSCENC =      2356.07489209
  Ewald energy   TEWEN  =    -62469.94685307
  -Hartree energ DENC   =    -42952.39194647
  -exchange      EXHF   =         0.00000000
  -V(xc)+E(xc)   XCENC  =      3286.50493723
  PAW double counting   =    112269.36720878  -115963.27068576
  entropy T*S    EENTRO =         0.00000000
  eigenvalues    EBANDS =    -10874.44338997
  atomic energy  EATOM  =    114020.06510763
  Solvation  Ediel_sol  =         0.00000000
  ---------------------------------------------------
  free energy    TOTEN  =      -328.04072954 eV

  energy without entropy =     -328.04072954  energy(sigma->0) =     -328.04072954


--------------------------------------------------------------------------------------------------------




--------------------------------------- Iteration      1(  16)  ---------------------------------------


    POTLOK:  cpu time    0.1433: real time    0.1443
    SETDIJ:  cpu time    0.0132: real time    0.0132
     EDDAV:  cpu time  147.4945: real time  148.5136
 BZINTS: Fermi energy:  4.977430;688.000000 electrons
         Band energy:***********;  BLOECHL correction:  0.000000
       DOS:  cpu time    0.0066: real time    0.0066
    CHARGE:  cpu time    1.4031: real time    1.4128
    MIXING:  cpu time    0.0026: real time    0.0033
    --------------------------------------------
      LOOP:  cpu time  149.0633: real time  150.0938

 eigenvalue-minimisations  : 21504
 total energy-change (2. order) :-0.6293424E-04  (-0.1622432E-04)
 number of electron     688.0000359 magnetization       0.0000000
 augmentation part      282.2234718 magnetization       0.0000000

 Broyden mixing:
  rms(total) = 0.26209E-02    rms(broyden)= 0.26207E-02
  rms(prec ) = 0.27910E-02
  weight for this iteration     100.00

 eigenvalues of (default mixing * dielectric matrix)
  average eigenvalue GAMMA=   1.2571
  3.0819  2.1439  2.1439  1.3972  1.3972  0.3378  0.7829  0.6167  0.6167  0.7110
  0.5991

 Free energy of the ion-electron system (eV)
  ---------------------------------------------------
  alpha Z        PSCENC =      2356.07489209
  Ewald energy   TEWEN  =    -62469.94685307
  -Hartree energ DENC   =    -42952.25712818
  -exchange      EXHF   =         0.00000000
  -V(xc)+E(xc)   XCENC  =      3286.50247400
  PAW double counting   =    112268.86545348  -115962.75082370
  entropy T*S    EENTRO =         0.00000000
  eigenvalues    EBANDS =    -10874.59391473
  atomic energy  EATOM  =    114020.06510763
  Solvation  Ediel_sol  =         0.00000000
  ---------------------------------------------------
  free energy    TOTEN  =      -328.04079247 eV

  energy without entropy =     -328.04079247  energy(sigma->0) =     -328.04079247


--------------------------------------------------------------------------------------------------------




--------------------------------------- Iteration      1(  17)  ---------------------------------------


    POTLOK:  cpu time    0.1414: real time    0.1424
    SETDIJ:  cpu time    0.0131: real time    0.0132
     EDDAV:  cpu time  151.9439: real time  152.9891
 BZINTS: Fermi energy:  4.977421;688.000000 electrons
         Band energy:***********;  BLOECHL correction:  0.000000
       DOS:  cpu time    0.0066: real time    0.0066
    CHARGE:  cpu time    1.4013: real time    1.4109
    MIXING:  cpu time    0.0024: real time    0.0024
    --------------------------------------------
      LOOP:  cpu time  153.5087: real time  154.5646

 eigenvalue-minimisations  : 21760
 total energy-change (2. order) :-0.3929784E-04  (-0.1668457E-04)
 number of electron     688.0000359 magnetization       0.0000000
 augmentation part      282.2210363 magnetization       0.0000000

 Broyden mixing:
  rms(total) = 0.13775E-02    rms(broyden)= 0.13771E-02
  rms(prec ) = 0.14721E-02
  weight for this iteration     100.00

 eigenvalues of (default mixing * dielectric matrix)
  average eigenvalue GAMMA=   1.3603
  4.1025  2.3387  2.3387  1.5117  1.5117  1.0066  0.3378  0.6072  0.6072  0.7101
  0.6674  0.5839

 Free energy of the ion-electron system (eV)
  ---------------------------------------------------
  alpha Z        PSCENC =      2356.07489209
  Ewald energy   TEWEN  =    -62469.94685307
  -Hartree energ DENC   =    -42952.36922477
  -exchange      EXHF   =         0.00000000
  -V(xc)+E(xc)   XCENC  =      3286.50441534
  PAW double counting   =    112269.73730249  -115963.63733468
  entropy T*S    EENTRO =         0.00000000
  eigenvalues    EBANDS =    -10874.46913680
  atomic energy  EATOM  =    114020.06510763
  Solvation  Ediel_sol  =         0.00000000
  ---------------------------------------------------
  free energy    TOTEN  =      -328.04083177 eV

  energy without entropy =     -328.04083177  energy(sigma->0) =     -328.04083177


--------------------------------------------------------------------------------------------------------




--------------------------------------- Iteration      1(  18)  ---------------------------------------


    POTLOK:  cpu time    0.1397: real time    0.1407
    SETDIJ:  cpu time    0.0131: real time    0.0131
     EDDAV:  cpu time  133.3368: real time  134.2629
 BZINTS: Fermi energy:  4.977380;688.000000 electrons
         Band energy:***********;  BLOECHL correction:  0.000000
       DOS:  cpu time    0.0065: real time    0.0066
    CHARGE:  cpu time    1.4201: real time    1.4294
    MIXING:  cpu time    0.0024: real time    0.0024
    --------------------------------------------
      LOOP:  cpu time  134.9187: real time  135.8552

 eigenvalue-minimisations  : 19968
 total energy-change (2. order) :-0.1189075E-04  (-0.8804209E-05)
 number of electron     688.0000359 magnetization       0.0000000
 augmentation part      282.2218872 magnetization       0.0000000

 Broyden mixing:
  rms(total) = 0.62003E-03    rms(broyden)= 0.61962E-03
  rms(prec ) = 0.66318E-03
  weight for this iteration     100.00

 eigenvalues of (default mixing * dielectric matrix)
  average eigenvalue GAMMA=   1.3542
  4.3118  2.3823  2.3823  1.6611  1.2523  1.2523  0.3378  0.8783  0.6083  0.6083
  0.7160  0.5791  0.6347

 Free energy of the ion-electron system (eV)
  ---------------------------------------------------
  alpha Z        PSCENC =      2356.07489209
  Ewald energy   TEWEN  =    -62469.94685307
  -Hartree energ DENC   =    -42952.31794708
  -exchange      EXHF   =         0.00000000
  -V(xc)+E(xc)   XCENC  =      3286.50340384
  PAW double counting   =    112270.47876175  -115964.37418409
  entropy T*S    EENTRO =         0.00000000
  eigenvalues    EBANDS =    -10874.52402473
  atomic energy  EATOM  =    114020.06510763
  Solvation  Ediel_sol  =         0.00000000
  ---------------------------------------------------
  free energy    TOTEN  =      -328.04084366 eV

  energy without entropy =     -328.04084366  energy(sigma->0) =     -328.04084366


--------------------------------------------------------------------------------------------------------




--------------------------------------- Iteration      1(  19)  ---------------------------------------


    POTLOK:  cpu time    0.1398: real time    0.1409
    SETDIJ:  cpu time    0.0132: real time    0.0133
     EDDAV:  cpu time  126.7479: real time  127.6338
 BZINTS: Fermi energy:  4.977378;688.000000 electrons
         Band energy:***********;  BLOECHL correction:  0.000000
       DOS:  cpu time    0.0066: real time    0.0066
    CHARGE:  cpu time    1.4020: real time    1.4117
    MIXING:  cpu time    0.0026: real time    0.0026
    --------------------------------------------
      LOOP:  cpu time  128.3121: real time  129.2089

 eigenvalue-minimisations  : 19456
 total energy-change (2. order) :-0.9696960E-06  (-0.4628163E-06)
 number of electron     688.0000359 magnetization       0.0000000
 augmentation part      282.2220537 magnetization       0.0000000

 Broyden mixing:
[...]
   -.420E+02 0.975E+01 -.957E+00   0.429E+02 -.981E+01 0.969E+00   -.859E+00 0.624E-01 -.119E-01   0.479E-05 -.154E-04 0.583E-05
   -.420E+02 0.975E+01 -.957E+00   0.429E+02 -.981E+01 0.969E+00   -.859E+00 0.624E-01 -.119E-01   0.481E-05 -.154E-04 0.583E-05
   -.420E+02 0.975E+01 -.957E+00   0.429E+02 -.981E+01 0.969E+00   -.859E+00 0.624E-01 -.119E-01   0.479E-05 -.154E-04 0.583E-05
   -.420E+02 0.975E+01 -.957E+00   0.429E+02 -.981E+01 0.969E+00   -.859E+00 0.624E-01 -.119E-01   0.481E-05 -.154E-04 0.583E-05
   0.420E+02 0.975E+01 0.957E+00   -.429E+02 -.981E+01 -.969E+00   0.859E+00 0.624E-01 0.119E-01   -.480E-05 -.154E-04 -.583E-05
   0.420E+02 0.975E+01 0.957E+00   -.429E+02 -.981E+01 -.969E+00   0.859E+00 0.624E-01 0.119E-01   -.480E-05 -.154E-04 -.583E-05
   0.420E+02 0.975E+01 0.957E+00   -.429E+02 -.981E+01 -.969E+00   0.859E+00 0.624E-01 0.119E-01   -.480E-05 -.154E-04 -.582E-05
   0.420E+02 0.975E+01 0.957E+00   -.429E+02 -.981E+01 -.969E+00   0.859E+00 0.624E-01 0.119E-01   -.480E-05 -.154E-04 -.582E-05
   0.525E-07 -.347E+02 0.726E-07   -.121E-12 0.355E+02 -.107E-13   -.666E-24 -.802E+00 -.103E-23   0.497E-10 -.957E-05 0.259E-08
   0.526E-07 -.347E+02 0.726E-07   -.133E-12 0.355E+02 -.382E-13   -.630E-24 -.802E+00 -.620E-24   -.110E-09 -.957E-05 -.259E-08
   0.525E-07 -.347E+02 0.726E-07   -.114E-12 0.355E+02 0.142E-13   0.646E-26 -.802E+00 0.414E-24   0.497E-10 -.955E-05 0.259E-08
   0.525E-07 -.347E+02 0.726E-07   -.114E-12 0.355E+02 -.426E-13   0.743E-25 -.802E+00 -.310E-24   -.110E-09 -.955E-05 -.259E-08
   -.185E-08 0.497E+02 0.361E-07   0.140E-12 -.506E+02 -.107E-13   -.213E-24 0.924E+00 -.414E-24   -.103E-07 -.979E-05 0.135E-09
   -.185E-08 0.497E+02 0.361E-07   0.167E-12 -.506E+02 0.178E-13   0.100E-24 0.924E+00 0.476E-23   0.104E-07 -.979E-05 -.136E-09
   -.185E-08 0.497E+02 0.361E-07   0.142E-12 -.506E+02 0.284E-13   0.242E-24 0.924E+00 -.290E-23   -.103E-07 -.979E-05 0.135E-09
   -.185E-08 0.497E+02 0.361E-07   0.114E-12 -.506E+02 0.568E-13   0.100E-24 0.924E+00 0.207E-23   0.104E-07 -.979E-05 -.136E-09
   0.205E+01 -.914E+01 0.485E+00   -.202E+01 0.877E+01 -.494E+00   -.254E-01 0.370E+00 0.628E-02   0.229E-04 -.667E-04 -.142E-06
   0.205E+01 -.914E+01 0.485E+00   -.202E+01 0.877E+01 -.494E+00   -.254E-01 0.370E+00 0.628E-02   0.230E-04 -.667E-04 -.136E-06
   0.205E+01 -.914E+01 0.485E+00   -.202E+01 0.877E+01 -.494E+00   -.254E-01 0.370E+00 0.628E-02   0.229E-04 -.666E-04 -.151E-06
   0.205E+01 -.914E+01 0.485E+00   -.202E+01 0.877E+01 -.494E+00   -.254E-01 0.370E+00 0.628E-02   0.230E-04 -.666E-04 -.144E-06
   -.205E+01 -.914E+01 -.485E+00   0.202E+01 0.877E+01 0.494E+00   0.254E-01 0.370E+00 -.628E-02   -.230E-04 -.667E-04 0.143E-06
   -.205E+01 -.914E+01 -.485E+00   0.202E+01 0.877E+01 0.494E+00   0.254E-01 0.370E+00 -.628E-02   -.229E-04 -.667E-04 0.135E-06
   -.205E+01 -.914E+01 -.485E+00   0.202E+01 0.877E+01 0.494E+00   0.254E-01 0.370E+00 -.628E-02   -.230E-04 -.666E-04 0.151E-06
   -.205E+01 -.914E+01 -.485E+00   0.202E+01 0.877E+01 0.494E+00   0.254E-01 0.370E+00 -.628E-02   -.229E-04 -.666E-04 0.143E-06
   0.205E+01 -.914E+01 0.485E+00   -.202E+01 0.877E+01 -.494E+00   -.254E-01 0.370E+00 0.628E-02   0.229E-04 -.667E-04 -.143E-06
   0.205E+01 -.914E+01 0.485E+00   -.202E+01 0.877E+01 -.494E+00   -.254E-01 0.370E+00 0.628E-02   0.230E-04 -.667E-04 -.134E-06
   0.205E+01 -.914E+01 0.485E+00   -.202E+01 0.877E+01 -.494E+00   -.254E-01 0.370E+00 0.628E-02   0.229E-04 -.666E-04 -.152E-06
   0.205E+01 -.914E+01 0.485E+00   -.202E+01 0.877E+01 -.494E+00   -.254E-01 0.370E+00 0.628E-02   0.230E-04 -.666E-04 -.143E-06
   -.205E+01 -.914E+01 -.485E+00   0.202E+01 0.877E+01 0.494E+00   0.254E-01 0.370E+00 -.628E-02   -.230E-04 -.667E-04 0.144E-06
   -.205E+01 -.914E+01 -.485E+00   0.202E+01 0.877E+01 0.494E+00   0.254E-01 0.370E+00 -.628E-02   -.229E-04 -.667E-04 0.134E-06
   -.205E+01 -.914E+01 -.485E+00   0.202E+01 0.877E+01 0.494E+00   0.254E-01 0.370E+00 -.628E-02   -.230E-04 -.666E-04 0.153E-06
   -.205E+01 -.914E+01 -.485E+00   0.202E+01 0.877E+01 0.494E+00   0.254E-01 0.370E+00 -.628E-02   -.229E-04 -.666E-04 0.142E-06
   -.244E+01 -.909E+01 0.520E+00   0.239E+01 0.860E+01 -.534E+00   0.492E-01 0.490E+00 0.100E-01   0.116E-04 -.179E-04 0.867E-05
   -.244E+01 -.909E+01 0.520E+00   0.239E+01 0.860E+01 -.534E+00   0.492E-01 0.490E+00 0.100E-01   0.116E-04 -.179E-04 0.866E-05
   -.244E+01 -.909E+01 0.520E+00   0.239E+01 0.860E+01 -.534E+00   0.492E-01 0.490E+00 0.100E-01   0.116E-04 -.178E-04 0.867E-05
   -.244E+01 -.909E+01 0.520E+00   0.239E+01 0.860E+01 -.534E+00   0.492E-01 0.490E+00 0.100E-01   0.116E-04 -.178E-04 0.867E-05
   0.244E+01 -.909E+01 -.520E+00   -.239E+01 0.860E+01 0.534E+00   -.492E-01 0.490E+00 -.100E-01   -.116E-04 -.179E-04 -.867E-05
   0.244E+01 -.909E+01 -.520E+00   -.239E+01 0.860E+01 0.534E+00   -.492E-01 0.490E+00 -.100E-01   -.116E-04 -.179E-04 -.866E-05
   0.244E+01 -.909E+01 -.520E+00   -.239E+01 0.860E+01 0.534E+00   -.492E-01 0.490E+00 -.100E-01   -.116E-04 -.178E-04 -.867E-05
   0.244E+01 -.909E+01 -.520E+00   -.239E+01 0.860E+01 0.534E+00   -.492E-01 0.490E+00 -.100E-01   -.116E-04 -.178E-04 -.867E-05
   -.244E+01 -.909E+01 0.520E+00   0.239E+01 0.860E+01 -.534E+00   0.492E-01 0.490E+00 0.100E-01   0.116E-04 -.179E-04 0.867E-05
   -.244E+01 -.909E+01 0.520E+00   0.239E+01 0.860E+01 -.534E+00   0.492E-01 0.490E+00 0.100E-01   0.116E-04 -.179E-04 0.866E-05
   -.244E+01 -.909E+01 0.520E+00   0.239E+01 0.860E+01 -.534E+00   0.492E-01 0.490E+00 0.100E-01   0.116E-04 -.178E-04 0.867E-05
   -.244E+01 -.909E+01 0.520E+00   0.239E+01 0.860E+01 -.534E+00   0.492E-01 0.490E+00 0.100E-01   0.116E-04 -.178E-04 0.867E-05
   0.244E+01 -.909E+01 -.520E+00   -.239E+01 0.860E+01 0.534E+00   -.492E-01 0.490E+00 -.100E-01   -.116E-04 -.179E-04 -.867E-05
   0.244E+01 -.909E+01 -.520E+00   -.239E+01 0.860E+01 0.534E+00   -.492E-01 0.490E+00 -.100E-01   -.116E-04 -.179E-04 -.866E-05
   0.244E+01 -.909E+01 -.520E+00   -.239E+01 0.860E+01 0.534E+00   -.492E-01 0.490E+00 -.100E-01   -.116E-04 -.178E-04 -.867E-05
   0.244E+01 -.909E+01 -.520E+00   -.239E+01 0.860E+01 0.534E+00   -.492E-01 0.490E+00 -.100E-01   -.116E-04 -.178E-04 -.867E-05
 -----------------------------------------------------------------------------------------------
   -.207E-06 -.158E+02 0.323E-03   -.124E-12 -.124E-12 -.332E-12   -.229E-15 0.157E+02 -.173E-16   -.441E-12 -.175E-02 -.115E-10
 
 
 POSITION                                       TOTAL-FORCE (eV/Angst)
 -----------------------------------------------------------------------------------
      1.34494      1.29643      1.32220        -0.000095     -0.001128      0.000453
      6.60162      1.29643      1.39560        -0.000095     -0.001128      0.000453
      1.34494      6.55535      1.32220        -0.000095     -0.001128      0.000453
      6.60162      6.55535      1.39560        -0.000095     -0.001128      0.000453
      3.94808      3.92589      1.35328         0.000095     -0.001128     -0.000453
      9.20477      3.92589      1.42668         0.000095     -0.001128     -0.000453
      3.94808      9.18481      1.35328         0.000095     -0.001128     -0.000453
      9.20477      9.18481      1.42668         0.000095     -0.001128     -0.000453
      1.44134      3.91965      9.12563        -0.000000     -0.001019     -0.000000
      6.69802      3.91965      9.19903        -0.000000     -0.001019     -0.000000
      1.44134      9.17858      9.12563         0.000000     -0.001019     -0.000000
      6.69802      9.17858      9.19903         0.000000     -0.001019     -0.000000
      4.06968      1.31336      9.16233         0.000000      0.000838     -0.000000
      9.32637      1.31336      9.23573         0.000000      0.000838     -0.000000
      4.06968      6.57229      9.16233        -0.000000      0.000838     -0.000000
      9.32637      6.57229      9.23573         0.000000      0.000838     -0.000000
      1.39240      1.29643      6.52074         0.000095     -0.001128     -0.000453
      6.64909      1.29643      6.59414         0.000095     -0.001128     -0.000453
      1.39240      6.55535      6.52074         0.000095     -0.001128     -0.000453
      6.64909      6.55535      6.59414         0.000095     -0.001128     -0.000453
      4.04595      3.92589      6.56306        -0.000095     -0.001128      0.000453
      9.30263      3.92589      6.63646        -0.000095     -0.001128      0.000453
      4.04595      9.18481      6.56306        -0.000095     -0.001128      0.000453
      9.30263      9.18481      6.63646        -0.000095     -0.001128      0.000453
      3.99701      1.29019      3.95817         0.000000     -0.001019     -0.000000
      9.25370      1.29019      4.03157         0.000000     -0.001019     -0.000000
      3.99701      6.54912      3.95817        -0.000000     -0.001019     -0.000000
      9.25370      6.54912      4.03157         0.000000     -0.001019     -0.000000
      1.36867      3.94282      3.92147         0.000000      0.000838     -0.000000
      6.62536      3.94282      3.99487        -0.000000      0.000838     -0.000000
      1.36867      9.20175      3.92147         0.000000      0.000838     -0.000000
      6.62536      9.20175      3.99487        -0.000000      0.000838     -0.000000
     10.58063      0.01613      5.35092         0.000211     -0.000441     -0.002308
      5.32395      0.01613      5.27752         0.000211     -0.000441     -0.002308
     10.58063      5.27506      5.35092         0.000211     -0.000441     -0.002308
      5.32395      5.27506      5.27752         0.000211     -0.000441     -0.002308
      2.67008      0.01613      2.63881        -0.000211     -0.000441      0.002308
      7.92676      0.01613      2.71221        -0.000211     -0.000441      0.002308
      2.67008      5.27506      2.63881        -0.000211     -0.000441      0.002308
      7.92676      5.27506      2.71221        -0.000211     -0.000441      0.002308
      2.62294      2.64560      0.03667         0.000211     -0.000441     -0.002308
      7.87962      2.64560      0.11007         0.000211     -0.000441     -0.002308
      2.62294      7.90452      0.03667         0.000211     -0.000441     -0.002308
      7.87962      7.90452      0.11007         0.000211     -0.000441     -0.002308
      0.11440      2.64560      7.80627        -0.000211     -0.000441      0.002308
      5.37109      2.64560      7.87967        -0.000211     -0.000441      0.002308
      0.11440      7.90452      7.80627        -0.000211     -0.000441      0.002308
      5.37109      7.90452      7.87967        -0.000211     -0.000441      0.002308
     10.51043      0.01511      0.14781         0.000358      0.001659     -0.003992
      5.25375      0.01511      0.07441         0.000358      0.001659     -0.003992
     10.51043      5.27404      0.14781         0.000358      0.001659     -0.003992
      5.25375      5.27404      0.07441         0.000358      0.001659     -0.003992
      2.74028      0.01511      7.84193        -0.000358      0.001659      0.003992
      7.99697      0.01511      7.91533        -0.000358      0.001659      0.003992
      2.74028      5.27404      7.84193        -0.000358      0.001659      0.003992
      7.99697      5.27404      7.91533        -0.000358      0.001659      0.003992
      2.69807      2.64458      5.24187         0.000358      0.001659     -0.003992
      7.95476      2.64458      5.31527         0.000358      0.001659     -0.003992
      2.69807      7.90350      5.24187         0.000358      0.001659     -0.003992
      7.95476      7.90350      5.31527         0.000358      0.001659     -0.003992
      0.03927      2.64458      2.60107        -0.000358      0.001659      0.003992
      5.29596      2.64458      2.67447        -0.000358      0.001659      0.003992
      0.03927      7.90350      2.60107        -0.000358      0.001659      0.003992
      5.29596      7.90350      2.67447        -0.000358      0.001659      0.003992
 -----------------------------------------------------------------------------------
    total drift:                               -0.000000     -0.028117      0.000323


--------------------------------------------------------------------------------------------------------



  FREE ENERGIE OF THE ION-ELECTRON SYSTEM (eV)
  ---------------------------------------------------
  free  energy   TOTEN  =      -328.04084495 eV

  energy  without entropy=     -328.04084495  energy(sigma->0) =     -328.04084495
 


--------------------------------------------------------------------------------------------------------


    POTLOK:  cpu time    0.1501: real time    0.1509


--------------------------------------------------------------------------------------------------------


 writing wavefunctions
     LOOP+:  cpu time 3469.9607: real time 3494.4912
    4ORBIT:  cpu time    0.0000: real time    0.0000
 


 total charge     
 
# of ion       s       p       d       tot
------------------------------------------
    1        1.314   2.410   0.000   3.724
    2        1.314   2.410   0.000   3.724
    3        1.314   2.410   0.000   3.724
    4        1.314   2.410   0.000   3.724
    5        1.314   2.410   0.000   3.724
    6        1.314   2.410   0.000   3.724
    7        1.314   2.410   0.000   3.724
    8        1.314   2.410   0.000   3.724
    9        1.314   2.409   0.000   3.723
   10        1.314   2.409   0.000   3.723
   11        1.314   2.409   0.000   3.723
   12        1.314   2.409   0.000   3.723
   13        1.313   2.411   0.000   3.724
   14        1.313   2.411   0.000   3.724
   15        1.313   2.411   0.000   3.724
   16        1.313   2.411   0.000   3.724
   17        1.314   2.410   0.000   3.724
   18        1.314   2.410   0.000   3.724
   19        1.314   2.410   0.000   3.724
   20        1.314   2.410   0.000   3.724
   21        1.314   2.410   0.000   3.724
   22        1.314   2.410   0.000   3.724
   23        1.314   2.410   0.000   3.724
   24        1.314   2.410   0.000   3.724
   25        1.314   2.409   0.000   3.723
   26        1.314   2.409   0.000   3.723
   27        1.314   2.409   0.000   3.723
   28        1.314   2.409   0.000   3.723
   29        1.313   2.411   0.000   3.724
   30        1.313   2.411   0.000   3.724
   31        1.313   2.411   0.000   3.724
   32        1.313   2.411   0.000   3.724
   33        0.260   6.202   8.917  15.378
   34        0.260   6.202   8.917  15.378
   35        0.260   6.202   8.917  15.378
   36        0.260   6.202   8.917  15.378
   37        0.260   6.202   8.917  15.378
   38        0.260   6.202   8.917  15.378
   39        0.260   6.202   8.917  15.378
   40        0.260   6.202   8.917  15.378
   41        0.260   6.202   8.917  15.378
   42        0.260   6.202   8.917  15.378
   43        0.260   6.202   8.917  15.378
   44        0.260   6.202   8.917  15.378
   45        0.260   6.202   8.917  15.378
   46        0.260   6.202   8.917  15.378
   47        0.260   6.202   8.917  15.378
   48        0.260   6.202   8.917  15.378
   49        0.350   6.351   5.820  12.521
   50        0.350   6.351   5.820  12.521
   51        0.350   6.351   5.820  12.521
   52        0.350   6.351   5.820  12.521
   53        0.350   6.351   5.820  12.521
   54        0.350   6.351   5.820  12.521
   55        0.350   6.351   5.820  12.521
   56        0.350   6.351   5.820  12.521
   57        0.350   6.351   5.820  12.521
   58        0.350   6.351   5.820  12.521
   59        0.350   6.351   5.820  12.521
   60        0.350   6.351   5.820  12.521
   61        0.350   6.351   5.820  12.521
   62        0.350   6.351   5.820  12.521
   63        0.350   6.351   5.820  12.521
   64        0.350   6.351   5.820  12.521
--------------------------------------------------
tot         51.788 277.966 235.785 565.539
 


 magnetization (x)
 
# of ion       s       p       d       tot
------------------------------------------
    1       -0.000  -0.007   0.000  -0.007
    2       -0.000  -0.007   0.000  -0.007
    3       -0.000  -0.007   0.000  -0.007
    4       -0.000  -0.007   0.000  -0.007
    5        0.000   0.007   0.000   0.007
    6        0.000   0.007   0.000   0.007
    7        0.000   0.007   0.000   0.007
    8        0.000   0.007   0.000   0.007
    9        0.000  -0.000   0.000  -0.000
   10        0.000  -0.000   0.000  -0.000
   11        0.000  -0.000   0.000  -0.000
   12        0.000  -0.000   0.000  -0.000
   13        0.000  -0.000   0.000  -0.000
   14        0.000  -0.000   0.000  -0.000
   15       -0.000  -0.000   0.000  -0.000
   16       -0.000  -0.000   0.000  -0.000
   17        0.000   0.007   0.000   0.007
   18        0.000   0.007   0.000   0.007
   19        0.000   0.007   0.000   0.007
   20        0.000   0.007   0.000   0.007
   21       -0.000  -0.007   0.000  -0.007
   22       -0.000  -0.007   0.000  -0.007
   23       -0.000  -0.007   0.000  -0.007
   24       -0.000  -0.007   0.000  -0.007
   25        0.000  -0.000   0.000  -0.000
   26       -0.000  -0.000   0.000  -0.000
   27        0.000  -0.000   0.000  -0.000
   28        0.000  -0.000   0.000  -0.000
   29       -0.000  -0.000   0.000  -0.000
   30        0.000  -0.000   0.000  -0.000
   31       -0.000  -0.000   0.000  -0.000
   32        0.000  -0.000   0.000  -0.000
   33        0.000   0.001  -0.001  -0.000
   34        0.000   0.001  -0.001  -0.000
   35        0.000   0.001  -0.001  -0.000
   36        0.000   0.001  -0.001  -0.000
   37       -0.000  -0.001   0.001   0.000
   38       -0.000  -0.001   0.001   0.000
   39       -0.000  -0.001   0.001   0.000
   40       -0.000  -0.001   0.001   0.000
   41        0.000   0.001  -0.001  -0.000
   42        0.000   0.001  -0.001  -0.000
   43        0.000   0.001  -0.001  -0.000
   44        0.000   0.001  -0.001  -0.000
   45       -0.000  -0.001   0.001   0.000
   46       -0.000  -0.001   0.001   0.000
   47       -0.000  -0.001   0.001   0.000
   48       -0.000  -0.001   0.001   0.000
   49        0.020   0.054   3.671   3.744
   50        0.020   0.054   3.671   3.744
   51        0.020   0.054   3.671   3.744
   52        0.020   0.054   3.671   3.744
   53       -0.020  -0.054  -3.671  -3.744
   54       -0.020  -0.054  -3.671  -3.744
   55       -0.020  -0.054  -3.671  -3.744
   56       -0.020  -0.054  -3.671  -3.744
   57        0.020   0.054   3.671   3.744
   58        0.020   0.054   3.671   3.744
   59        0.020   0.054   3.671   3.744
   60        0.020   0.054   3.671   3.744
   61       -0.020  -0.054  -3.671  -3.744
   62       -0.020  -0.054  -3.671  -3.744
   63       -0.020  -0.054  -3.671  -3.744
   64       -0.020  -0.054  -3.671  -3.744
--------------------------------------------------
tot          0.000  -0.000   0.000   0.000
 
 BZINTS: Fermi energy:  4.977371;688.000000 electrons
         Band energy:***********;  BLOECHL correction:  0.000000

 total amount of memory used by VASP MPI-rank0   349631. kBytes
=======================================================================

   base      :      30000. kBytes
   nonl-proj :     217907. kBytes
   fftplans  :       4588. kBytes
   grid      :      69719. kBytes
   one-center:       1990. kBytes
   wavefun   :      25427. kBytes
 
  
  
 General timing and accounting informations for this job:
 ========================================================
  
                  Total CPU time used (sec):     3529.450
                            User time (sec):     3517.999
                          System time (sec):       11.451
                         Elapsed time (sec):     3555.370
  
                   Maximum memory used (kb):      732352.
                   Average memory used (kb):           0.
  
                          Minor page faults:       485747
                          Major page faults:         5771
                 Voluntary context switches:         7094
