       N       E                     dE             d eps       ncg     rms          rms(c)
DAV:   1     0.602306250090E+04    0.60231E+04   -0.51763E+05 16384   0.196E+03
DAV:   2    -0.117402717531E+03   -0.61405E+04   -0.60328E+04 18944   0.446E+02
DAV:   3    -0.356709690345E+03   -0.23931E+03   -0.23866E+03 21504   0.959E+01
DAV:   4    -0.360093740040E+03   -0.33840E+01   -0.33839E+01 20992   0.115E+01
DAV:   5    -0.360200213250E+03   -0.10647E+00   -0.10647E+00 20736   0.199E+00    0.435E+01
DAV:   6    -0.336035005268E+03    0.24165E+02   -0.26241E+01 26624   0.157E+01    0.244E+01
DAV:   7    -0.329526784846E+03    0.65082E+01   -0.22102E+01 21760   0.139E+01    0.220E+01
DAV:   8    -0.328259036525E+03    0.12677E+01   -0.14650E+01 23040   0.994E+00    0.867E+00
DAV:   9    -0.328091232589E+03    0.16780E+00   -0.55472E+00 21760   0.746E+00    0.543E+00
DAV:  10    -0.328043203922E+03    0.48029E-01   -0.22366E+00 21504   0.381E+00    0.314E+00
DAV:  11    -0.328051355211E+03   -0.81513E-02   -0.30781E-01 23296   0.135E+00    0.115E+00
DAV:  12    -0.328070184657E+03   -0.18829E-01   -0.77462E-02 25088   0.518E-01    0.562E-01
DAV:  13    -0.328073859699E+03   -0.36750E-02   -0.15494E-02 19456   0.291E-01    0.246E-01
DAV:  14    -0.328075526255E+03   -0.16666E-02   -0.41068E-03 21760   0.833E-02    0.157E-01
DAV:  15    -0.328076619885E+03   -0.10936E-02   -0.30326E-03 20480   0.632E-02    0.801E-02
DAV:  16    -0.328077014815E+03   -0.39493E-03   -0.12447E-03 23552   0.352E-02    0.540E-02
DAV:  17    -0.328077185154E+03   -0.17034E-03   -0.92446E-04 20480   0.315E-02    0.261E-02
DAV:  18    -0.328077216427E+03   -0.31272E-04   -0.23169E-04 19968   0.163E-02    0.144E-02
DAV:  19    -0.328077218645E+03   -0.22181E-05   -0.96209E-06 19456   0.537E-03    0.915E-03
DAV:  20    -0.328077219845E+03   -0.11996E-05   -0.65392E-06 22784   0.326E-03    0.405E-03
DAV:  21    -0.328077220210E+03   -0.36514E-06   -0.11697E-06 23040   0.157E-03    0.243E-03
DAV:  22    -0.328077220268E+03   -0.58164E-07   -0.15779E-07 26624   0.577E-04    0.139E-03
DAV:  23    -0.328077220293E+03   -0.24753E-07   -0.57393E-08 18688   0.326E-04    0.647E-04
DAV:  24    -0.328077220315E+03   -0.22628E-07   -0.55567E-08 16896   0.247E-04    0.329E-04
DAV:  25    -0.328077220326E+03   -0.10361E-07   -0.19621E-08 13824   0.152E-04    0.294E-04
DAV:  26    -0.328077220329E+03   -0.38126E-08   -0.21441E-09 15872   0.788E-05
   1 F= -.32807722E+03 E0= -.32807722E+03  d E =0.000000E+00  mag=     0.0000
