       N       E                     dE             d eps       ncg     rms          rms(c)
DAV:   1     0.619480205969E+04    0.61948E+04   -0.50363E+05 12288   0.194E+03
DAV:   2    -0.889926657342E+02   -0.62838E+04   -0.61532E+04 13056   0.439E+02
DAV:   3    -0.372076385208E+03   -0.28308E+03   -0.28178E+03 17408   0.102E+02
DAV:   4    -0.376025756144E+03   -0.39494E+01   -0.39491E+01 13568   0.123E+01
DAV:   5    -0.376129768646E+03   -0.10401E+00   -0.10401E+00 17152   0.202E+00    0.751E+01
DAV:   6    -0.334628335344E+03    0.41501E+02   -0.59079E+02 12288   0.813E+01    0.100E+02
DAV:   7    -0.329462351498E+03    0.51660E+01   -0.11273E+02 12288   0.274E+01    0.437E+01
DAV:   8    -0.329462429440E+03   -0.77942E-04   -0.36387E+01 15360   0.208E+01    0.324E+01
DAV:   9    -0.331270081394E+03   -0.18077E+01   -0.10167E+02 15104   0.242E+01    0.235E+01
DAV:  10    -0.327599867777E+03    0.36702E+01   -0.21471E+01 17152   0.157E+01    0.275E+00
DAV:  11    -0.327718508168E+03   -0.11864E+00   -0.12035E+00 15616   0.183E+00    0.353E+00
DAV:  12    -0.327708089675E+03    0.10418E-01   -0.48466E-01 16896   0.178E+00    0.132E+00
DAV:  13    -0.327713849259E+03   -0.57596E-02   -0.48606E-02 13824   0.393E-01    0.914E-01
DAV:  14    -0.327724390300E+03   -0.10541E-01   -0.56225E-02 17152   0.373E-01    0.402E-01
DAV:  15    -0.327724112040E+03    0.27826E-03   -0.52185E-03 12800   0.185E-01    0.173E-01
DAV:  16    -0.327724284726E+03   -0.17269E-03   -0.49678E-04 17920   0.311E-02    0.124E-01
DAV:  17    -0.327724837026E+03   -0.55230E-03   -0.24694E-03 13824   0.637E-02    0.861E-02
DAV:  18    -0.327724900643E+03   -0.63617E-04   -0.18714E-04 15872   0.231E-02    0.501E-02
DAV:  19    -0.327724905375E+03   -0.47318E-05   -0.54980E-05 16640   0.123E-02    0.293E-02
DAV:  20    -0.327724910053E+03   -0.46778E-05   -0.21438E-05 14848   0.488E-03    0.230E-02
DAV:  21    -0.327724910267E+03   -0.21445E-06   -0.29539E-05 16640   0.853E-03    0.147E-02
DAV:  22    -0.327724910886E+03   -0.61835E-06   -0.29962E-06 13312   0.411E-03    0.117E-02
DAV:  23    -0.327724911160E+03   -0.27459E-06   -0.42425E-07 16896   0.114E-03    0.720E-03
DAV:  24    -0.327724910972E+03    0.18788E-06   -0.10762E-06 19200   0.217E-03    0.196E-03
DAV:  25    -0.327724910942E+03    0.30734E-07   -0.28897E-07 15104   0.912E-04    0.132E-03
DAV:  26    -0.327724910926E+03    0.15832E-07   -0.28981E-08 13824   0.339E-04    0.732E-04
DAV:  27    -0.327724910984E+03   -0.57858E-07   -0.18328E-08 10240   0.155E-04    0.553E-04
DAV:  28    -0.327724911006E+03   -0.21930E-07   -0.20657E-09 10240   0.909E-05    0.337E-04
DAV:  29    -0.327724911003E+03    0.24011E-08    0.55782E-10  8704   0.385E-05
   1 F= -.32772491E+03 E0= -.32772491E+03  d E =0.000000E+00  mag=     0.0000
