 vasp.5.4.4.18Apr17-6-g9f103f2a35 (build Oct 30 2023 17:30:16) complex          
  
 executed on             LinuxIFC date 2024.06.29  01:08:54
 running on  256 total cores
 distrk:  each k-point on  256 cores,    1 groups
 distr:  one band on NCORES_PER_BAND=   1 cores,  256 groups


--------------------------------------------------------------------------------------------------------


 INCAR:
 POTCAR:    PAW_PBE S 06Sep2000                   
 POTCAR:     PAW_PBE Cu_pv 06Sep2000              
 POTCAR:     PAW_PBE Fe_pv 02Aug2007              

 ----------------------------------------------------------------------------- 
|                                                                             |
|           W    W    AA    RRRRR   N    N  II  N    N   GGGG   !!!           |
|           W    W   A  A   R    R  NN   N  II  NN   N  G    G  !!!           |
|           W    W  A    A  R    R  N N  N  II  N N  N  G       !!!           |
|           W WW W  AAAAAA  RRRRR   N  N N  II  N  N N  G  GGG   !            |
|           WW  WW  A    A  R   R   N   NN  II  N   NN  G    G                |
|           W    W  A    A  R    R  N    N  II  N    N   GGGG   !!!           |
|                                                                             |
|      For optimal performance we recommend to set                            |
|        NCORE= 4 - approx SQRT( number of cores)                             |
|      NCORE specifies how many cores store one orbital (NPAR=cpu/NCORE).     |
|      This setting can  greatly improve the performance of VASP for DFT.     |
|      The default,   NCORE=1            might be grossly inefficient         |
|      on modern multi-core architectures or massively parallel machines.     |
|      Do your own testing !!!!                                               |
|      Unfortunately you need to use the default for GW and RPA calculations. |
|      (for HF NCORE is supported but not extensively tested yet)             |
|                                                                             |
 ----------------------------------------------------------------------------- 

 POTCAR:    PAW_PBE S 06Sep2000                   
   SHA256 =  0fc7481fb0695f01bdc6462160264c5c84044ae9ec85a907d398b887a2bc3132 S/
   COPYR  = (c) Copyright 06Sep2000 Georg Kresse                                
   COPYR  = This file is part of the software VASP. Any use, copying, and all ot
   COPYR  = If you do not have a valid VASP license, you may not use, copy or di
   VRHFIN =S : s2p4                                                             
   LEXCH  = PE                                                                  
   EATOM  =   276.8230 eV,   20.3459 Ry                                         
                                                                                
   TITEL  = PAW_PBE S 06Sep2000                                                 
   LULTRA =        F    use ultrasoft PP ?                                      
   IUNSCR =        1    unscreen: 0-lin 1-nonlin 2-no                           
   RPACOR =    1.500    partial core radius                                     
   POMASS =   32.066; ZVAL   =    6.000    mass and valenz                      
   RCORE  =    1.900    outmost cutoff radius                                   
   RWIGS  =    2.200; RWIGS  =    1.164    wigner-seitz radius (au A)           
   ENMAX  =  258.689; ENMIN  =  194.016 eV                                      
   ICORE  =        2    local potential                                         
   LCOR   =        T    correct aug charges                                     
   LPAW   =        T    paw PP                                                  
   EAUG   =  335.092                                                            
   DEXC   =    0.000                                                            
   RMAX   =    1.942    core radius for proj-oper                               
   RAUG   =    1.300    factor for augmentation sphere                          
   RDEP   =    1.954    radius for radial grids                                 
   RDEPT  =    1.744    core radius for aug-charge                              
                                                                                
   Atomic configuration                                                         
    6 entries                                                                   
     n  l   j            E        occ.                                          
     1  0  0.50     -2405.8406   2.0000                                         
     2  0  0.50      -211.7007   2.0000                                         
     2  1  1.50      -156.4958   6.0000                                         
     3  0  0.50       -17.2562   2.0000                                         
     3  1  0.50        -7.0085   4.0000                                         
     3  2  1.50        -6.8029   0.0000                                         
   Description                                                                  
     l       E           TYP  RCUT    TYP  RCUT                                 
     0    -17.2561641     23  1.900                                             
     0    -15.8743224     23  1.900                                             
     1     -7.0085400     23  1.900                                             
     1     -2.7779785     23  1.900                                             
     2     -6.8029130     23  1.900                                             
  local pseudopotential read in
  partial core-charges read in
  partial kinetic energy density read in
  atomic valenz-charges read in
  non local Contribution for L=           0  read in
    real space projection operators read in
  non local Contribution for L=           0  read in
    real space projection operators read in
  non local Contribution for L=           1  read in
    real space projection operators read in
  non local Contribution for L=           1  read in
    real space projection operators read in
    PAW grid and wavefunctions read in
 
   number of l-projection  operators is LMAX  =           4
   number of lm-projection operators is LMMAX =           8
 
 POTCAR:     PAW_PBE Cu_pv 06Sep2000              
   SHA256 =  cb7b504e2ea725fe1f25c85a9ac77d4012ce94cd394135b722c4e25ec297f1cb Cu
   COPYR  = (c) Copyright 06Sep2000 Georg Kresse                                
   COPYR  = This file is part of the software VASP. Any use, copying, and all ot
   COPYR  = If you do not have a valid VASP license, you may not use, copy or di
   VRHFIN =Cu: d10 p1                                                           
   LEXCH  = PE                                                                  
   EATOM  =  4120.1201 eV,  302.8203 Ry                                         
                                                                                
   TITEL  = PAW_PBE Cu_pv 06Sep2000                                             
   LULTRA =        F    use ultrasoft PP ?                                      
   IUNSCR =        1    unscreen: 0-lin 1-nonlin 2-no                           
   RPACOR =    1.500    partial core radius                                     
   POMASS =   63.546; ZVAL   =   17.000    mass and valenz                      
   RCORE  =    2.000    outmost cutoff radius                                   
   RWIGS  =    2.000; RWIGS  =    1.058    wigner-seitz radius (au A)           
   ENMAX  =  368.648; ENMIN  =  276.486 eV                                      
   RCLOC  =    1.304    cutoff for local pot                                    
   LCOR   =        T    correct aug charges                                     
   LPAW   =        T    paw PP                                                  
   EAUG   =  758.233                                                            
   DEXC   =    0.000                                                            
   RMAX   =    2.046    core radius for proj-oper                               
   RAUG   =    1.300    factor for augmentation sphere                          
   RDEP   =    2.025    radius for radial grids                                 
   RDEPT  =    1.558    core radius for aug-charge                              
                                                                                
   Atomic configuration                                                         
    8 entries                                                                   
     n  l   j            E        occ.                                          
     1  0  0.50     -8850.2467   2.0000                                         
     2  0  0.50     -1062.3498   2.0000                                         
     2  1  1.50      -916.8226   6.0000                                         
     3  0  0.50      -114.6929   2.0000                                         
     3  1  1.50       -72.1325   6.0000                                         
     3  2  2.50        -5.0394  10.0000                                         
     4  0  0.50        -4.6097   1.0000                                         
     4  3  2.50        -1.3606   0.0000                                         
   Description                                                                  
     l       E           TYP  RCUT    TYP  RCUT                                 
     1    -72.1324777     23  1.700                                             
     1     -1.3605826     23  1.700                                             
     2     -5.0393776     23  2.000                                             
     2     -6.3999602     23  2.000                                             
     0     -4.6097062     23  1.800                                             
     0     14.1620818     23  1.800                                             
  local pseudopotential read in
  partial core-charges read in
  partial kinetic energy density read in
  atomic valenz-charges read in
  non local Contribution for L=           1  read in
    real space projection operators read in
  non local Contribution for L=           1  read in
    real space projection operators read in
  non local Contribution for L=           2  read in
    real space projection operators read in
  non local Contribution for L=           2  read in
    real space projection operators read in
  non local Contribution for L=           0  read in
    real space projection operators read in
  non local Contribution for L=           0  read in
    real space projection operators read in
    PAW grid and wavefunctions read in
 
   number of l-projection  operators is LMAX  =           6
   number of lm-projection operators is LMMAX =          18
 
 POTCAR:     PAW_PBE Fe_pv 02Aug2007              
   SHA256 =  5d22e414b1f82158bf2c7ecb8b97b28fd0923e48cadc1c3bf74d524558f5dd32 Fe
   COPYR  = (c) Copyright 02Aug2007 Georg Kresse                                
   COPYR  = This file is part of the software VASP. Any use, copying, and all ot
   COPYR  = If you do not have a valid VASP license, you may not use, copy or di
   VRHFIN =Fe:  3pd7s1                                                          
   LEXCH  = PE                                                                  
   EATOM  =  2457.4239 eV,  180.6156 Ry                                         
                                                                                
   TITEL  = PAW_PBE Fe_pv 02Aug2007                                             
   LULTRA =        F    use ultrasoft PP ?                                      
   IUNSCR =        1    unscreen: 0-lin 1-nonlin 2-no                           
   RPACOR =    1.750    partial core radius                                     
   POMASS =   55.847; ZVAL   =   14.000    mass and valenz                      
   RCORE  =    2.200    outmost cutoff radius                                   
   RWIGS  =    2.200; RWIGS  =    1.164    wigner-seitz radius (au A)           
   ENMAX  =  293.238; ENMIN  =  219.928 eV                                      
   ICORE  =        3    local potential                                         
   LCOR   =        T    correct aug charges                                     
   LPAW   =        T    paw PP                                                  
   EAUG   =  578.342                                                            
   DEXC   =    0.000                                                            
   RMAX   =    2.249    core radius for proj-oper                               
   RAUG   =    1.300    factor for augmentation sphere                          
   RDEP   =    2.296    radius for radial grids                                 
   RDEPT  =    1.766    core radius for aug-charge                              
                                                                                
   Atomic configuration                                                         
    8 entries                                                                   
     n  l   j            E        occ.                                          
     1  0  0.50     -6993.8440   2.0000                                         
     2  0  0.50      -814.6047   2.0000                                         
     2  1  1.50      -693.3689   6.0000                                         
     3  0  0.50       -89.4732   2.0000                                         
     3  1  1.50       -55.6373   6.0000                                         
     3  2  2.50        -3.8151   7.0000                                         
     4  0  0.50        -4.2551   1.0000                                         
     4  3  2.50        -1.3606   0.0000                                         
   Description                                                                  
     l       E           TYP  RCUT    TYP  RCUT                                 
     1    -55.6372668     23  2.000                                             
     1     -5.4423304     23  2.000                                             
     2     -3.8151096     23  2.200                                             
     2     -5.1756922     23  2.200                                             
     0     -4.2550951     23  2.200                                             
     0     27.2116520     23  2.200                                             
     3     -1.3605826     23  2.200                                             
  local pseudopotential read in
  partial core-charges read in
  partial kinetic energy density read in
  atomic valenz-charges read in
  non local Contribution for L=           1  read in
    real space projection operators read in
  non local Contribution for L=           1  read in
    real space projection operators read in
  non local Contribution for L=           2  read in
    real space projection operators read in
  non local Contribution for L=           2  read in
    real space projection operators read in
  non local Contribution for L=           0  read in
    real space projection operators read in
  non local Contribution for L=           0  read in
    real space projection operators read in
    PAW grid and wavefunctions read in
 
   number of l-projection  operators is LMAX  =           6
   number of lm-projection operators is LMMAX =          18
 

 ----------------------------------------------------------------------------- 
|                                                                             |
|  ADVICE TO THIS USER RUNNING 'VASP/VAMP'   (HEAR YOUR MASTER'S VOICE ...):  |
|                                                                             |
|      You have a (more or less) 'large supercell' and for larger cells       |
|      it might be more efficient to use real space projection opertators     |
|      So try LREAL= Auto  in the INCAR   file.                               |
|      Mind:          For very  accurate calculation you might also keep the  |
|      reciprocal projection scheme          (i.e. LREAL=.FALSE.)             |
|                                                                             |
 ----------------------------------------------------------------------------- 


 ----------------------------------------------------------------------------- 
|                                                                             |
|  ADVICE TO THIS USER RUNNING 'VASP/VAMP'   (HEAR YOUR MASTER'S VOICE ...):  |
|                                                                             |
|      You enforced a specific xc-type in the INCAR file,                     |
|      a different type was found on the POTCAR file                          |
|          I HOPE YOU KNOW, WHAT YOU ARE  DOING                               |
|                                                                             |
 ----------------------------------------------------------------------------- 

  PAW_PBE S 06Sep2000                   :
 energy of atom  1       EATOM= -276.8230
 kinetic energy error for atom=    0.0007 (will be added to EATOM!!)
   PAW_PBE Cu_pv 06Sep2000              :
 energy of atom  2       EATOM=-4120.1201
 kinetic energy error for atom=    0.0094 (will be added to EATOM!!)
   PAW_PBE Fe_pv 02Aug2007              :
 energy of atom  3       EATOM=-2457.4239
 kinetic energy error for atom=    0.0025 (will be added to EATOM!!)
 
 
 POSCAR: Fe16 Cu16 S32                           
  positions in direct lattice
  No initial velocities read in
 exchange correlation table for  LEXCH =       14
   RHO(1)=    0.500       N(1)  =     2000
   RHO(2)=  100.500       N(2)  =     4000
 


--------------------------------------------------------------------------------------------------------


 ion  position               nearest neighbor table
   1  0.126  0.126  0.120-  37 2.25  61 2.27  41 2.28  49 2.29
   2  0.626  0.126  0.120-  38 2.25  62 2.27  42 2.28  50 2.29
   3  0.126  0.626  0.120-  39 2.25  63 2.27  43 2.28  51 2.29
   4  0.626  0.626  0.120-  40 2.25  64 2.27  44 2.28  52 2.29
   5  0.374  0.374  0.120-  39 2.25  62 2.27  41 2.28  52 2.29
   6  0.874  0.374  0.120-  40 2.25  61 2.27  42 2.28  51 2.29
   7  0.374  0.874  0.120-  37 2.25  64 2.27  43 2.28  50 2.29
   8  0.874  0.874  0.120-  38 2.25  63 2.27  44 2.28  49 2.29
   9  0.124  0.374  0.870-  41 2.25  51 2.27  45 2.28  55 2.29
  10  0.624  0.374  0.870-  42 2.25  52 2.27  46 2.28  56 2.29
  11  0.124  0.874  0.870-  43 2.25  49 2.27  47 2.28  53 2.29
  12  0.624  0.874  0.870-  44 2.25  50 2.27  48 2.28  54 2.29
  13  0.376  0.126  0.870-  41 2.25  50 2.27  46 2.28  53 2.29
  14  0.876  0.126  0.870-  42 2.25  49 2.27  45 2.28  54 2.29
  15  0.376  0.626  0.870-  43 2.25  52 2.27  48 2.28  55 2.29
  16  0.876  0.626  0.870-  44 2.25  51 2.27  47 2.28  56 2.29
  17  0.124  0.124  0.620-  45 2.25  53 2.27  33 2.28  57 2.29
  18  0.624  0.124  0.620-  46 2.25  54 2.27  34 2.28  58 2.29
  19  0.124  0.624  0.620-  47 2.25  55 2.27  35 2.28  59 2.29
  20  0.624  0.624  0.620-  48 2.25  56 2.27  36 2.28  60 2.29
  21  0.376  0.376  0.620-  46 2.25  55 2.27  36 2.28  57 2.29
  22  0.876  0.376  0.620-  45 2.25  56 2.27  35 2.28  58 2.29
  23  0.376  0.876  0.620-  48 2.25  53 2.27  34 2.28  59 2.29
  24  0.876  0.876  0.620-  47 2.25  54 2.27  33 2.28  60 2.29
  25  0.374  0.124  0.370-  34 2.25  57 2.27  37 2.28  62 2.29
  26  0.874  0.124  0.370-  33 2.25  58 2.27  38 2.28  61 2.29
  27  0.374  0.624  0.370-  36 2.25  59 2.27  39 2.28  64 2.29
  28  0.874  0.624  0.370-  35 2.25  60 2.27  40 2.28  63 2.29
  29  0.126  0.376  0.370-  35 2.25  57 2.27  39 2.28  61 2.29
  30  0.626  0.376  0.370-  36 2.25  58 2.27  40 2.28  62 2.29
  31  0.126  0.876  0.370-  33 2.25  59 2.27  37 2.28  63 2.29
  32  0.626  0.876  0.370-  34 2.25  60 2.27  38 2.28  64 2.29
  33  0.000  0.000  0.505-  26 2.25  31 2.25  17 2.28  24 2.28
  34  0.500  0.000  0.505-  25 2.25  32 2.25  18 2.28  23 2.28
  35  0.000  0.500  0.505-  28 2.25  29 2.25  19 2.28  22 2.28
  36  0.500  0.500  0.505-  27 2.25  30 2.25  20 2.28  21 2.28
  37  0.250  0.000  0.255-   1 2.25   7 2.25  25 2.28  31 2.28
  38  0.750  0.000  0.255-   2 2.25   8 2.25  26 2.28  32 2.28
  39  0.250  0.500  0.255-   3 2.25   5 2.25  27 2.28  29 2.28
  40  0.750  0.500  0.255-   4 2.25   6 2.25  28 2.28  30 2.28
  41  0.250  0.250  0.005-   9 2.25  13 2.25   1 2.28   5 2.28
  42  0.750  0.250  0.005-  10 2.25  14 2.25   2 2.28   6 2.28
  43  0.250  0.750  0.005-  11 2.25  15 2.25   3 2.28   7 2.28
  44  0.750  0.750  0.005-  12 2.25  16 2.25   4 2.28   8 2.28
  45  0.000  0.250  0.755-  17 2.25  22 2.25   9 2.28  14 2.28
  46  0.500  0.250  0.755-  18 2.25  21 2.25  10 2.28  13 2.28
  47  0.000  0.750  0.755-  19 2.25  24 2.25  11 2.28  16 2.28
  48  0.500  0.750  0.755-  20 2.25  23 2.25  12 2.28  15 2.28
  49  0.000  0.000  0.006-  11 2.27  14 2.27   1 2.29   8 2.29
  50  0.500  0.000  0.006-  12 2.27  13 2.27   2 2.29   7 2.29
  51  0.000  0.500  0.006-   9 2.27  16 2.27   3 2.29   6 2.29
  52  0.500  0.500  0.006-  10 2.27  15 2.27   4 2.29   5 2.29
  53  0.250  0.000  0.756-  17 2.27  23 2.27  11 2.29  13 2.29
  54  0.750  0.000  0.756-  18 2.27  24 2.27  12 2.29  14 2.29
  55  0.250  0.500  0.756-  19 2.27  21 2.27   9 2.29  15 2.29
  56  0.750  0.500  0.756-  20 2.27  22 2.27  10 2.29  16 2.29
  57  0.250  0.250  0.506-  25 2.27  29 2.27  17 2.29  21 2.29
  58  0.750  0.250  0.506-  26 2.27  30 2.27  18 2.29  22 2.29
  59  0.250  0.750  0.506-  27 2.27  31 2.27  19 2.29  23 2.29
  60  0.750  0.750  0.506-  28 2.27  32 2.27  20 2.29  24 2.29
  61  0.000  0.250  0.256-   1 2.27   6 2.27  26 2.29  29 2.29
  62  0.500  0.250  0.256-   2 2.27   5 2.27  25 2.29  30 2.29
  63  0.000  0.750  0.256-   3 2.27   8 2.27  28 2.29  31 2.29
  64  0.500  0.750  0.256-   4 2.27   7 2.27  27 2.29  32 2.29
 
  LATTYP: Found a base centered orthorhombic cell.
 ALAT       =    14.1142374328
 B/A-ratio  =     1.1028534991
 C/A-ratio  =     0.7392864156
  
  Lattice vectors:
  
 A1 = (  10.4935260000,   0.5132530000,   0.0000000000)
 A2 = (  -0.5132530000, -10.4935260000,   0.0000000000)
 A3 = (   0.0000000000,   0.0000000000, -10.4344640000)


Analysis of symmetry for initial positions (statically):
=====================================================================
 Subroutine PRICEL returns following result:
 
  LATTYP: Found a face centered orthorhombic cell.
 ALAT       =     7.0571187164
 B/A-ratio  =     1.1028534991
 C/A-ratio  =     1.4785728311
  
  Lattice vectors:
  
 A1 = (  -2.7516947500,  -2.7516947500,   5.2172320000)
 A2 = (  -2.4950682500,   2.4950682500,   5.2172320000)
 A3 = (  -5.2467630000,  -0.2566265000,   0.0000000000)
 
   8 primitive cells build up your supercell.
 

 Routine SETGRP: Setting up the symmetry group for a 
 base centered orthorhombic supercell.


 Subroutine GETGRP returns: Found  4 space group operations
 (whereof  2 operations were pure point group operations)
 out of a pool of  8 trial point group operations.


The static configuration has the point symmetry C_2 .
 The point group associated with its full space group is C_2v.


Analysis of symmetry for dynamics (positions and initial velocities):
=====================================================================
 Subroutine PRICEL returns following result:
 
  LATTYP: Found a face centered orthorhombic cell.
 ALAT       =     7.0571187164
 B/A-ratio  =     1.1028534991
 C/A-ratio  =     1.4785728311
  
  Lattice vectors:
  
 A1 = (  -2.7516947500,  -2.7516947500,   5.2172320000)
 A2 = (  -2.4950682500,   2.4950682500,   5.2172320000)
 A3 = (  -5.2467630000,  -0.2566265000,   0.0000000000)
 
   8 primitive cells build up your supercell.
 

 Routine SETGRP: Setting up the symmetry group for a 
 base centered orthorhombic supercell.


 Subroutine GETGRP returns: Found  4 space group operations
 (whereof  2 operations were pure point group operations)
 out of a pool of  8 trial point group operations.


The dynamic configuration has the point symmetry C_2 .
 The point group associated with its full space group is C_2v.


Analysis of structural, dynamic, and magnetic symmetry:
=====================================================================
 Subroutine PRICEL returns following result:
 
  LATTYP: Found a face centered orthorhombic cell.
 ALAT       =     7.0571187164
 B/A-ratio  =     1.1028534991
 C/A-ratio  =     1.4785728311
  
  Lattice vectors:
  
 A1 = (  -2.7516947500,  -2.7516947500,   5.2172320000)
 A2 = (  -2.4950682500,   2.4950682500,   5.2172320000)
 A3 = (  -5.2467630000,  -0.2566265000,   0.0000000000)
 
   8 primitive cells build up your supercell.
 

 Routine SETGRP: Setting up the symmetry group for a 
 base centered orthorhombic supercell.


 Subroutine GETGRP returns: Found  4 space group operations
 (whereof  2 operations were pure point group operations)
 out of a pool of  8 trial point group operations.


The magnetic configuration has the point symmetry C_2 .
 The point group associated with its full space group is C_2v.


 Subroutine INISYM returns: Found  4 space group operations
 (whereof  2 operations are pure point group operations),
 and found     8 'primitive' translations

 
 
 KPOINTS: Automatic mesh                          

Automatic generation of k-mesh.
Space group operators:
 irot       det(A)        alpha          n_x          n_y          n_z        tau_x        tau_y        tau_z
    1     1.000000     0.000001     1.000000     0.000000     0.000000     0.000000     0.000000     0.000000
    2     1.000000   180.000000     0.000000     0.000000     1.000000     0.000000     0.000000     0.000000
    3    -1.000000   180.000000     0.707107     0.707107     0.000000    -0.750000    -0.000000     0.750000
    4    -1.000000   180.000000     0.707107    -0.707107     0.000000    -0.750000    -0.000000     0.750000
 
 Subroutine IBZKPT returns following result:
 ===========================================
 
 Found      6 irreducible k-points:
 
 Following reciprocal coordinates:
            Coordinates               Weight
  0.000000  0.000000  0.000000      1.000000
  0.500000  0.000000  0.000000      2.000000
  0.500000  0.500000  0.000000      1.000000
  0.000000  0.000000  0.500000      1.000000
  0.500000  0.000000  0.500000      2.000000
  0.500000  0.500000  0.500000      1.000000
 
 Following cartesian coordinates:
            Coordinates               Weight
  0.000000  0.000000  0.000000      1.000000
  0.047763 -0.002336  0.000000      2.000000
  0.045427  0.045427  0.000000      1.000000
  0.000000  0.000000  0.047918      1.000000
  0.047763 -0.002336  0.047918      2.000000
  0.045427  0.045427  0.047918      1.000000
 
 TETIRR: Found     12 inequivalent tetrahedra from       48
 
 Subroutine IBZKPT_HF returns following result:
 ==============================================
 
 Found      8 k-points in 1st BZ
 the following      8 k-points will be used (e.g. in the exchange kernel)
 Following reciprocal coordinates:   # in IRBZ
  0.000000  0.000000  0.000000    0.12500000   1 t-inv F
  0.500000  0.000000  0.000000    0.12500000   2 t-inv F
  0.500000  0.500000  0.000000    0.12500000   3 t-inv F
  0.000000  0.000000  0.500000    0.12500000   4 t-inv F
  0.500000  0.000000  0.500000    0.12500000   5 t-inv F
  0.500000  0.500000  0.500000    0.12500000   6 t-inv F
  0.000000 -0.500000  0.000000    0.12500000   2 t-inv F spinflp
  0.000000 -0.500000  0.500000    0.12500000   5 t-inv F spinflp


--------------------------------------------------------------------------------------------------------




 Dimension of arrays:
   k-points           NKPTS =      6   k-points in BZ     NKDIM =      6   number of bands    NBANDS=    512
   number of dos      NEDOS =    301   number of ions     NIONS =     64
   non local maximal  LDIM  =      6   non local SUM 2l+1 LMDIM =     18
   total plane-waves  NPLWV = 829440
   max r-space proj   IRMAX =      1   max aug-charges    IRDMAX=  22995
   dimension x,y,z NGX =    96 NGY =   96 NGZ =   90
   dimension x,y,z NGXF=   192 NGYF=  192 NGZF=  180
   support grid    NGXF=   192 NGYF=  192 NGZF=  180
   ions per type =              32  16  16
   NGX,Y,Z   is equivalent  to a cutoff of  15.19, 15.19, 14.34 a.u.
   NGXF,Y,Z  is equivalent  to a cutoff of  30.38, 30.38, 28.68 a.u.

 SYSTEM =  CuFeS2                                  
 POSCAR =  Fe16 Cu16 S32                           

 Startparameter for this run:
   NWRITE =      2    write-flag & timer
   PREC   = accura    normal or accurate (medium, high low for compatibility)
   ISTART =      0    job   : 0-new  1-cont  2-samecut
   ICHARG =      1    charge: 1-file 2-atom 10-const
   ISPIN  =      2    spin polarized calculation?
   LNONCOLLINEAR =      F non collinear calculations
   LSORBIT =      F    spin-orbit coupling
   INIWAV =      1    electr: 0-lowe 1-rand  2-diag
   LASPH  =      F    aspherical Exc in radial PAW
   METAGGA=      F    non-selfconsistent MetaGGA calc.

 Electronic Relaxation 1
   ENCUT  =  700.0 eV  51.45 Ry    7.17 a.u.  22.66 22.66 22.51*2*pi/ulx,y,z
   ENINI  =  700.0     initial cutoff
   ENAUG  =  758.2 eV  augmentation charge cutoff
   NELM   =    500;   NELMIN=  2; NELMDL=  0     # of ELM steps 
   EDIFF  = 0.1E-07   stopping-criterion for ELM
   LREAL  =      F    real-space projection
   NLSPLINE    = F    spline interpolate recip. space projectors
   LCOMPAT=      F    compatible to vasp.4.4
   GGA_COMPAT  = T    GGA compatible to vasp.4.4-vasp.4.6
   LMAXPAW     = -100 max onsite density
   LMAXMIX     =    4 max onsite mixed and CHGCAR
   VOSKOWN=      0    Vosko Wilk Nusair interpolation
   ROPT   =    0.00000   0.00000   0.00000
 Ionic relaxation
   EDIFFG = -.1E-04   stopping-criterion for IOM
   NSW    =      0    number of steps for IOM
   NBLOCK =      1;   KBLOCK =      1    inner block; outer block 
   IBRION =     -1    ionic relax: 0-MD 1-quasi-New 2-CG
   NFREE  =      0    steps in history (QN), initial steepest desc. (CG)
   ISIF   =      2    stress and relaxation
   IWAVPR =     10    prediction:  0-non 1-charg 2-wave 3-comb
   ISYM   =      2    0-nonsym 1-usesym 2-fastsym
   LCORR  =      T    Harris-Foulkes like correction to forces

   POTIM  = 0.5000    time-step for ionic-motion
   TEIN   =    0.0    initial temperature
   TEBEG  =    0.0;   TEEND  =   0.0 temperature during run
   SMASS  =  -3.00    Nose mass-parameter (am)
   estimated Nose-frequenzy (Omega)   =  0.10E-29 period in steps =****** mass=  -0.252E-26a.u.
   SCALEE = 1.0000    scale energy and forces
   NPACO  =    256;   APACO  = 16.0  distance and # of slots for P.C.
   PSTRESS=    0.0 pullay stress

  Mass of Ions in am
   POMASS =  32.07 63.55 55.85
  Ionic Valenz
   ZVAL   =   6.00 17.00 14.00
  Atomic Wigner-Seitz radii
   RWIGS  =  -1.00 -1.00 -1.00
  virtual crystal weights 
   VCA    =   1.00  1.00  1.00
   NELECT =     688.0000    total number of electrons
   NUPDOWN=      -1.0000    fix difference up-down

 DOS related values:
   EMIN   =  10.00;   EMAX   =-10.00  energy-range for DOS
   EFERMI =   0.00
   ISMEAR =    -5;   SIGMA  =   0.03  broadening in eV -4-tet -1-fermi 0-gaus

 Electronic relaxation 2 (details)
   IALGO  =     38    algorithm
   LDIAG  =      T    sub-space diagonalisation (order eigenvalues)
   LSUBROT=      F    optimize rotation matrix (better conditioning)
   TURBO    =      0    0=normal 1=particle mesh
   IRESTART =      0    0=no restart 2=restart with 2 vectors
   NREBOOT  =      0    no. of reboots
   NMIN     =      0    reboot dimension
   EREF     =   0.00    reference energy to select bands
   IMIX   =      4    mixing-type and parameters
     AMIX     =   0.40;   BMIX     =  1.00
     AMIX_MAG =   1.60;   BMIX_MAG =  1.00
     AMIN     =   0.10
     WC   =   100.;   INIMIX=   1;  MIXPRE=   1;  MAXMIX= -45

 Intra band minimization:
   WEIMIN = 0.0000     energy-eigenvalue tresh-hold
   EBREAK =  0.49E-11  absolut break condition
   DEPER  =   0.30     relativ break condition  

   TIME   =   0.40     timestep for ELM

  volume/ion in A,a.u.               =      17.91       120.86
  Fermi-wavevector in a.u.,A,eV,Ry     =   1.380957  2.609630 25.946871  1.907041
  Thomas-Fermi vector in A             =   2.505786
 
 Write flags
   LWAVE        =      T    write WAVECAR
   LDOWNSAMPLE  =      F    k-point downsampling of WAVECAR
   LCHARG       =      T    write CHGCAR
   LVTOT        =      F    write LOCPOT, total local potential
   LVHAR        =      F    write LOCPOT, Hartree potential only
   LELF         =      F    write electronic localiz. function (ELF)
   LORBIT       =     11    0 simple, 1 ext, 2 COOP (PROOUT), +10 PAW based schemes


 Dipole corrections
   LMONO  =      F    monopole corrections only (constant potential shift)
   LDIPOL =      F    correct potential (dipole corrections)
   IDIPOL =      0    1-x, 2-y, 3-z, 4-all directions 
   EPSILON=  1.0000000 bulk dielectric constant

 LDA+U is selected, type is set to LDAUTYPE =  2
   angular momentum for each species LDAUL =     2    2    2
   U (eV)           for each species LDAUU =   0.0  0.1  4.7
   J (eV)           for each species LDAUJ =   0.0  0.0  0.0
 Exchange correlation treatment:
   GGA     =    PS    GGA type
   LEXCH   =    14    internal setting for exchange type
   VOSKOWN=      0    Vosko Wilk Nusair interpolation
   LHFCALC =     F    Hartree Fock is set to
   LHFONE  =     F    Hartree Fock one center treatment
   AEXX    =    0.0000 exact exchange contribution

 Linear response parameters
   LEPSILON=     F    determine dielectric tensor
   LRPA    =     F    only Hartree local field effects (RPA)
   LNABLA  =     F    use nabla operator in PAW spheres
   LVEL    =     F    velocity operator in full k-point grid
   LINTERFAST=   F  fast interpolation
   KINTER  =     0    interpolate to denser k-point grid
   CSHIFT  =0.1000    complex shift for real part using Kramers Kronig
   OMEGAMAX=  -1.0    maximum frequency
   DEG_THRESHOLD= 0.2000000E-02 threshold for treating states as degnerate
   RTIME   =   -0.100 relaxation time in fs
  (WPLASMAI=    0.000 imaginary part of plasma frequency in eV, 0.658/RTIME)
   DFIELD  = 0.0000000 0.0000000 0.0000000 field for delta impulse in time
 
 Orbital magnetization related:
   ORBITALMAG=     F  switch on orbital magnetization
   LCHIMAG   =     F  perturbation theory with respect to B field
   DQ        =  0.001000  dq finite difference perturbation B field
   LLRAUG    =     F  two centre corrections for induced B field

 PEAD related settings:
   LPEAD      =     T    switch on PEAD
   IPEAD      =     4    finite difference order for dpsi/dk
   LCALCPOL   =     T    calculate macroscopic polarization
   LCALCEPS   =     F    calculate dielectric tensor
   EFIELD_PEAD=    0.0000    0.0000    0.0000
   SKIP_EDOTP =     F
   LRPA       =     F
   SKIP_SCF   =     F


--------------------------------------------------------------------------------------------------------


 Static calculation
 charge density and potential will be updated during run
 spin polarized calculation
 Variant of blocked Davidson
 Davidson routine will perform the subspace rotation
 perform sub-space diagonalisation
    after iterative eigenvector-optimisation
 modified Broyden-mixing scheme, WC =      100.0
 initial mixing is a Kerker type mixing with AMIX =  0.4000 and BMIX =      1.0000
 Hartree-type preconditioning will be used
 using additional bands          168
 reciprocal scheme for non local part
 use partial core corrections
 calculate Harris-corrections to forces 
   (improved forces if not selfconsistent)
 use gradient corrections 
 use of overlap-Matrix (Vanderbilt PP)
 Fermi weights with tetrahedron method with Bloechl corrections


--------------------------------------------------------------------------------------------------------


  energy-cutoff  :      700.00
  volume of cell :     1146.23
      direct lattice vectors                 reciprocal lattice vectors
    10.493526000  0.513253000  0.000000000     0.095525380 -0.004672280  0.000000000
     0.513253000 10.493526000  0.000000000    -0.004672280  0.095525380  0.000000000
     0.000000000  0.000000000 10.434464000     0.000000000  0.000000000  0.095836260

  length of vectors
    10.506070462 10.506070462 10.434464000     0.095639576  0.095639576  0.095836260


 
 k-points in units of 2pi/SCALE and weight: Automatic mesh                          
   0.00000000  0.00000000  0.00000000       0.125
   0.04776269 -0.00233614  0.00000000       0.250
   0.04542655  0.04542655  0.00000000       0.125
   0.00000000  0.00000000  0.04791813       0.125
   0.04776269 -0.00233614  0.04791813       0.250
   0.04542655  0.04542655  0.04791813       0.125
 
 k-points in reciprocal lattice and weights: Automatic mesh                          
   0.00000000  0.00000000  0.00000000       0.125
   0.50000000  0.00000000  0.00000000       0.250
   0.50000000  0.50000000  0.00000000       0.125
   0.00000000  0.00000000  0.50000000       0.125
   0.50000000  0.00000000  0.50000000       0.250
   0.50000000  0.50000000  0.50000000       0.125
 
 position of ions in fractional coordinates (direct lattice) 
   0.12606000  0.12555900  0.11968400
   0.62606000  0.12555900  0.11968400
   0.12606000  0.62555900  0.11968400
   0.62606000  0.62555900  0.11968400
   0.37394000  0.37444100  0.11968400
   0.87394000  0.37444100  0.11968400
   0.37394000  0.87444100  0.11968400
   0.87394000  0.87444100  0.11968400
   0.12444100  0.37394000  0.86968400
   0.62444100  0.37394000  0.86968400
   0.12444100  0.87394000  0.86968400
   0.62444100  0.87394000  0.86968400
   0.37555900  0.12606000  0.86968400
   0.87555900  0.12606000  0.86968400
   0.37555900  0.62606000  0.86968400
   0.87555900  0.62606000  0.86968400
   0.12394000  0.12444100  0.61968400
   0.62394000  0.12444100  0.61968400
   0.12394000  0.62444100  0.61968400
   0.62394000  0.62444100  0.61968400
   0.37606000  0.37555900  0.61968400
   0.87606000  0.37555900  0.61968400
   0.37606000  0.87555900  0.61968400
   0.87606000  0.87555900  0.61968400
   0.37444100  0.12394000  0.36968400
   0.87444100  0.12394000  0.36968400
   0.37444100  0.62394000  0.36968400
   0.87444100  0.62394000  0.36968400
   0.12555900  0.37606000  0.36968400
   0.62555900  0.37606000  0.36968400
   0.12555900  0.87606000  0.36968400
   0.62555900  0.87606000  0.36968400
   0.00000000  0.00000000  0.50459000
   0.50000000  0.00000000  0.50459000
   0.00000000  0.50000000  0.50459000
   0.50000000  0.50000000  0.50459000
   0.25000000  0.00000000  0.25459000
   0.75000000  0.00000000  0.25459000
   0.25000000  0.50000000  0.25459000
   0.75000000  0.50000000  0.25459000
   0.25000000  0.25000000  0.00459000
   0.75000000  0.25000000  0.00459000
   0.25000000  0.75000000  0.00459000
   0.75000000  0.75000000  0.00459000
   0.00000000  0.25000000  0.75459000
   0.50000000  0.25000000  0.75459000
   0.00000000  0.75000000  0.75459000
   0.50000000  0.75000000  0.75459000
   0.00000000  0.00000000  0.00604200
   0.50000000  0.00000000  0.00604200
   0.00000000  0.50000000  0.00604200
   0.50000000  0.50000000  0.00604200
   0.25000000  0.00000000  0.75604200
   0.75000000  0.00000000  0.75604200
   0.25000000  0.50000000  0.75604200
   0.75000000  0.50000000  0.75604200
   0.25000000  0.25000000  0.50604200
   0.75000000  0.25000000  0.50604200
   0.25000000  0.75000000  0.50604200
   0.75000000  0.75000000  0.50604200
   0.00000000  0.25000000  0.25604200
   0.50000000  0.25000000  0.25604200
   0.00000000  0.75000000  0.25604200
   0.50000000  0.75000000  0.25604200
 
 position of ions in cartesian coordinates  (Angst):
   1.38725742  1.38225730  1.24883839
   6.63402042  1.63888380  1.24883839
   1.64388392  6.62902030  1.24883839
   6.89064692  6.88564680  1.24883839
   4.11613208  4.12113220  1.24883839
   9.36289508  4.37775870  1.24883839
   4.37275858  9.36789520  1.24883839
   9.61952158  9.62452170  1.24883839
   1.49775070  3.98781883  9.07468639
   6.74451370  4.24444533  9.07468639
   1.75437720  9.23458183  9.07468639
   7.00114020  9.49120833  9.07468639
   4.00563880  1.51557067  9.07468639
   9.25240180  1.77219717  9.07468639
   4.26226530  6.76233367  9.07468639
   9.50902830  7.01896017  9.07468639
   1.36443733  1.36943745  6.46607039
   6.61120033  1.62606395  6.46607039
   1.62106383  6.61620045  6.46607039
   6.86782683  6.87282695  6.46607039
   4.13895217  4.13395205  6.46607039
   9.38571517  4.39057855  6.46607039
   4.39557867  9.38071505  6.46607039
   9.64234167  9.63734155  6.46607039
   3.99281895  1.49275058  3.85745439
   9.23958195  1.74937708  3.85745439
   4.24944545  6.73951358  3.85745439
   9.49620845  6.99614008  3.85745439
   1.51057055  4.01063892  3.85745439
   6.75733355  4.26726542  3.85745439
   1.76719705  9.25740192  3.85745439
   7.01396005  9.51402842  3.85745439
   0.00000000  0.00000000  5.26512619
   5.24676300  0.25662650  5.26512619
   0.25662650  5.24676300  5.26512619
   5.50338950  5.50338950  5.26512619
   2.62338150  0.12831325  2.65651019
   7.87014450  0.38493975  2.65651019
   2.88000800  5.37507625  2.65651019
   8.12677100  5.63170275  2.65651019
   2.75169475  2.75169475  0.04789419
   7.99845775  3.00832125  0.04789419
   3.00832125  7.99845775  0.04789419
   8.25508425  8.25508425  0.04789419
   0.12831325  2.62338150  7.87374219
   5.37507625  2.88000800  7.87374219
   0.38493975  7.87014450  7.87374219
   5.63170275  8.12677100  7.87374219
   0.00000000  0.00000000  0.06304503
   5.24676300  0.25662650  0.06304503
   0.25662650  5.24676300  0.06304503
   5.50338950  5.50338950  0.06304503
   2.62338150  0.12831325  7.88889303
   7.87014450  0.38493975  7.88889303
   2.88000800  5.37507625  7.88889303
   8.12677100  5.63170275  7.88889303
   2.75169475  2.75169475  5.28027703
   7.99845775  3.00832125  5.28027703
   3.00832125  7.99845775  5.28027703
   8.25508425  8.25508425  5.28027703
   0.12831325  2.62338150  2.67166103
   5.37507625  2.88000800  2.67166103
   0.38493975  7.87014450  2.67166103
   5.63170275  8.12677100  2.67166103
 


--------------------------------------------------------------------------------------------------------


 k-point  1 :   0.0000 0.0000 0.0000  plane waves:   48207
 k-point  2 :   0.5000 0.0000 0.0000  plane waves:   48242
 k-point  3 :   0.5000 0.5000 0.0000  plane waves:   48220
 k-point  4 :   0.0000 0.0000 0.5000  plane waves:   48254
 k-point  5 :   0.5000 0.0000 0.5000  plane waves:   48176
 k-point  6 :   0.5000 0.5000 0.5000  plane waves:   48128

 maximum and minimum number of plane-waves per node :     48254    48128

 maximum number of plane-waves:     48254
 maximum index in each direction: 
   IXMAX=   22   IYMAX=   22   IZMAX=   22
   IXMIN=  -23   IYMIN=  -23   IZMIN=  -23


 serial   3D FFT for wavefunctions
 parallel 3D FFT for charge:
    minimum data exchange during FFTs selected (reduces bandwidth)


 total amount of memory used by VASP MPI-rank0   300225. kBytes
=======================================================================

   base      :      30000. kBytes
   nonl-proj :     174956. kBytes
   fftplans  :       4588. kBytes
   grid      :      69719. kBytes
   one-center:       1990. kBytes
   wavefun   :      18972. kBytes
 
     INWAV:  cpu time    0.0000: real time    0.0000
 Broyden mixing: mesh for mixing (old mesh)
   NGX = 45   NGY = 45   NGZ = 45
  (NGX  =192   NGY  =192   NGZ  =180)
  gives a total of  91125 points

 initial charge density was supplied:
 charge density of overlapping atoms calculated
 number of electron     688.0000000 magnetization       0.0000000
 keeping initial charge density in first step


--------------------------------------------------------------------------------------------------------


 Maximum index for augmentation-charges          897 (set IRDMAX)


--------------------------------------------------------------------------------------------------------


 First call to EWALD:  gamma=   0.169
 Maximum number of real-space cells 3x 3x 3
 Maximum number of reciprocal cells 3x 3x 3

    FEWALD:  cpu time    0.0021: real time    0.0026


--------------------------------------- Iteration      1(   1)  ---------------------------------------


    POTLOK:  cpu time    0.3363: real time    1.1347
    SETDIJ:  cpu time    0.0142: real time    0.0144
     EDDAV:  cpu time   63.6562: real time   65.1752
 BZINTS: Fermi energy: 16.861593;688.000000 electrons
         Band energy:***********;  BLOECHL correction: -0.005869
       DOS:  cpu time    0.0183: real time    0.0184
    --------------------------------------------
      LOOP:  cpu time   64.0250: real time   66.3426

 eigenvalue-minimisations  : 12288
 total energy-change (2. order) : 0.6198605E+04  (-0.5035464E+05)
 number of electron     688.0000000 magnetization       0.0000000
 augmentation part      688.0000000 magnetization       0.0000000

 Free energy of the ion-electron system (eV)
  ---------------------------------------------------
  alpha Z        PSCENC =      2365.27053166
  Ewald energy   TEWEN  =    -62591.64302961
  -Hartree energ DENC   =    -44238.41507809
  -exchange      EXHF   =         0.00000000
  -V(xc)+E(xc)   XCENC  =      3320.11788042
  PAW double counting   =     94592.23312189   -98164.79192727
  entropy T*S    EENTRO =         0.00000000
  eigenvalues    EBANDS =     -3104.23146924
  atomic energy  EATOM  =    114020.06510763
  Solvation  Ediel_sol  =         0.00000000
  ---------------------------------------------------
  free energy    TOTEN  =      6198.60513737 eV

  energy without entropy =     6198.60513737  energy(sigma->0) =     6198.60513737


--------------------------------------------------------------------------------------------------------




--------------------------------------- Iteration      1(   2)  ---------------------------------------


     EDDAV:  cpu time   65.6919: real time   66.2109
 BZINTS: Fermi energy:  6.683289;688.000000 electrons
         Band energy:***********;  BLOECHL correction:  0.000000
       DOS:  cpu time    0.0031: real time    0.0032
    --------------------------------------------
      LOOP:  cpu time   65.6951: real time   66.2140

 eigenvalue-minimisations  : 12544
 total energy-change (2. order) :-0.6284071E+04  (-0.6153005E+04)
 number of electron     688.0000000 magnetization       0.0000000
 augmentation part      688.0000000 magnetization       0.0000000

 Free energy of the ion-electron system (eV)
  ---------------------------------------------------
  alpha Z        PSCENC =      2365.27053166
  Ewald energy   TEWEN  =    -62591.64302961
  -Hartree energ DENC   =    -44238.41507809
  -exchange      EXHF   =         0.00000000
  -V(xc)+E(xc)   XCENC  =      3320.11788042
  PAW double counting   =     94592.23312189   -98164.79192727
  entropy T*S    EENTRO =         0.00000000
  eigenvalues    EBANDS =     -9388.30245110
  atomic energy  EATOM  =    114020.06510763
  Solvation  Ediel_sol  =         0.00000000
  ---------------------------------------------------
  free energy    TOTEN  =       -85.46584449 eV

  energy without entropy =      -85.46584449  energy(sigma->0) =      -85.46584449


--------------------------------------------------------------------------------------------------------




--------------------------------------- Iteration      1(   3)  ---------------------------------------


     EDDAV:  cpu time  131.3566: real time  132.2779
 BZINTS: Fermi energy:  6.110129;688.000000 electrons
         Band energy:***********;  BLOECHL correction:  0.000000
       DOS:  cpu time    0.0032: real time    0.0032
    --------------------------------------------
      LOOP:  cpu time  131.3598: real time  132.2811

 eigenvalue-minimisations  : 18176
 total energy-change (2. order) :-0.2861391E+03  (-0.2847776E+03)
 number of electron     688.0000000 magnetization       0.0000000
 augmentation part      688.0000000 magnetization       0.0000000

 Free energy of the ion-electron system (eV)
  ---------------------------------------------------
  alpha Z        PSCENC =      2365.27053166
  Ewald energy   TEWEN  =    -62591.64302961
  -Hartree energ DENC   =    -44238.41507809
  -exchange      EXHF   =         0.00000000
  -V(xc)+E(xc)   XCENC  =      3320.11788042
  PAW double counting   =     94592.23312189   -98164.79192727
  entropy T*S    EENTRO =         0.00000000
  eigenvalues    EBANDS =     -9674.44157682
  atomic energy  EATOM  =    114020.06510763
  Solvation  Ediel_sol  =         0.00000000
  ---------------------------------------------------
  free energy    TOTEN  =      -371.60497021 eV

  energy without entropy =     -371.60497021  energy(sigma->0) =     -371.60497021


--------------------------------------------------------------------------------------------------------




--------------------------------------- Iteration      1(   4)  ---------------------------------------


     EDDAV:  cpu time   70.1401: real time   70.6850
 BZINTS: Fermi energy:  6.114789;688.000000 electrons
         Band energy:***********;  BLOECHL correction:  0.000000
       DOS:  cpu time    0.0032: real time    0.0032
    --------------------------------------------
      LOOP:  cpu time   70.1433: real time   70.6882

 eigenvalue-minimisations  : 12800
 total energy-change (2. order) :-0.3943299E+01  (-0.3943077E+01)
 number of electron     688.0000000 magnetization       0.0000000
 augmentation part      688.0000000 magnetization       0.0000000

 Free energy of the ion-electron system (eV)
  ---------------------------------------------------
  alpha Z        PSCENC =      2365.27053166
  Ewald energy   TEWEN  =    -62591.64302961
  -Hartree energ DENC   =    -44238.41507809
  -exchange      EXHF   =         0.00000000
  -V(xc)+E(xc)   XCENC  =      3320.11788042
  PAW double counting   =     94592.23312189   -98164.79192727
  entropy T*S    EENTRO =         0.00000000
  eigenvalues    EBANDS =     -9678.38487592
  atomic energy  EATOM  =    114020.06510763
  Solvation  Ediel_sol  =         0.00000000
  ---------------------------------------------------
  free energy    TOTEN  =      -375.54826931 eV

  energy without entropy =     -375.54826931  energy(sigma->0) =     -375.54826931


--------------------------------------------------------------------------------------------------------




--------------------------------------- Iteration      1(   5)  ---------------------------------------


     EDDAV:  cpu time  137.1973: real time  138.1262
 BZINTS: Fermi energy:  6.254656;688.000000 electrons
         Band energy:***********;  BLOECHL correction:  0.000000
       DOS:  cpu time    0.0031: real time    0.0032
    CHARGE:  cpu time    1.1773: real time    1.1856
    MIXING:  cpu time    0.0024: real time    0.0024
    --------------------------------------------
      LOOP:  cpu time  138.3802: real time  139.3173

 eigenvalue-minimisations  : 17920
 total energy-change (2. order) :-0.1033986E+00  (-0.1033978E+00)
 number of electron     688.0000433 magnetization       0.0000000
 augmentation part      260.9802314 magnetization       0.0000000

 Broyden mixing:
  rms(total) = 0.75121E+01    rms(broyden)= 0.75121E+01
  rms(prec ) = 0.90092E+01
  weight for this iteration     100.00

 Free energy of the ion-electron system (eV)
  ---------------------------------------------------
  alpha Z        PSCENC =      2365.27053166
  Ewald energy   TEWEN  =    -62591.64302961
  -Hartree energ DENC   =    -44238.41507809
  -exchange      EXHF   =         0.00000000
  -V(xc)+E(xc)   XCENC  =      3320.11788042
  PAW double counting   =     94592.23312189   -98164.79192727
  entropy T*S    EENTRO =         0.00000000
  eigenvalues    EBANDS =     -9678.48827451
  atomic energy  EATOM  =    114020.06510763
  Solvation  Ediel_sol  =         0.00000000
  ---------------------------------------------------
  free energy    TOTEN  =      -375.65166790 eV

  energy without entropy =     -375.65166790  energy(sigma->0) =     -375.65166790


--------------------------------------------------------------------------------------------------------




--------------------------------------- Iteration      1(   6)  ---------------------------------------


    POTLOK:  cpu time    0.1178: real time    0.1212
    SETDIJ:  cpu time    0.0125: real time    0.0126
     EDDAV:  cpu time   64.0654: real time   64.5746
 BZINTS: Fermi energy:  4.356863;688.000000 electrons
         Band energy:***********;  BLOECHL correction:  0.000000
       DOS:  cpu time    0.0028: real time    0.0028
    CHARGE:  cpu time    1.1759: real time    1.1841
    MIXING:  cpu time    0.0025: real time    0.0491
    --------------------------------------------
      LOOP:  cpu time   65.3768: real time   65.9445

 eigenvalue-minimisations  : 12288
 total energy-change (2. order) : 0.4143281E+02  (-0.5925333E+02)
 number of electron     688.0000466 magnetization       0.0000000
 augmentation part      296.5482875 magnetization       0.0000000

 Broyden mixing:
  rms(total) = 0.10033E+02    rms(broyden)= 0.10033E+02
  rms(prec ) = 0.10501E+02
  weight for this iteration     100.00

 eigenvalues of (default mixing * dielectric matrix)
  average eigenvalue GAMMA=   0.1699
  0.1699

 Free energy of the ion-electron system (eV)
  ---------------------------------------------------
  alpha Z        PSCENC =      2365.27053166
  Ewald energy   TEWEN  =    -62591.64302961
  -Hartree energ DENC   =    -42276.66945854
  -exchange      EXHF   =         0.00000000
  -V(xc)+E(xc)   XCENC  =      3267.44137701
  PAW double counting   =     96398.01452132   -99756.48914406
  entropy T*S    EENTRO =         0.00000000
  eigenvalues    EBANDS =    -11760.20876427
  atomic energy  EATOM  =    114020.06510763
  Solvation  Ediel_sol  =         0.00000000
  ---------------------------------------------------
  free energy    TOTEN  =      -334.21885887 eV

  energy without entropy =     -334.21885887  energy(sigma->0) =     -334.21885887


--------------------------------------------------------------------------------------------------------




--------------------------------------- Iteration      1(   7)  ---------------------------------------


    POTLOK:  cpu time    0.1206: real time    0.1213
    SETDIJ:  cpu time    0.0127: real time    0.0128
     EDDAV:  cpu time   69.8964: real time   70.4358
 BZINTS: Fermi energy:  4.727009;688.000000 electrons
         Band energy:***********;  BLOECHL correction:  0.000000
       DOS:  cpu time    0.0032: real time    0.0032
    CHARGE:  cpu time    1.1791: real time    1.1871
    MIXING:  cpu time    0.0016: real time    0.0233
    --------------------------------------------
      LOOP:  cpu time   71.2135: real time   71.7835

 eigenvalue-minimisations  : 12800
 total energy-change (2. order) : 0.5413945E+01  (-0.1160304E+02)
 number of electron     688.0000456 magnetization      -0.0000000
 augmentation part      286.0105095 magnetization      -0.0000000

 Broyden mixing:
  rms(total) = 0.43690E+01    rms(broyden)= 0.43690E+01
  rms(prec ) = 0.44461E+01
  weight for this iteration     100.00

 eigenvalues of (default mixing * dielectric matrix)
  average eigenvalue GAMMA=   0.6162
  0.7681  0.4642

 Free energy of the ion-electron system (eV)
  ---------------------------------------------------
  alpha Z        PSCENC =      2365.27053166
  Ewald energy   TEWEN  =    -62591.64302961
  -Hartree energ DENC   =    -42767.52191553
  -exchange      EXHF   =         0.00000000
  -V(xc)+E(xc)   XCENC  =      3278.94417342
  PAW double counting   =     99825.51507304  -103341.92177461
  entropy T*S    EENTRO =         0.00000000
  eigenvalues    EBANDS =    -11117.51308004
  atomic energy  EATOM  =    114020.06510763
  Solvation  Ediel_sol  =         0.00000000
  ---------------------------------------------------
  free energy    TOTEN  =      -328.80491405 eV

  energy without entropy =     -328.80491405  energy(sigma->0) =     -328.80491405


--------------------------------------------------------------------------------------------------------




--------------------------------------- Iteration      1(   8)  ---------------------------------------


    POTLOK:  cpu time    0.1196: real time    0.1212
    SETDIJ:  cpu time    0.0126: real time    0.0127
     EDDAV:  cpu time   90.7359: real time   91.4019
 BZINTS: Fermi energy:  5.259380;688.000000 electrons
         Band energy:***********;  BLOECHL correction:  0.000000
       DOS:  cpu time    0.0032: real time    0.0032
    CHARGE:  cpu time    1.1869: real time    1.1951
    MIXING:  cpu time    0.0012: real time    0.0012
    --------------------------------------------
      LOOP:  cpu time   92.0593: real time   92.7353

 eigenvalue-minimisations  : 14592
 total energy-change (2. order) :-0.1303736E+00  (-0.3804447E+01)
 number of electron     688.0000450 magnetization       0.0000000
 augmentation part      281.5368947 magnetization       0.0000000

 Broyden mixing:
  rms(total) = 0.32927E+01    rms(broyden)= 0.32927E+01
  rms(prec ) = 0.35826E+01
  weight for this iteration     100.00

 eigenvalues of (default mixing * dielectric matrix)
  average eigenvalue GAMMA=   0.8629
  1.5246  0.6206  0.4434

 Free energy of the ion-electron system (eV)
  ---------------------------------------------------
  alpha Z        PSCENC =      2365.27053166
  Ewald energy   TEWEN  =    -62591.64302961
  -Hartree energ DENC   =    -43025.62447845
  -exchange      EXHF   =         0.00000000
  -V(xc)+E(xc)   XCENC  =      3291.36184402
  PAW double counting   =    105281.22322059  -108896.64152595
  entropy T*S    EENTRO =         0.00000000
  eigenvalues    EBANDS =    -10772.94695752
  atomic energy  EATOM  =    114020.06510763
  Solvation  Ediel_sol  =         0.00000000
  ---------------------------------------------------
  free energy    TOTEN  =      -328.93528762 eV

  energy without entropy =     -328.93528762  energy(sigma->0) =     -328.93528762


--------------------------------------------------------------------------------------------------------




--------------------------------------- Iteration      1(   9)  ---------------------------------------


    POTLOK:  cpu time    0.1200: real time    0.1208
    SETDIJ:  cpu time    0.0126: real time    0.0127
     EDDAV:  cpu time   91.4062: real time   92.0762
 BZINTS: Fermi energy:  4.739323;688.000000 electrons
         Band energy:***********;  BLOECHL correction:  0.000000
       DOS:  cpu time    0.0031: real time    0.0031
    CHARGE:  cpu time    1.1879: real time    1.1959
    MIXING:  cpu time    0.0017: real time    0.0175
    --------------------------------------------
      LOOP:  cpu time   92.7315: real time   93.4263

 eigenvalue-minimisations  : 15104
 total energy-change (2. order) :-0.1702391E+01  (-0.1057901E+02)
 number of electron     688.0000453 magnetization       0.0000000
 augmentation part      282.1393428 magnetization       0.0000000

 Broyden mixing:
  rms(total) = 0.23602E+01    rms(broyden)= 0.23601E+01
  rms(prec ) = 0.28096E+01
  weight for this iteration     100.00

 eigenvalues of (default mixing * dielectric matrix)
  average eigenvalue GAMMA=   0.9785
  2.3889  0.5973  0.5973  0.3303

 Free energy of the ion-electron system (eV)
  ---------------------------------------------------
  alpha Z        PSCENC =      2365.27053166
  Ewald energy   TEWEN  =    -62591.64302961
  -Hartree energ DENC   =    -42811.14219758
  -exchange      EXHF   =         0.00000000
  -V(xc)+E(xc)   XCENC  =      3284.02598964
  PAW double counting   =    109617.32779113  -113268.26986382
  entropy T*S    EENTRO =         0.00000000
  eigenvalues    EBANDS =    -10946.27200807
  atomic energy  EATOM  =    114020.06510763
  Solvation  Ediel_sol  =         0.00000000
  ---------------------------------------------------
  free energy    TOTEN  =      -330.63767901 eV

  energy without entropy =     -330.63767901  energy(sigma->0) =     -330.63767901


--------------------------------------------------------------------------------------------------------




--------------------------------------- Iteration      1(  10)  ---------------------------------------


    POTLOK:  cpu time    0.1199: real time    0.1208
    SETDIJ:  cpu time    0.0126: real time    0.0126
     EDDAV:  cpu time  104.2832: real time  105.0414
 BZINTS: Fermi energy:  5.176194;688.000000 electrons
         Band energy:***********;  BLOECHL correction:  0.000000
       DOS:  cpu time    0.0032: real time    0.0032
    CHARGE:  cpu time    1.1876: real time    1.1958
    MIXING:  cpu time    0.0014: real time    0.0014
    --------------------------------------------
      LOOP:  cpu time  105.6078: real time  106.3753

 eigenvalue-minimisations  : 16128
 total energy-change (2. order) : 0.3670463E+01  (-0.2125146E+01)
 number of electron     688.0000451 magnetization       0.0000000
 augmentation part      282.4182774 magnetization       0.0000000

 Broyden mixing:
  rms(total) = 0.27568E+00    rms(broyden)= 0.27563E+00
  rms(prec ) = 0.30766E+00
  weight for this iteration     100.00

 eigenvalues of (default mixing * dielectric matrix)
  average eigenvalue GAMMA=   0.9219
  2.3551  0.7796  0.5764  0.5764  0.3221

 Free energy of the ion-electron system (eV)
  ---------------------------------------------------
  alpha Z        PSCENC =      2365.27053166
  Ewald energy   TEWEN  =    -62591.64302961
  -Hartree energ DENC   =    -42840.22950300
  -exchange      EXHF   =         0.00000000
  -V(xc)+E(xc)   XCENC  =      3287.29305627
  PAW double counting   =    113218.86709841  -116915.64507012
  entropy T*S    EENTRO =         0.00000000
  eigenvalues    EBANDS =    -10870.94540693
  atomic energy  EATOM  =    114020.06510763
  Solvation  Ediel_sol  =         0.00000000
  ---------------------------------------------------
  free energy    TOTEN  =      -326.96721569 eV

  energy without entropy =     -326.96721569  energy(sigma->0) =     -326.96721569


--------------------------------------------------------------------------------------------------------




--------------------------------------- Iteration      1(  11)  ---------------------------------------


    POTLOK:  cpu time    0.1204: real time    0.1212
    SETDIJ:  cpu time    0.0126: real time    0.0126
     EDDAV:  cpu time  128.4626: real time  129.3643
 BZINTS: Fermi energy:  5.190629;688.000000 electrons
         Band energy:***********;  BLOECHL correction:  0.000000
       DOS:  cpu time    0.0032: real time    0.0032
    CHARGE:  cpu time    1.1781: real time    1.1865
    MIXING:  cpu time    0.0014: real time    0.0014
    --------------------------------------------
      LOOP:  cpu time  129.7782: real time  130.6892

 eigenvalue-minimisations  : 18432
 total energy-change (2. order) :-0.1188104E+00  (-0.1276584E+00)
 number of electron     688.0000450 magnetization       0.0000000
 augmentation part      282.3840051 magnetization       0.0000000

 Broyden mixing:
  rms(total) = 0.35467E+00    rms(broyden)= 0.35465E+00
  rms(prec ) = 0.39072E+00
  weight for this iteration     100.00

 eigenvalues of (default mixing * dielectric matrix)
  average eigenvalue GAMMA=   0.9028
  2.2441  0.8149  0.7250  0.7250  0.5724  0.3351

 Free energy of the ion-electron system (eV)
  ---------------------------------------------------
  alpha Z        PSCENC =      2365.27053166
  Ewald energy   TEWEN  =    -62591.64302961
  -Hartree energ DENC   =    -42858.82947065
  -exchange      EXHF   =         0.00000000
  -V(xc)+E(xc)   XCENC  =      3287.04859715
  PAW double counting   =    113008.70956882  -116705.46968856
  entropy T*S    EENTRO =         0.00000000
  eigenvalues    EBANDS =    -10852.23764255
  atomic energy  EATOM  =    114020.06510763
  Solvation  Ediel_sol  =         0.00000000
  ---------------------------------------------------
  free energy    TOTEN  =      -327.08602611 eV

  energy without entropy =     -327.08602611  energy(sigma->0) =     -327.08602611


--------------------------------------------------------------------------------------------------------




--------------------------------------- Iteration      1(  12)  ---------------------------------------


    POTLOK:  cpu time    0.1204: real time    0.1213
    SETDIJ:  cpu time    0.0126: real time    0.0126
     EDDAV:  cpu time   94.0655: real time   94.7410
 BZINTS: Fermi energy:  5.175526;688.000000 electrons
         Band energy:***********;  BLOECHL correction:  0.000000
       DOS:  cpu time    0.0031: real time    0.0031
    CHARGE:  cpu time    1.1892: real time    1.1974
    MIXING:  cpu time    0.0015: real time    0.0015
    --------------------------------------------
      LOOP:  cpu time   95.3923: real time   96.0770

 eigenvalue-minimisations  : 14848
 total energy-change (2. order) : 0.8339739E-02  (-0.4868541E-01)
 number of electron     688.0000450 magnetization       0.0000000
 augmentation part      282.2623255 magnetization       0.0000000

 Broyden mixing:
  rms(total) = 0.13246E+00    rms(broyden)= 0.13245E+00
  rms(prec ) = 0.14746E+00
  weight for this iteration     100.00

 eigenvalues of (default mixing * dielectric matrix)
  average eigenvalue GAMMA=   0.9439
  2.2690  1.0927  1.0927  0.6234  0.6234  0.5714  0.3347

 Free energy of the ion-electron system (eV)
  ---------------------------------------------------
  alpha Z        PSCENC =      2365.27053166
  Ewald energy   TEWEN  =    -62591.64302961
  -Hartree energ DENC   =    -42858.80400986
  -exchange      EXHF   =         0.00000000
  -V(xc)+E(xc)   XCENC  =      3286.55314057
  PAW double counting   =    112615.06331169  -116308.66291100
  entropy T*S    EENTRO =         0.00000000
  eigenvalues    EBANDS =    -10854.91982744
  atomic energy  EATOM  =    114020.06510763
  Solvation  Ediel_sol  =         0.00000000
  ---------------------------------------------------
  free energy    TOTEN  =      -327.07768637 eV

  energy without entropy =     -327.07768637  energy(sigma->0) =     -327.07768637


--------------------------------------------------------------------------------------------------------




--------------------------------------- Iteration      1(  13)  ---------------------------------------


    POTLOK:  cpu time    0.1200: real time    0.1211
    SETDIJ:  cpu time    0.0127: real time    0.0128
     EDDAV:  cpu time  107.6097: real time  108.3647
 BZINTS: Fermi energy:  5.178231;688.000000 electrons
         Band energy:***********;  BLOECHL correction:  0.000000
       DOS:  cpu time    0.0031: real time    0.0031
    CHARGE:  cpu time    1.1761: real time    1.1839
    MIXING:  cpu time    0.0017: real time    0.0017
    --------------------------------------------
      LOOP:  cpu time  108.9233: real time  109.6873

 eigenvalue-minimisations  : 15872
 total energy-change (2. order) :-0.8403901E-02  (-0.4948013E-02)
 number of electron     688.0000450 magnetization       0.0000000
 augmentation part      282.2776012 magnetization       0.0000000

 Broyden mixing:
  rms(total) = 0.89906E-01    rms(broyden)= 0.89904E-01
  rms(prec ) = 0.92645E-01
  weight for this iteration     100.00

 eigenvalues of (default mixing * dielectric matrix)
  average eigenvalue GAMMA=   1.1321
  2.5638  2.5638  0.3347  0.8440  0.8440  0.6680  0.6680  0.5704

 Free energy of the ion-electron system (eV)
  ---------------------------------------------------
  alpha Z        PSCENC =      2365.27053166
  Ewald energy   TEWEN  =    -62591.64302961
  -Hartree energ DENC   =    -42864.35080659
  -exchange      EXHF   =         0.00000000
  -V(xc)+E(xc)   XCENC  =      3286.62259748
  PAW double counting   =    112375.85872754  -116069.31914184
  entropy T*S    EENTRO =         0.00000000
  eigenvalues    EBANDS =    -10849.59007654
  atomic energy  EATOM  =    114020.06510763
  Solvation  Ediel_sol  =         0.00000000
  ---------------------------------------------------
  free energy    TOTEN  =      -327.08609028 eV

  energy without entropy =     -327.08609028  energy(sigma->0) =     -327.08609028


--------------------------------------------------------------------------------------------------------




--------------------------------------- Iteration      1(  14)  ---------------------------------------


    POTLOK:  cpu time    0.1206: real time    0.1215
    SETDIJ:  cpu time    0.0127: real time    0.0127
     EDDAV:  cpu time  118.6523: real time  119.4697
 BZINTS: Fermi energy:  5.181164;688.000000 electrons
         Band energy:***********;  BLOECHL correction:  0.000000
       DOS:  cpu time    0.0031: real time    0.0032
    CHARGE:  cpu time    1.1749: real time    1.1831
    MIXING:  cpu time    0.0017: real time    0.0017
    --------------------------------------------
      LOOP:  cpu time  119.9654: real time  120.7919

 eigenvalue-minimisations  : 16896
 total energy-change (2. order) :-0.1288522E-01  (-0.7479014E-02)
 number of electron     688.0000450 magnetization       0.0000000
 augmentation part      282.2397966 magnetization       0.0000000

 Broyden mixing:
  rms(total) = 0.43207E-01    rms(broyden)= 0.43199E-01
  rms(prec ) = 0.48916E-01
  weight for this iteration     100.00

 eigenvalues of (default mixing * dielectric matrix)
  average eigenvalue GAMMA=   1.0578
  2.4055  2.4055  0.9365  0.9365  0.3346  0.6454  0.6454  0.5633  0.6472

 Free energy of the ion-electron system (eV)
  ---------------------------------------------------
  alpha Z        PSCENC =      2365.27053166
  Ewald energy   TEWEN  =    -62591.64302961
  -Hartree energ DENC   =    -42873.20357884
  -exchange      EXHF   =         0.00000000
  -V(xc)+E(xc)   XCENC  =      3286.45009956
  PAW double counting   =    112100.57064850  -115793.33138664
  entropy T*S    EENTRO =         0.00000000
  eigenvalues    EBANDS =    -10841.27736775
  atomic energy  EATOM  =    114020.06510763
  Solvation  Ediel_sol  =         0.00000000
  ---------------------------------------------------
  free energy    TOTEN  =      -327.09897550 eV

  energy without entropy =     -327.09897550  energy(sigma->0) =     -327.09897550


--------------------------------------------------------------------------------------------------------




--------------------------------------- Iteration      1(  15)  ---------------------------------------


    POTLOK:  cpu time    0.1199: real time    0.1209
    SETDIJ:  cpu time    0.0126: real time    0.0127
     EDDAV:  cpu time   75.3028: real time   75.8763
 BZINTS: Fermi energy:  5.180143;688.000000 electrons
         Band energy:***********;  BLOECHL correction:  0.000000
       DOS:  cpu time    0.0031: real time    0.0031
    CHARGE:  cpu time    1.1891: real time    1.1976
    MIXING:  cpu time    0.0018: real time    0.0018
    --------------------------------------------
      LOOP:  cpu time   76.6294: real time   77.2124

 eigenvalue-minimisations  : 13056
 total energy-change (2. order) : 0.2362388E-03  (-0.5904444E-03)
 number of electron     688.0000450 magnetization       0.0000000
 augmentation part      282.2391618 magnetization       0.0000000

 Broyden mixing:
  rms(total) = 0.19275E-01    rms(broyden)= 0.19274E-01
  rms(prec ) = 0.20493E-01
  weight for this iteration     100.00

 eigenvalues of (default mixing * dielectric matrix)
  average eigenvalue GAMMA=   1.0044
  2.3454  2.3454  0.9400  0.9400  0.3346  0.6397  0.6397  0.5743  0.6425  0.6425

 Free energy of the ion-electron system (eV)
  ---------------------------------------------------
  alpha Z        PSCENC =      2365.27053166
  Ewald energy   TEWEN  =    -62591.64302961
  -Hartree energ DENC   =    -42872.01961598
  -exchange      EXHF   =         0.00000000
  -V(xc)+E(xc)   XCENC  =      3286.42824292
  PAW double counting   =    112187.87077921  -115880.92115492
  entropy T*S    EENTRO =         0.00000000
  eigenvalues    EBANDS =    -10842.14960017
  atomic energy  EATOM  =    114020.06510763
  Solvation  Ediel_sol  =         0.00000000
  ---------------------------------------------------
  free energy    TOTEN  =      -327.09873926 eV

  energy without entropy =     -327.09873926  energy(sigma->0) =     -327.09873926


--------------------------------------------------------------------------------------------------------




--------------------------------------- Iteration      1(  16)  ---------------------------------------


    POTLOK:  cpu time    0.1193: real time    0.1214
    SETDIJ:  cpu time    0.0126: real time    0.0127
     EDDAV:  cpu time  139.6002: real time  140.5385
 BZINTS: Fermi energy:  5.180181;688.000000 electrons
         Band energy:***********;  BLOECHL correction:  0.000000
       DOS:  cpu time    0.0031: real time    0.0032
    CHARGE:  cpu time    1.1874: real time    1.1957
    MIXING:  cpu time    0.0021: real time    0.0028
    --------------------------------------------
      LOOP:  cpu time  140.9247: real time  141.8741

 eigenvalue-minimisations  : 17920
 total energy-change (2. order) :-0.3189214E-03  (-0.6910603E-04)
 number of electron     688.0000450 magnetization      -0.0000000
 augmentation part      282.2407699 magnetization      -0.0000000

 Broyden mixing:
  rms(total) = 0.13344E-01    rms(broyden)= 0.13344E-01
  rms(prec ) = 0.14005E-01
  weight for this iteration     100.00

 eigenvalues of (default mixing * dielectric matrix)
  average eigenvalue GAMMA=   1.1688
  2.7193  2.2146  2.2146  1.1448  0.3346  0.8458  0.8458  0.6695  0.6695  0.5663
  0.6317

 Free energy of the ion-electron system (eV)
  ---------------------------------------------------
  alpha Z        PSCENC =      2365.27053166
  Ewald energy   TEWEN  =    -62591.64302961
  -Hartree energ DENC   =    -42872.27291214
  -exchange      EXHF   =         0.00000000
  -V(xc)+E(xc)   XCENC  =      3286.44797199
  PAW double counting   =    112199.23767692  -115892.21676565
  entropy T*S    EENTRO =         0.00000000
  eigenvalues    EBANDS =    -10841.98763898
  atomic energy  EATOM  =    114020.06510763
  Solvation  Ediel_sol  =         0.00000000
  ---------------------------------------------------
  free energy    TOTEN  =      -327.09905818 eV

  energy without entropy =     -327.09905818  energy(sigma->0) =     -327.09905818


--------------------------------------------------------------------------------------------------------




--------------------------------------- Iteration      1(  17)  ---------------------------------------


    POTLOK:  cpu time    0.1189: real time    0.1209
    SETDIJ:  cpu time    0.0125: real time    0.0125
     EDDAV:  cpu time   88.0888: real time   88.7377
 BZINTS: Fermi energy:  5.180839;688.000000 electrons
         Band energy:***********;  BLOECHL correction:  0.000000
       DOS:  cpu time    0.0031: real time    0.0032
    CHARGE:  cpu time    1.1862: real time    1.1943
    MIXING:  cpu time    0.0019: real time    0.0019
    --------------------------------------------
      LOOP:  cpu time   89.4114: real time   90.0705

 eigenvalue-minimisations  : 14336
 total energy-change (2. order) :-0.8473834E-03  (-0.4593180E-03)
 number of electron     688.0000450 magnetization      -0.0000000
 augmentation part      282.2320642 magnetization      -0.0000000

 Broyden mixing:
  rms(total) = 0.81773E-02    rms(broyden)= 0.81756E-02
  rms(prec ) = 0.87227E-02
  weight for this iteration     100.00

 eigenvalues of (default mixing * dielectric matrix)
  average eigenvalue GAMMA=   1.1800
  3.5128  2.1227  1.9558  1.1977  0.9317  0.9317  0.3346  0.6538  0.6538  0.5739
  0.6455  0.6455

 Free energy of the ion-electron system (eV)
  ---------------------------------------------------
  alpha Z        PSCENC =      2365.27053166
  Ewald energy   TEWEN  =    -62591.64302961
  -Hartree energ DENC   =    -42874.17972736
  -exchange      EXHF   =         0.00000000
  -V(xc)+E(xc)   XCENC  =      3286.50012939
  PAW double counting   =    112193.28475695  -115886.01690195
  entropy T*S    EENTRO =         0.00000000
  eigenvalues    EBANDS =    -10840.38077228
  atomic energy  EATOM  =    114020.06510763
  Solvation  Ediel_sol  =         0.00000000
  ---------------------------------------------------
  free energy    TOTEN  =      -327.09990556 eV

  energy without entropy =     -327.09990556  energy(sigma->0) =     -327.09990556


--------------------------------------------------------------------------------------------------------




--------------------------------------- Iteration      1(  18)  ---------------------------------------


    POTLOK:  cpu time    0.1197: real time    0.1206
    SETDIJ:  cpu time    0.0127: real time    0.0127
     EDDAV:  cpu time   98.8863: real time   99.5917
 BZINTS: Fermi energy:  5.180716;688.000000 electrons
         Band energy:***********;  BLOECHL correction:  0.000000
       DOS:  cpu time    0.0031: real time    0.0031
    CHARGE:  cpu time    1.1865: real time    1.1948
    MIXING:  cpu time    0.0019: real time    0.0019
    --------------------------------------------
      LOOP:  cpu time  100.2102: real time  100.9249

 eigenvalue-minimisations  : 14848
 total energy-change (2. order) :-0.7535028E-04  (-0.2622660E-04)
 number of electron     688.0000450 magnetization      -0.0000000
 augmentation part      282.2388602 magnetization      -0.0000000

 Broyden mixing:
  rms(total) = 0.58746E-02    rms(broyden)= 0.58744E-02
  rms(prec ) = 0.69444E-02
  weight for this iteration     100.00

 eigenvalues of (default mixing * dielectric matrix)
  average eigenvalue GAMMA=   1.1559
  3.6436  2.0972  2.0972  1.0487  1.0487  0.3346  0.7354  0.7354  0.8103  0.6601
  0.6601  0.5777  0.5777

 Free energy of the ion-electron system (eV)
  ---------------------------------------------------
  alpha Z        PSCENC =      2365.27053166
  Ewald energy   TEWEN  =    -62591.64302961
  -Hartree energ DENC   =    -42873.99265488
  -exchange      EXHF   =         0.00000000
  -V(xc)+E(xc)   XCENC  =      3286.50518793
  PAW double counting   =    112198.85727224  -115891.57587815
  entropy T*S    EENTRO =         0.00000000
  eigenvalues    EBANDS =    -10840.58651773
  atomic energy  EATOM  =    114020.06510763
  Solvation  Ediel_sol  =         0.00000000
  ---------------------------------------------------
  free energy    TOTEN  =      -327.09998091 eV

  energy without entropy =     -327.09998091  energy(sigma->0) =     -327.09998091


--------------------------------------------------------------------------------------------------------




--------------------------------------- Iteration      1(  19)  ---------------------------------------


    POTLOK:  cpu time    0.1195: real time    0.1208
    SETDIJ:  cpu time    0.0127: real time    0.0128
     EDDAV:  cpu time  134.9566: real time  135.8790
 BZINTS: Fermi energy:  5.180534;688.000000 electrons
         Band energy:***********;  BLOECHL correction:  0.000000
       DOS:  cpu time    0.0032: real time    0.0032
    CHARGE:  cpu time    1.1887: real time    1.1971
    MIXING:  cpu time    0.0021: real time    0.0021
    --------------------------------------------
      LOOP:  cpu time  136.2828: real time  137.2150

 eigenvalue-minimisations  : 17664
 total energy-change (2. order) :-0.1256165E-05  (-0.7603921E-05)
 number of electron     688.0000450 magnetization      -0.0000000
 augmentation part      282.2392002 magnetization      -0.0000000

 Broyden mixing:
  rms(total) = 0.36102E-02    rms(broyden)= 0.36101E-02
  rms(prec ) = 0.39853E-02
  weight for this iteration     100.00

 eigenvalues of (default mixing * dielectric matrix)
  average eigenvalue GAMMA=   1.2319
  3.7680  2.3588  2.3588  1.3230  1.3230  0.9701  0.9701  0.3346  0.6667  0.6667
[...]
   -.417E+02 0.915E+00 0.302E+02   0.426E+02 -.885E+00 -.305E+02   -.844E+00 -.277E-01 0.282E+00   -.173E-03 -.781E-05 -.134E-04
   -.417E+02 0.915E+00 0.302E+02   0.426E+02 -.885E+00 -.305E+02   -.844E+00 -.277E-01 0.282E+00   -.173E-03 -.781E-05 -.134E-04
   -.417E+02 0.915E+00 0.302E+02   0.426E+02 -.885E+00 -.305E+02   -.844E+00 -.277E-01 0.282E+00   -.173E-03 -.781E-05 -.134E-04
   -.417E+02 0.915E+00 0.302E+02   0.426E+02 -.885E+00 -.305E+02   -.844E+00 -.277E-01 0.282E+00   -.173E-03 -.781E-05 -.134E-04
   0.417E+02 -.915E+00 0.302E+02   -.426E+02 0.885E+00 -.305E+02   0.844E+00 0.277E-01 0.282E+00   0.173E-03 0.781E-05 -.134E-04
   0.417E+02 -.915E+00 0.302E+02   -.426E+02 0.885E+00 -.305E+02   0.844E+00 0.277E-01 0.282E+00   0.173E-03 0.781E-05 -.134E-04
   0.417E+02 -.915E+00 0.302E+02   -.426E+02 0.885E+00 -.305E+02   0.844E+00 0.277E-01 0.282E+00   0.173E-03 0.781E-05 -.134E-04
   0.417E+02 -.915E+00 0.302E+02   -.426E+02 0.885E+00 -.305E+02   0.844E+00 0.277E-01 0.282E+00   0.173E-03 0.781E-05 -.134E-04
   0.915E+00 -.417E+02 0.302E+02   -.885E+00 0.426E+02 -.305E+02   -.277E-01 -.844E+00 0.282E+00   -.781E-05 -.173E-03 -.134E-04
   0.915E+00 -.417E+02 0.302E+02   -.885E+00 0.426E+02 -.305E+02   -.277E-01 -.844E+00 0.282E+00   -.781E-05 -.173E-03 -.134E-04
   0.915E+00 -.417E+02 0.302E+02   -.885E+00 0.426E+02 -.305E+02   -.277E-01 -.844E+00 0.282E+00   -.781E-05 -.173E-03 -.134E-04
   0.915E+00 -.417E+02 0.302E+02   -.885E+00 0.426E+02 -.305E+02   -.277E-01 -.844E+00 0.282E+00   -.781E-05 -.173E-03 -.134E-04
   -.915E+00 0.417E+02 0.302E+02   0.885E+00 -.426E+02 -.305E+02   0.277E-01 0.844E+00 0.282E+00   0.781E-05 0.173E-03 -.134E-04
   -.915E+00 0.417E+02 0.302E+02   0.885E+00 -.426E+02 -.305E+02   0.277E-01 0.844E+00 0.282E+00   0.781E-05 0.173E-03 -.134E-04
   -.915E+00 0.417E+02 0.302E+02   0.885E+00 -.426E+02 -.305E+02   0.277E-01 0.844E+00 0.282E+00   0.781E-05 0.173E-03 -.134E-04
   -.915E+00 0.417E+02 0.302E+02   0.885E+00 -.426E+02 -.305E+02   0.277E-01 0.844E+00 0.282E+00   0.781E-05 0.173E-03 -.134E-04
   -.539E-07 -.231E-07 -.355E+02   0.338E-13 -.163E-12 0.340E+02   0.539E-24 0.202E-27 0.143E+01   0.114E-12 -.399E-13 0.122E-03
   -.539E-07 -.231E-07 -.355E+02   0.338E-13 -.171E-12 0.340E+02   0.315E-25 -.388E-25 0.143E+01   -.810E-12 0.761E-13 0.122E-03
   -.539E-07 -.231E-07 -.355E+02   0.622E-13 -.924E-13 0.340E+02   -.309E-24 0.220E-24 0.143E+01   0.152E-12 -.159E-12 0.122E-03
   -.539E-07 -.231E-07 -.355E+02   0.338E-13 -.142E-12 0.340E+02   0.202E-25 0.258E-25 0.143E+01   -.746E-12 -.182E-12 0.122E-03
   -.231E-07 -.539E-07 -.355E+02   0.000E+00 -.142E-12 0.340E+02   0.258E-25 0.233E-24 0.143E+01   -.834E-12 0.366E-13 0.122E-03
   -.231E-07 -.539E-07 -.355E+02   -.284E-13 -.853E-13 0.340E+02   -.323E-25 0.155E-24 0.143E+01   0.547E-13 -.935E-13 0.122E-03
   -.231E-07 -.539E-07 -.355E+02   0.000E+00 -.568E-13 0.340E+02   -.526E-25 0.166E-24 0.143E+01   -.742E-12 -.276E-12 0.122E-03
   -.230E-07 -.538E-07 -.355E+02   0.284E-13 -.114E-12 0.340E+02   -.186E-25 -.349E-24 0.143E+01   0.762E-13 -.202E-12 0.122E-03
   -.539E-07 -.231E-07 -.355E+02   0.114E-12 0.870E-13 0.340E+02   -.662E-25 -.129E-24 0.143E+01   -.794E-12 -.291E-12 0.122E-03
   -.539E-07 -.230E-07 -.355E+02   0.114E-12 0.941E-13 0.340E+02   0.149E-24 0.181E-24 0.143E+01   0.993E-13 -.283E-12 0.122E-03
   -.539E-07 -.231E-07 -.355E+02   0.114E-12 0.131E-12 0.340E+02   -.291E-25 0.207E-24 0.143E+01   -.871E-12 0.672E-13 0.122E-03
   -.539E-07 -.231E-07 -.355E+02   0.142E-12 0.181E-12 0.340E+02   0.105E-24 -.452E-25 0.143E+01   0.209E-12 0.862E-13 0.122E-03
   -.231E-07 -.539E-07 -.355E+02   0.853E-13 0.619E-13 0.340E+02   -.549E-25 -.258E-25 0.143E+01   -.286E-14 -.328E-12 0.122E-03
   -.231E-07 -.539E-07 -.355E+02   0.877E-13 0.618E-13 0.340E+02   -.291E-25 0.103E-24 0.143E+01   -.709E-12 -.229E-12 0.122E-03
   -.231E-07 -.539E-07 -.355E+02   0.852E-13 0.926E-13 0.340E+02   0.137E-24 -.517E-25 0.143E+01   -.727E-13 0.166E-13 0.122E-03
   -.231E-07 -.539E-07 -.355E+02   0.876E-13 0.149E-12 0.340E+02   0.178E-25 0.155E-24 0.143E+01   -.753E-12 0.129E-12 0.122E-03
   -.421E-07 0.597E-07 -.286E+02   0.302E-13 0.103E-12 0.269E+02   -.808E-26 -.517E-25 0.168E+01   -.788E-13 -.952E-14 0.602E-04
   -.421E-07 0.597E-07 -.286E+02   0.444E-13 0.711E-13 0.269E+02   -.929E-25 0.485E-25 0.168E+01   -.509E-12 0.227E-13 0.602E-04
   -.421E-07 0.597E-07 -.286E+02   0.693E-13 0.128E-12 0.269E+02   -.121E-26 -.258E-25 0.168E+01   -.954E-13 -.420E-13 0.602E-04
   -.421E-07 0.597E-07 -.286E+02   0.835E-13 0.128E-12 0.269E+02   0.153E-25 0.194E-25 0.168E+01   -.523E-12 -.101E-12 0.602E-04
   0.597E-07 -.421E-07 -.286E+02   0.000E+00 -.142E-13 0.269E+02   0.471E-25 0.000E+00 0.168E+01   -.541E-12 0.194E-13 0.602E-04
   0.597E-07 -.421E-07 -.286E+02   0.426E-13 -.426E-13 0.269E+02   -.565E-25 0.582E-25 0.168E+01   0.649E-13 -.767E-14 0.602E-04
   0.597E-07 -.421E-07 -.286E+02   0.107E-13 0.355E-14 0.269E+02   0.136E-25 -.194E-25 0.168E+01   -.581E-12 -.838E-13 0.602E-04
   0.597E-07 -.420E-07 -.286E+02   0.213E-13 -.533E-13 0.269E+02   -.420E-25 -.646E-26 0.168E+01   0.554E-13 -.711E-13 0.602E-04
   -.421E-07 0.597E-07 -.286E+02   0.320E-13 0.719E-13 0.269E+02   0.565E-25 0.646E-26 0.168E+01   -.484E-12 -.259E-12 0.602E-04
   -.421E-07 0.597E-07 -.286E+02   0.462E-13 0.719E-13 0.269E+02   -.808E-27 0.258E-25 0.168E+01   -.415E-13 -.183E-12 0.602E-04
   -.421E-07 0.597E-07 -.286E+02   0.426E-13 0.435E-13 0.269E+02   -.485E-25 0.646E-25 0.168E+01   -.568E-12 0.147E-12 0.602E-04
   -.421E-07 0.597E-07 -.286E+02   0.568E-13 0.187E-13 0.269E+02   0.100E-24 -.258E-25 0.168E+01   0.178E-13 0.161E-12 0.602E-04
   0.597E-07 -.421E-07 -.286E+02   -.258E-13 -.686E-13 0.269E+02   0.291E-25 0.517E-25 0.168E+01   0.623E-13 -.298E-12 0.602E-04
   0.597E-07 -.421E-07 -.286E+02   0.146E-13 -.119E-12 0.269E+02   0.376E-25 -.517E-25 0.168E+01   -.624E-12 -.149E-12 0.602E-04
   0.597E-07 -.421E-07 -.286E+02   -.178E-13 -.104E-12 0.269E+02   -.565E-26 -.711E-25 0.168E+01   -.424E-13 0.163E-12 0.602E-04
   0.597E-07 -.421E-07 -.286E+02   0.226E-13 -.104E-12 0.269E+02   -.153E-25 0.000E+00 0.168E+01   -.566E-12 0.171E-12 0.602E-04
 -----------------------------------------------------------------------------------------------
   -.169E-06 -.169E-06 -.588E+02   0.587E-13 -.157E-12 -.334E-12   0.111E-14 0.888E-15 0.588E+02   -.875E-11 -.308E-11 0.248E-02
 
 
 POSITION                                       TOTAL-FORCE (eV/Angst)
 -----------------------------------------------------------------------------------
      1.38726      1.38226      1.24884         0.002863     -0.001571     -0.011973
      6.63402      1.63888      1.24884         0.002863     -0.001571     -0.011973
      1.64388      6.62902      1.24884         0.002863     -0.001571     -0.011973
      6.89065      6.88565      1.24884         0.002863     -0.001571     -0.011973
      4.11613      4.12113      1.24884        -0.002863      0.001571     -0.011973
      9.36290      4.37776      1.24884        -0.002863      0.001571     -0.011973
      4.37276      9.36790      1.24884        -0.002863      0.001571     -0.011973
      9.61952      9.62452      1.24884        -0.002863      0.001571     -0.011973
      1.49775      3.98782      9.07469         0.001571     -0.002863     -0.011973
      6.74451      4.24445      9.07469         0.001571     -0.002863     -0.011973
      1.75438      9.23458      9.07469         0.001571     -0.002863     -0.011973
      7.00114      9.49121      9.07469         0.001571     -0.002863     -0.011973
      4.00564      1.51557      9.07469        -0.001571      0.002863     -0.011973
      9.25240      1.77220      9.07469        -0.001571      0.002863     -0.011973
      4.26227      6.76233      9.07469        -0.001571      0.002863     -0.011973
      9.50903      7.01896      9.07469        -0.001571      0.002863     -0.011973
      1.36444      1.36944      6.46607        -0.002863      0.001571     -0.011973
      6.61120      1.62606      6.46607        -0.002863      0.001571     -0.011973
      1.62106      6.61620      6.46607        -0.002863      0.001571     -0.011973
      6.86783      6.87283      6.46607        -0.002863      0.001571     -0.011973
      4.13895      4.13395      6.46607         0.002863     -0.001571     -0.011973
      9.38572      4.39058      6.46607         0.002863     -0.001571     -0.011973
      4.39558      9.38072      6.46607         0.002863     -0.001571     -0.011973
      9.64234      9.63734      6.46607         0.002863     -0.001571     -0.011973
      3.99282      1.49275      3.85745         0.001571     -0.002863     -0.011973
      9.23958      1.74938      3.85745         0.001571     -0.002863     -0.011973
      4.24945      6.73951      3.85745         0.001571     -0.002863     -0.011973
      9.49621      6.99614      3.85745         0.001571     -0.002863     -0.011973
      1.51057      4.01064      3.85745        -0.001571      0.002863     -0.011973
      6.75733      4.26727      3.85745        -0.001571      0.002863     -0.011973
      1.76720      9.25740      3.85745        -0.001571      0.002863     -0.011973
      7.01396      9.51403      3.85745        -0.001571      0.002863     -0.011973
      0.00000      0.00000      5.26513         0.000000     -0.000000      0.010224
      5.24676      0.25663      5.26513         0.000000     -0.000000      0.010224
      0.25663      5.24676      5.26513         0.000000     -0.000000      0.010224
      5.50339      5.50339      5.26513         0.000000     -0.000000      0.010224
      2.62338      0.12831      2.65651         0.000000     -0.000000      0.010224
      7.87014      0.38494      2.65651         0.000000     -0.000000      0.010224
      2.88001      5.37508      2.65651         0.000000     -0.000000      0.010224
      8.12677      5.63170      2.65651         0.000000     -0.000000      0.010224
      2.75169      2.75169      0.04789         0.000000     -0.000000      0.010224
      7.99846      3.00832      0.04789         0.000000     -0.000000      0.010224
      3.00832      7.99846      0.04789         0.000000     -0.000000      0.010224
      8.25508      8.25508      0.04789         0.000000     -0.000000      0.010224
      0.12831      2.62338      7.87374         0.000000     -0.000000      0.010224
      5.37508      2.88001      7.87374         0.000000     -0.000000      0.010224
      0.38494      7.87014      7.87374         0.000000     -0.000000      0.010224
      5.63170      8.12677      7.87374         0.000000     -0.000000      0.010224
      0.00000      0.00000      0.06305         0.000000     -0.000000      0.013722
      5.24676      0.25663      0.06305         0.000000     -0.000000      0.013722
      0.25663      5.24676      0.06305         0.000000     -0.000000      0.013722
      5.50339      5.50339      0.06305         0.000000     -0.000000      0.013722
      2.62338      0.12831      7.88889         0.000000     -0.000000      0.013722
      7.87014      0.38494      7.88889         0.000000     -0.000000      0.013722
      2.88001      5.37508      7.88889         0.000000     -0.000000      0.013722
      8.12677      5.63170      7.88889         0.000000     -0.000000      0.013722
      2.75169      2.75169      5.28028         0.000000     -0.000000      0.013722
      7.99846      3.00832      5.28028         0.000000     -0.000000      0.013722
      3.00832      7.99846      5.28028         0.000000     -0.000000      0.013722
      8.25508      8.25508      5.28028         0.000000     -0.000000      0.013722
      0.12831      2.62338      2.67166         0.000000     -0.000000      0.013722
      5.37508      2.88001      2.67166         0.000000     -0.000000      0.013722
      0.38494      7.87014      2.67166         0.000000     -0.000000      0.013722
      5.63170      8.12677      2.67166         0.000000     -0.000000      0.013722
 -----------------------------------------------------------------------------------
    total drift:                               -0.000000     -0.000000      0.026092


--------------------------------------------------------------------------------------------------------



  FREE ENERGIE OF THE ION-ELECTRON SYSTEM (eV)
  ---------------------------------------------------
  free  energy   TOTEN  =      -327.09999065 eV

  energy  without entropy=     -327.09999065  energy(sigma->0) =     -327.09999065
 


--------------------------------------------------------------------------------------------------------


    POTLOK:  cpu time    0.1302: real time    0.1310


--------------------------------------------------------------------------------------------------------


 writing wavefunctions
     LOOP+:  cpu time 2803.2250: real time 2825.2622
    4ORBIT:  cpu time    0.0000: real time    0.0000
 


 total charge     
 
# of ion       s       p       d       tot
------------------------------------------
    1        1.314   2.407   0.000   3.722
    2        1.314   2.407   0.000   3.722
    3        1.314   2.407   0.000   3.722
    4        1.314   2.407   0.000   3.722
    5        1.314   2.407   0.000   3.722
    6        1.314   2.407   0.000   3.722
    7        1.314   2.407   0.000   3.722
    8        1.314   2.407   0.000   3.722
    9        1.314   2.408   0.000   3.722
   10        1.314   2.408   0.000   3.722
   11        1.314   2.408   0.000   3.722
   12        1.314   2.408   0.000   3.722
   13        1.314   2.408   0.000   3.722
   14        1.314   2.408   0.000   3.722
   15        1.314   2.408   0.000   3.722
   16        1.314   2.408   0.000   3.722
   17        1.314   2.407   0.000   3.722
   18        1.314   2.407   0.000   3.722
   19        1.314   2.407   0.000   3.722
   20        1.314   2.407   0.000   3.722
   21        1.314   2.407   0.000   3.722
   22        1.314   2.407   0.000   3.722
   23        1.314   2.407   0.000   3.722
   24        1.314   2.407   0.000   3.722
   25        1.314   2.408   0.000   3.722
   26        1.314   2.408   0.000   3.722
   27        1.314   2.408   0.000   3.722
   28        1.314   2.408   0.000   3.722
   29        1.314   2.408   0.000   3.722
   30        1.314   2.408   0.000   3.722
   31        1.314   2.408   0.000   3.722
   32        1.314   2.408   0.000   3.722
   33        0.259   6.201   8.916  15.376
   34        0.259   6.201   8.916  15.376
   35        0.259   6.201   8.916  15.376
   36        0.259   6.201   8.916  15.376
   37        0.259   6.201   8.917  15.376
   38        0.259   6.201   8.917  15.376
   39        0.259   6.201   8.917  15.376
   40        0.259   6.201   8.917  15.376
   41        0.259   6.201   8.916  15.376
   42        0.259   6.201   8.916  15.376
   43        0.259   6.201   8.916  15.376
   44        0.259   6.201   8.916  15.376
   45        0.259   6.201   8.917  15.376
   46        0.259   6.201   8.917  15.376
   47        0.259   6.201   8.917  15.376
   48        0.259   6.201   8.917  15.376
   49        0.348   6.347   5.822  12.517
   50        0.348   6.347   5.822  12.517
   51        0.348   6.347   5.822  12.517
   52        0.348   6.347   5.822  12.517
   53        0.348   6.347   5.822  12.518
   54        0.348   6.347   5.822  12.518
   55        0.348   6.347   5.822  12.518
   56        0.348   6.347   5.822  12.518
   57        0.348   6.347   5.822  12.517
   58        0.348   6.347   5.822  12.517
   59        0.348   6.347   5.822  12.517
   60        0.348   6.347   5.822  12.517
   61        0.348   6.347   5.822  12.518
   62        0.348   6.347   5.822  12.518
   63        0.348   6.347   5.822  12.518
   64        0.348   6.347   5.822  12.518
--------------------------------------------------
tot         51.769 277.816 235.818 565.403
 


 magnetization (x)
 
# of ion       s       p       d       tot
------------------------------------------
    1       -0.001  -0.024   0.000  -0.025
    2       -0.001  -0.024   0.000  -0.025
    3       -0.001  -0.024   0.000  -0.025
    4       -0.001  -0.024   0.000  -0.025
    5       -0.001  -0.024   0.000  -0.025
    6       -0.001  -0.024   0.000  -0.025
    7       -0.001  -0.024   0.000  -0.025
    8       -0.001  -0.024   0.000  -0.025
    9        0.001   0.024   0.000   0.025
   10        0.001   0.024   0.000   0.025
   11        0.001   0.024   0.000   0.025
   12        0.001   0.024   0.000   0.025
   13        0.001   0.024   0.000   0.025
   14        0.001   0.024   0.000   0.025
   15        0.001   0.024   0.000   0.025
   16        0.001   0.024   0.000   0.025
   17       -0.001  -0.024   0.000  -0.025
   18       -0.001  -0.024   0.000  -0.025
   19       -0.001  -0.024   0.000  -0.025
   20       -0.001  -0.024   0.000  -0.025
   21       -0.001  -0.024   0.000  -0.025
   22       -0.001  -0.024   0.000  -0.025
   23       -0.001  -0.024   0.000  -0.025
   24       -0.001  -0.024   0.000  -0.025
   25        0.001   0.024   0.000   0.025
   26        0.001   0.024   0.000   0.025
   27        0.001   0.024   0.000   0.025
   28        0.001   0.024   0.000   0.025
   29        0.001   0.024   0.000   0.025
   30        0.001   0.024   0.000   0.025
   31        0.001   0.024   0.000   0.025
   32        0.001   0.024   0.000   0.025
   33        0.000  -0.000   0.003   0.002
   34        0.000  -0.000   0.003   0.002
   35        0.000  -0.000   0.003   0.002
   36        0.000  -0.000   0.003   0.002
   37       -0.000   0.000  -0.003  -0.003
   38       -0.000   0.000  -0.003  -0.003
   39       -0.000   0.000  -0.003  -0.003
   40       -0.000   0.000  -0.003  -0.003
   41        0.000  -0.000   0.003   0.002
   42        0.000  -0.000   0.003   0.002
   43        0.000  -0.000   0.003   0.002
   44        0.000  -0.000   0.003   0.002
   45       -0.000   0.000  -0.003  -0.003
   46       -0.000   0.000  -0.003  -0.003
   47       -0.000   0.000  -0.003  -0.003
   48       -0.000   0.000  -0.003  -0.003
   49        0.020   0.053   3.668   3.741
   50        0.020   0.053   3.668   3.741
   51        0.020   0.053   3.668   3.741
   52        0.020   0.053   3.668   3.741
   53       -0.020  -0.053  -3.668  -3.741
   54       -0.020  -0.053  -3.668  -3.741
   55       -0.020  -0.053  -3.668  -3.741
   56       -0.020  -0.053  -3.668  -3.741
   57        0.020   0.053   3.668   3.741
   58        0.020   0.053   3.668   3.741
   59        0.020   0.053   3.668   3.741
   60        0.020   0.053   3.668   3.741
   61       -0.020  -0.053  -3.668  -3.741
   62       -0.020  -0.053  -3.668  -3.741
   63       -0.020  -0.053  -3.668  -3.741
   64       -0.020  -0.053  -3.668  -3.741
--------------------------------------------------
tot         -0.002   0.002  -0.001  -0.001
 
 BZINTS: Fermi energy:  5.180220;688.000000 electrons
         Band energy:***********;  BLOECHL correction:  0.000000

 total amount of memory used by VASP MPI-rank0   300225. kBytes
=======================================================================

   base      :      30000. kBytes
   nonl-proj :     174956. kBytes
   fftplans  :       4588. kBytes
   grid      :      69719. kBytes
   one-center:       1990. kBytes
   wavefun   :      18972. kBytes
 
  
  
 General timing and accounting informations for this job:
 ========================================================
  
                  Total CPU time used (sec):     2847.208
                            User time (sec):     2837.247
                          System time (sec):        9.960
                         Elapsed time (sec):     2875.974
  
                   Maximum memory used (kb):      663088.
                   Average memory used (kb):           0.
  
                          Minor page faults:       575034
                          Major page faults:         5810
                 Voluntary context switches:         7164
