       N       E                     dE             d eps       ncg     rms          ort
SDA:   1    -0.818532525004E+02   -0.81853E+02    0.00000E+00  4784   0.485E-04 0.000E+00
CGA:   2    -0.818532619835E+02   -0.94831E-05   -0.66389E-05  4784   0.278E-04 0.288E-04
CGA:   3    -0.818532721201E+02   -0.10137E-04   -0.12699E-05  4784   0.192E-04 0.199E-04
CGA:   4    -0.818532746636E+02   -0.25435E-05   -0.15266E-05  4784   0.148E-04 0.142E-04
CGA:   5    -0.818532769693E+02   -0.23057E-05   -0.57986E-06  4784   0.116E-04 0.103E-04
CGA:   6    -0.818532775948E+02   -0.62547E-06   -0.59236E-06  4784   0.100E-04 0.829E-05
CGA:   7    -0.818532790656E+02   -0.14709E-05   -0.34050E-06  4784   0.812E-05 0.664E-05
CGA:   8    -0.818532793278E+02   -0.26214E-06   -0.28990E-06  4784   0.735E-05 0.570E-05
CGA:   9    -0.818532799697E+02   -0.64196E-06   -0.21858E-06  4784   0.632E-05 0.485E-05
CGA:  10    -0.818532803033E+02   -0.33352E-06   -0.18438E-06  4784   0.575E-05 0.425E-05
CGA:  11    -0.818532807429E+02   -0.43967E-06   -0.14418E-06  4784   0.511E-05 0.373E-05
CGA:  12    -0.818532810449E+02   -0.30200E-06   -0.12157E-06  4784   0.471E-05 0.335E-05
CGA:  13    -0.818532813214E+02   -0.27652E-06   -0.98493E-07  4784   0.429E-05 0.302E-05
CGA:  14    -0.818532815649E+02   -0.24341E-06   -0.84454E-07  4784   0.401E-05 0.276E-05
CGA:  15    -0.818532817473E+02   -0.18243E-06   -0.69286E-07  4784   0.365E-05 0.257E-05
CGA:  16    -0.818532819237E+02   -0.17638E-06   -0.63251E-07  4784   0.350E-05 0.238E-05
CGA:  17    -0.818532821002E+02   -0.17654E-06   -0.51239E-07  4784   0.325E-05 0.220E-05
CGA:  18    -0.818532822462E+02   -0.14597E-06   -0.43413E-07  4784   0.311E-05 0.208E-05
CGA:  19    -0.818532822047E+02    0.41502E-07   -0.37649E-07  4784   0.294E-05 0.198E-05
CGA:  20    -0.818532823547E+02   -0.15006E-06   -0.36791E-07  4784   0.286E-05 0.185E-05
CGA:  21    -0.818532824006E+02   -0.45842E-07   -0.30009E-07  4784   0.265E-05 0.180E-05
CGA:  22    -0.818532824589E+02   -0.58344E-07   -0.30364E-07  4784   0.261E-05 0.172E-05
CGA:  23    -0.818532826208E+02   -0.16184E-06   -0.24561E-07  4784   0.244E-05 0.169E-05
CGA:  24    -0.818532826499E+02   -0.29124E-07   -0.18925E-07  4784   0.234E-05 0.165E-05
CGA:  25    -0.818532827992E+02   -0.14927E-06   -0.18236E-07  4784   0.234E-05 0.156E-05
CGA:  26    -0.818532827652E+02    0.33951E-07   -0.15176E-07  4784   0.218E-05 0.158E-05
CGA:  27    -0.818532827669E+02   -0.16807E-08   -0.14744E-07  4784   0.231E-05 0.146E-05
CGA:  28    -0.818532827054E+02    0.61467E-07   -0.13654E-07  4784   0.228E-05 0.129E-05
CGA:  29    -0.818532827258E+02   -0.20354E-07   -0.12932E-07  4784   0.221E-05 0.125E-05
CGA:  30    -0.818532827636E+02   -0.37824E-07   -0.12198E-07  4784   0.220E-05 0.121E-05
CGA:  31    -0.818532827747E+02   -0.11125E-07   -0.10962E-07  4784   0.215E-05 0.117E-05
CGA:  32    -0.818532828135E+02   -0.38721E-07   -0.10348E-07  4784   0.214E-05 0.113E-05
CGA:  33    -0.818532828162E+02   -0.27176E-08   -0.92069E-08  4784   0.200E-05 0.117E-05
   1 F= -.81853283E+02 E0= -.81853283E+02  d E =0.000000E+00  mag=     0.0000     0.0000     0.0000
