 vasp.5.4.4.18Apr17-6-g9f103f2a35 (build Oct 04 2018 15:53:47) complex          
  
 executed on             LinuxIFC date 2022.10.07  15:46:26
 running on  256 total cores
 distrk:  each k-point on  256 cores,    1 groups
 distr:  one band on NCORES_PER_BAND=  32 cores,    8 groups


--------------------------------------------------------------------------------------------------------


 INCAR:
 POTCAR:    PAW_PBE S 06Sep2000                   
 POTCAR:     PAW_PBE Cu_pv 06Sep2000              
 POTCAR:     PAW_PBE Fe_pv 02Aug2007              
 POTCAR:    PAW_PBE S 06Sep2000                   
   SHA256 =  0fc7481fb0695f01bdc6462160264c5c84044ae9ec85a907d398b887a2bc3132 S/
   COPYR  = (c) Copyright 06Sep2000 Georg Kresse                                
   COPYR  = This file is part of the software VASP. Any use, copying, and all ot
   COPYR  = If you do not have a valid VASP license, you may not use, copy or di
   VRHFIN =S : s2p4                                                             
   LEXCH  = PE                                                                  
   EATOM  =   276.8230 eV,   20.3459 Ry                                         
                                                                                
   TITEL  = PAW_PBE S 06Sep2000                                                 
   LULTRA =        F    use ultrasoft PP ?                                      
   IUNSCR =        1    unscreen: 0-lin 1-nonlin 2-no                           
   RPACOR =    1.500    partial core radius                                     
   POMASS =   32.066; ZVAL   =    6.000    mass and valenz                      
   RCORE  =    1.900    outmost cutoff radius                                   
   RWIGS  =    2.200; RWIGS  =    1.164    wigner-seitz radius (au A)           
   ENMAX  =  258.689; ENMIN  =  194.016 eV                                      
   ICORE  =        2    local potential                                         
   LCOR   =        T    correct aug charges                                     
   LPAW   =        T    paw PP                                                  
   EAUG   =  335.092                                                            
   DEXC   =    0.000                                                            
   RMAX   =    1.942    core radius for proj-oper                               
   RAUG   =    1.300    factor for augmentation sphere                          
   RDEP   =    1.954    radius for radial grids                                 
   RDEPT  =    1.744    core radius for aug-charge                              
                                                                                
   Atomic configuration                                                         
    6 entries                                                                   
     n  l   j            E        occ.                                          
     1  0  0.50     -2405.8406   2.0000                                         
     2  0  0.50      -211.7007   2.0000                                         
     2  1  1.50      -156.4958   6.0000                                         
     3  0  0.50       -17.2562   2.0000                                         
     3  1  0.50        -7.0085   4.0000                                         
     3  2  1.50        -6.8029   0.0000                                         
   Description                                                                  
     l       E           TYP  RCUT    TYP  RCUT                                 
     0    -17.2561641     23  1.900                                             
     0    -15.8743224     23  1.900                                             
     1     -7.0085400     23  1.900                                             
     1     -2.7779785     23  1.900                                             
     2     -6.8029130     23  1.900                                             
  local pseudopotential read in
  partial core-charges read in
  partial kinetic energy density read in
  atomic valenz-charges read in
  non local Contribution for L=           0  read in
    real space projection operators read in
  non local Contribution for L=           0  read in
    real space projection operators read in
  non local Contribution for L=           1  read in
    real space projection operators read in
  non local Contribution for L=           1  read in
    real space projection operators read in
    PAW grid and wavefunctions read in
 
   number of l-projection  operators is LMAX  =           4
   number of lm-projection operators is LMMAX =           8
 
 POTCAR:     PAW_PBE Cu_pv 06Sep2000              
   SHA256 =  cb7b504e2ea725fe1f25c85a9ac77d4012ce94cd394135b722c4e25ec297f1cb Cu
   COPYR  = (c) Copyright 06Sep2000 Georg Kresse                                
   COPYR  = This file is part of the software VASP. Any use, copying, and all ot
   COPYR  = If you do not have a valid VASP license, you may not use, copy or di
   VRHFIN =Cu: d10 p1                                                           
   LEXCH  = PE                                                                  
   EATOM  =  4120.1201 eV,  302.8203 Ry                                         
                                                                                
   TITEL  = PAW_PBE Cu_pv 06Sep2000                                             
   LULTRA =        F    use ultrasoft PP ?                                      
   IUNSCR =        1    unscreen: 0-lin 1-nonlin 2-no                           
   RPACOR =    1.500    partial core radius                                     
   POMASS =   63.546; ZVAL   =   17.000    mass and valenz                      
   RCORE  =    2.000    outmost cutoff radius                                   
   RWIGS  =    2.000; RWIGS  =    1.058    wigner-seitz radius (au A)           
   ENMAX  =  368.648; ENMIN  =  276.486 eV                                      
   RCLOC  =    1.304    cutoff for local pot                                    
   LCOR   =        T    correct aug charges                                     
   LPAW   =        T    paw PP                                                  
   EAUG   =  758.233                                                            
   DEXC   =    0.000                                                            
   RMAX   =    2.046    core radius for proj-oper                               
   RAUG   =    1.300    factor for augmentation sphere                          
   RDEP   =    2.025    radius for radial grids                                 
   RDEPT  =    1.558    core radius for aug-charge                              
                                                                                
   Atomic configuration                                                         
    8 entries                                                                   
     n  l   j            E        occ.                                          
     1  0  0.50     -8850.2467   2.0000                                         
     2  0  0.50     -1062.3498   2.0000                                         
     2  1  1.50      -916.8226   6.0000                                         
     3  0  0.50      -114.6929   2.0000                                         
     3  1  1.50       -72.1325   6.0000                                         
     3  2  2.50        -5.0394  10.0000                                         
     4  0  0.50        -4.6097   1.0000                                         
     4  3  2.50        -1.3606   0.0000                                         
   Description                                                                  
     l       E           TYP  RCUT    TYP  RCUT                                 
     1    -72.1324777     23  1.700                                             
     1     -1.3605826     23  1.700                                             
     2     -5.0393776     23  2.000                                             
     2     -6.3999602     23  2.000                                             
     0     -4.6097062     23  1.800                                             
     0     14.1620818     23  1.800                                             
  local pseudopotential read in
  partial core-charges read in
  partial kinetic energy density read in
  atomic valenz-charges read in
  non local Contribution for L=           1  read in
    real space projection operators read in
  non local Contribution for L=           1  read in
    real space projection operators read in
  non local Contribution for L=           2  read in
    real space projection operators read in
  non local Contribution for L=           2  read in
    real space projection operators read in
  non local Contribution for L=           0  read in
    real space projection operators read in
  non local Contribution for L=           0  read in
    real space projection operators read in
    PAW grid and wavefunctions read in
 
   number of l-projection  operators is LMAX  =           6
   number of lm-projection operators is LMMAX =          18
 
 POTCAR:     PAW_PBE Fe_pv 02Aug2007              
   SHA256 =  5d22e414b1f82158bf2c7ecb8b97b28fd0923e48cadc1c3bf74d524558f5dd32 Fe
   COPYR  = (c) Copyright 02Aug2007 Georg Kresse                                
   COPYR  = This file is part of the software VASP. Any use, copying, and all ot
   COPYR  = If you do not have a valid VASP license, you may not use, copy or di
   VRHFIN =Fe:  3pd7s1                                                          
   LEXCH  = PE                                                                  
   EATOM  =  2457.4239 eV,  180.6156 Ry                                         
                                                                                
   TITEL  = PAW_PBE Fe_pv 02Aug2007                                             
   LULTRA =        F    use ultrasoft PP ?                                      
   IUNSCR =        1    unscreen: 0-lin 1-nonlin 2-no                           
   RPACOR =    1.750    partial core radius                                     
   POMASS =   55.847; ZVAL   =   14.000    mass and valenz                      
   RCORE  =    2.200    outmost cutoff radius                                   
   RWIGS  =    2.200; RWIGS  =    1.164    wigner-seitz radius (au A)           
   ENMAX  =  293.238; ENMIN  =  219.928 eV                                      
   ICORE  =        3    local potential                                         
   LCOR   =        T    correct aug charges                                     
   LPAW   =        T    paw PP                                                  
   EAUG   =  578.342                                                            
   DEXC   =    0.000                                                            
   RMAX   =    2.249    core radius for proj-oper                               
   RAUG   =    1.300    factor for augmentation sphere                          
   RDEP   =    2.296    radius for radial grids                                 
   RDEPT  =    1.766    core radius for aug-charge                              
                                                                                
   Atomic configuration                                                         
    8 entries                                                                   
     n  l   j            E        occ.                                          
     1  0  0.50     -6993.8440   2.0000                                         
     2  0  0.50      -814.6047   2.0000                                         
     2  1  1.50      -693.3689   6.0000                                         
     3  0  0.50       -89.4732   2.0000                                         
     3  1  1.50       -55.6373   6.0000                                         
     3  2  2.50        -3.8151   7.0000                                         
     4  0  0.50        -4.2551   1.0000                                         
     4  3  2.50        -1.3606   0.0000                                         
   Description                                                                  
     l       E           TYP  RCUT    TYP  RCUT                                 
     1    -55.6372668     23  2.000                                             
     1     -5.4423304     23  2.000                                             
     2     -3.8151096     23  2.200                                             
     2     -5.1756922     23  2.200                                             
     0     -4.2550951     23  2.200                                             
     0     27.2116520     23  2.200                                             
     3     -1.3605826     23  2.200                                             
  local pseudopotential read in
  partial core-charges read in
  partial kinetic energy density read in
  atomic valenz-charges read in
  non local Contribution for L=           1  read in
    real space projection operators read in
  non local Contribution for L=           1  read in
    real space projection operators read in
  non local Contribution for L=           2  read in
    real space projection operators read in
  non local Contribution for L=           2  read in
    real space projection operators read in
  non local Contribution for L=           0  read in
    real space projection operators read in
  non local Contribution for L=           0  read in
    real space projection operators read in
    PAW grid and wavefunctions read in
 
   number of l-projection  operators is LMAX  =           6
   number of lm-projection operators is LMMAX =          18
 

 ----------------------------------------------------------------------------- 
|                                                                             |
|  ADVICE TO THIS USER RUNNING 'VASP/VAMP'   (HEAR YOUR MASTER'S VOICE ...):  |
|                                                                             |
|      You enforced a specific xc-type in the INCAR file,                     |
|      a different type was found on the POTCAR file                          |
|          I HOPE YOU KNOW, WHAT YOU ARE  DOING                               |
|                                                                             |
 ----------------------------------------------------------------------------- 

  PAW_PBE S 06Sep2000                   :
 energy of atom  1       EATOM= -276.8230
 kinetic energy error for atom=    0.0007 (will be added to EATOM!!)
   PAW_PBE Cu_pv 06Sep2000              :
 energy of atom  2       EATOM=-4120.1201
 kinetic energy error for atom=    0.0094 (will be added to EATOM!!)
   PAW_PBE Fe_pv 02Aug2007              :
 energy of atom  3       EATOM=-2457.4239
 kinetic energy error for atom=    0.0025 (will be added to EATOM!!)
 
 
 POSCAR: sm_isp_SD0310437-standardized_unitcell  
  positions in direct lattice
  velocities in cartesian coordinates
 exchange correlation table for  LEXCH =       14
   RHO(1)=    0.500       N(1)  =     2000
   RHO(2)=  100.500       N(2)  =     4000
 


--------------------------------------------------------------------------------------------------------


 ion  position               nearest neighbor table
   1  0.253  0.250  0.125-  10 2.25  11 2.25  13 2.26  16 2.26
   2  0.747  0.750  0.125-  10 2.25  11 2.25  13 2.26  16 2.26
   3  0.250  0.747  0.875-  11 2.25  12 2.25  13 2.26  14 2.26
   4  0.750  0.253  0.875-  11 2.25  12 2.25  13 2.26  14 2.26
   5  0.247  0.250  0.625-   9 2.25  12 2.25  14 2.26  15 2.26
   6  0.753  0.750  0.625-   9 2.25  12 2.25  14 2.26  15 2.26
   7  0.750  0.247  0.375-   9 2.25  10 2.25  15 2.26  16 2.26
   8  0.250  0.753  0.375-   9 2.25  10 2.25  15 2.26  16 2.26
   9  0.000  0.000  0.500-   5 2.25   7 2.25   6 2.25   8 2.25
  10  0.500  0.000  0.250-   7 2.25   1 2.25   2 2.25   8 2.25
  11  0.500  0.500  0.000-   1 2.25   4 2.25   3 2.25   2 2.25
  12  0.000  0.500  0.750-   5 2.25   4 2.25   3 2.25   6 2.25
  13  0.000  0.000  0.000-   2 2.26   3 2.26   1 2.26   4 2.26
  14  0.500  0.000  0.750-   3 2.26   6 2.26   4 2.26   5 2.26
  15  0.500  0.500  0.500-   6 2.26   8 2.26   7 2.26   5 2.26
  16  0.000  0.500  0.250-   2 2.26   8 2.26   1 2.26   7 2.26
 
  LATTYP: Found a simple tetragonal cell.
 ALAT       =     5.0484342293
 C/A-ratio  =     2.1855535229
  
  Lattice vectors:
  
 A1 = (   5.0484342293,   0.0000000000,   0.0000000000)
 A2 = (   0.0000000000,   5.0484342293,   0.0000000000)
 A3 = (   0.0000000000,   0.0000000000,  11.0336232148)


Analysis of symmetry for initial positions (statically):
=====================================================================
 Subroutine PRICEL returns following result:
 
  LATTYP: Found a body centered tetragonal cell.
 ALAT       =     5.0484342293
 C/A-ratio  =     2.1855535229
  
  Lattice vectors:
  
 A1 = (   2.5242171146,  -2.5242171146,   5.5168116074)
 A2 = (  -2.5242171146,   2.5242171146,   5.5168116074)
 A3 = (  -2.5242171146,  -2.5242171146,  -5.5168116074)
 
   2 primitive cells build up your supercell.
 

 Routine SETGRP: Setting up the symmetry group for a 
 simple tetragonal supercell.


 Subroutine GETGRP returns: Found  8 space group operations
 (whereof  4 operations were pure point group operations)
 out of a pool of 16 trial point group operations.


The static configuration has the point symmetry S_4 .
 The point group associated with its full space group is D_2d.


Analysis of symmetry for dynamics (positions and initial velocities):
=====================================================================
 Subroutine PRICEL returns following result:
 
  LATTYP: Found a body centered tetragonal cell.
 ALAT       =     5.0484342293
 C/A-ratio  =     2.1855535229
  
  Lattice vectors:
  
 A1 = (   2.5242171146,  -2.5242171146,   5.5168116074)
 A2 = (  -2.5242171146,   2.5242171146,   5.5168116074)
 A3 = (  -2.5242171146,  -2.5242171146,  -5.5168116074)
 
   2 primitive cells build up your supercell.
 

 Routine SETGRP: Setting up the symmetry group for a 
 simple tetragonal supercell.


 Subroutine GETGRP returns: Found  8 space group operations
 (whereof  4 operations were pure point group operations)
 out of a pool of 16 trial point group operations.


The dynamic configuration has the point symmetry S_4 .
 The point group associated with its full space group is D_2d.


Analysis of structural, dynamic, and magnetic symmetry:
=====================================================================
 Subroutine PRICEL returns following result:
 
  LATTYP: Found a body centered tetragonal cell.
 ALAT       =     5.0484342293
 C/A-ratio  =     2.1855535229
  
  Lattice vectors:
  
 A1 = (   2.5242171146,  -2.5242171146,   5.5168116074)
 A2 = (  -2.5242171146,   2.5242171146,   5.5168116074)
 A3 = (  -2.5242171146,  -2.5242171146,  -5.5168116074)
 
   2 primitive cells build up your supercell.
 

 Routine SETGRP: Setting up the symmetry group for a 
 simple tetragonal supercell.


 Subroutine GETGRP returns: Found  8 space group operations
 (whereof  4 operations were pure point group operations)
 out of a pool of 16 trial point group operations.


The (compounded) configuration has the point symmetry S_4 .
 The point group associated with its full space group is D_2d.


 Subroutine INISYM returns: Found  8 space group operations
 (whereof  4 operations are pure point group operations),
 and found     2 'primitive' translations

 
 
 KPOINTS: Automatic mesh                          

Automatic generation of k-mesh.
Space group operators:
 irot       det(A)        alpha          n_x          n_y          n_z        tau_x        tau_y        tau_z
    1     1.000000     0.000000     1.000000     0.000000     0.000000     0.000000     0.000000     0.000000
    2    -1.000000    90.000000     0.000000     0.000000    -1.000000     0.000000     0.000000     0.000000
    3     1.000000   180.000000     0.000000     0.000000     1.000000     0.000000     0.000000     0.000000
    4    -1.000000    90.000000     0.000000     0.000000     1.000000     0.000000     0.000000     0.000000
    5     1.000000   180.000000     0.000000     1.000000     0.000000     0.000000    -0.500000     0.250000
    6    -1.000000   180.000000     0.707107     0.707107     0.000000     0.000000    -0.500000     0.250000
    7     1.000000   180.000000     1.000000     0.000000     0.000000     0.000000    -0.500000     0.250000
    8    -1.000000   180.000000     0.707107    -0.707107     0.000000     0.000000    -0.500000     0.250000
 
 Subroutine IBZKPT returns following result:
 ===========================================
 
 Found     23 irreducible k-points:
 
 Following reciprocal coordinates:
            Coordinates               Weight
  0.000000  0.000000  0.000000      1.000000
  0.166667  0.000000  0.000000      4.000000
  0.333333  0.000000  0.000000      4.000000
  0.500000  0.000000  0.000000      2.000000
  0.166667  0.166667  0.000000      4.000000
  0.333333  0.166667  0.000000      8.000000
  0.500000  0.166667  0.000000      4.000000
  0.333333  0.333333  0.000000      4.000000
  0.500000  0.333333  0.000000      4.000000
  0.500000  0.500000  0.000000      1.000000
  0.000000  0.000000  0.333333      2.000000
  0.166667  0.000000  0.333333      8.000000
  0.333333  0.000000  0.333333      8.000000
  0.500000  0.000000  0.333333      4.000000
  0.166667  0.166667  0.333333      4.000000
  0.333333  0.166667  0.333333      8.000000
  0.500000  0.166667  0.333333      8.000000
 -0.333333  0.166667  0.333333      8.000000
 -0.166667  0.166667  0.333333      4.000000
  0.333333  0.333333  0.333333      4.000000
  0.500000  0.333333  0.333333      8.000000
 -0.333333  0.333333  0.333333      4.000000
  0.500000  0.500000  0.333333      2.000000
 
 Following cartesian coordinates:
            Coordinates               Weight
  0.000000  0.000000  0.000000      1.000000
  0.033014  0.000000  0.000000      4.000000
  0.066027  0.000000  0.000000      4.000000
  0.099041  0.000000  0.000000      2.000000
  0.033014  0.033014  0.000000      4.000000
  0.066027  0.033014  0.000000      8.000000
  0.099041  0.033014  0.000000      4.000000
  0.066027  0.066027  0.000000      4.000000
  0.099041  0.066027  0.000000      4.000000
  0.099041  0.099041  0.000000      1.000000
  0.000000  0.000000  0.030211      2.000000
  0.033014  0.000000  0.030211      8.000000
  0.066027  0.000000  0.030211      8.000000
  0.099041  0.000000  0.030211      4.000000
  0.033014  0.033014  0.030211      4.000000
  0.066027  0.033014  0.030211      8.000000
  0.099041  0.033014  0.030211      8.000000
 -0.066027  0.033014  0.030211      8.000000
 -0.033014  0.033014  0.030211      4.000000
  0.066027  0.066027  0.030211      4.000000
  0.099041  0.066027  0.030211      8.000000
 -0.066027  0.066027  0.030211      4.000000
  0.099041  0.099041  0.030211      2.000000
 
 TETIRR: Found    274 inequivalent tetrahedra from      648


--------------------------------------------------------------------------------------------------------




 Dimension of arrays:
   k-points           NKPTS =     23   k-points in BZ     NKDIM =     23   number of bands    NBANDS=    208
   number of dos      NEDOS =    301   number of ions     NIONS =     16
   non local maximal  LDIM  =      6   non local SUM 2l+1 LMDIM =     18
   total plane-waves  NPLWV = 221184
   max r-space proj   IRMAX =      1   max aug-charges    IRDMAX=  24977
   dimension x,y,z NGX =    48 NGY =   48 NGZ =   96
   dimension x,y,z NGXF=    96 NGYF=   96 NGZF=  192
   support grid    NGXF=    96 NGYF=   96 NGZF=  192
   ions per type =               8   4   4
   NGX,Y,Z   is equivalent  to a cutoff of  15.81, 15.81, 14.46 a.u.
   NGXF,Y,Z  is equivalent  to a cutoff of  31.61, 31.61, 28.93 a.u.

 SYSTEM =  CuFeS2                                  
 POSCAR =  sm_isp_SD0310437-standardized_unitcell  

 Startparameter for this run:
   NWRITE =      2    write-flag & timer
   PREC   = accura    normal or accurate (medium, high low for compatibility)
   ISTART =      1    job   : 0-new  1-cont  2-samecut
   ICHARG =      1    charge: 1-file 2-atom 10-const
   ISPIN  =      1    spin polarized calculation?
   LNONCOLLINEAR =      T non collinear calculations
   LSORBIT =      F    spin-orbit coupling
   INIWAV =      1    electr: 0-lowe 1-rand  2-diag
   LASPH  =      T    aspherical Exc in radial PAW
   METAGGA=      F    non-selfconsistent MetaGGA calc.

 Electronic Relaxation 1
   ENCUT  =  700.0 eV  51.45 Ry    7.17 a.u.  10.89 10.89 23.80*2*pi/ulx,y,z
   ENINI  =  700.0     initial cutoff
   ENAUG  =  758.2 eV  augmentation charge cutoff
   NELM   =    200;   NELMIN=  2; NELMDL=  0     # of ELM steps 
   EDIFF  = 0.1E-07   stopping-criterion for ELM
   LREAL  =      F    real-space projection
   NLSPLINE    = F    spline interpolate recip. space projectors
   LCOMPAT=      F    compatible to vasp.4.4
   GGA_COMPAT  = T    GGA compatible to vasp.4.4-vasp.4.6
   LMAXPAW     = -100 max onsite density
   LMAXMIX     =    4 max onsite mixed and CHGCAR
   VOSKOWN=      0    Vosko Wilk Nusair interpolation
   ROPT   =    0.00000   0.00000   0.00000
 Ionic relaxation
   EDIFFG = -.1E-04   stopping-criterion for IOM
   NSW    =      0    number of steps for IOM
   NBLOCK =      1;   KBLOCK =      1    inner block; outer block 
   IBRION =     -1    ionic relax: 0-MD 1-quasi-New 2-CG
   NFREE  =      0    steps in history (QN), initial steepest desc. (CG)
   ISIF   =      2    stress and relaxation
   IWAVPR =     10    prediction:  0-non 1-charg 2-wave 3-comb
   ISYM   =      1    0-nonsym 1-usesym 2-fastsym
   LCORR  =      T    Harris-Foulkes like correction to forces

   POTIM  = 0.1000    time-step for ionic-motion
   TEIN   =    0.0    initial temperature
   TEBEG  =    0.0;   TEEND  =   0.0 temperature during run
   SMASS  =  -3.00    Nose mass-parameter (am)
   estimated Nose-frequenzy (Omega)   =  0.10E-29 period in steps =****** mass=  -0.582E-27a.u.
   SCALEE = 1.0000    scale energy and forces
   NPACO  =    256;   APACO  = 16.0  distance and # of slots for P.C.
   PSTRESS=    0.0 pullay stress

  Mass of Ions in am
   POMASS =  32.07 63.55 55.85
  Ionic Valenz
   ZVAL   =   6.00 17.00 14.00
  Atomic Wigner-Seitz radii
   RWIGS  =  -1.00 -1.00 -1.00
  virtual crystal weights 
   VCA    =   1.00  1.00  1.00
   NELECT =     172.0000    total number of electrons
   NUPDOWN=      -1.0000    fix difference up-down

 DOS related values:
   EMIN   =  10.00;   EMAX   =-10.00  energy-range for DOS
   EFERMI =   0.00
   ISMEAR =    -5;   SIGMA  =   0.03  broadening in eV -4-tet -1-fermi 0-gaus

 Electronic relaxation 2 (details)
   IALGO  =     58    algorithm
   LDIAG  =      T    sub-space diagonalisation (order eigenvalues)
   LSUBROT=      F    optimize rotation matrix (better conditioning)
   TURBO    =      0    0=normal 1=particle mesh
   IRESTART =      0    0=no restart 2=restart with 2 vectors
   NREBOOT  =      0    no. of reboots
   NMIN     =      0    reboot dimension
   EREF     =   0.00    reference energy to select bands
   IMIX   =      4    mixing-type and parameters
     AMIX     =   0.40;   BMIX     =  1.00
     AMIX_MAG =   1.60;   BMIX_MAG =  1.00
     AMIN     =   0.10
     WC   =   100.;   INIMIX=   1;  MIXPRE=   1;  MAXMIX= -45

 Intra band minimization:
   WEIMIN = 0.0000     energy-eigenvalue tresh-hold
   EBREAK =  0.12E-10  absolut break condition
   DEPER  =   0.30     relativ break condition  

   TIME   =   0.40     timestep for ELM

  volume/ion in A,a.u.               =      17.58       118.61
  Fermi-wavevector in a.u.,A,eV,Ry     =   1.389655  2.626068 26.274785  1.931142
  Thomas-Fermi vector in A             =   2.513665
 
 Write flags
   LWAVE        =      T    write WAVECAR
   LDOWNSAMPLE  =      F    k-point downsampling of WAVECAR
   LCHARG       =      T    write CHGCAR
   LVTOT        =      F    write LOCPOT, total local potential
   LVHAR        =      F    write LOCPOT, Hartree potential only
   LELF         =      F    write electronic localiz. function (ELF)
   LORBIT       =     11    0 simple, 1 ext, 2 COOP (PROOUT), +10 PAW based schemes


 Dipole corrections
   LMONO  =      F    monopole corrections only (constant potential shift)
   LDIPOL =      F    correct potential (dipole corrections)
   IDIPOL =      0    1-x, 2-y, 3-z, 4-all directions 
   EPSILON=  1.0000000 bulk dielectric constant

 LDA+U is selected, type is set to LDAUTYPE =  2
   angular momentum for each species LDAUL =     2    2    2
   U (eV)           for each species LDAUU =   0.0  0.1  4.7
   J (eV)           for each species LDAUJ =   0.0  0.0  0.0
 Exchange correlation treatment:
   GGA     =    PS    GGA type
   LEXCH   =    14    internal setting for exchange type
   VOSKOWN=      0    Vosko Wilk Nusair interpolation
   LHFCALC =     F    Hartree Fock is set to
   LHFONE  =     F    Hartree Fock one center treatment
   AEXX    =    0.0000 exact exchange contribution

 Linear response parameters
   LEPSILON=     F    determine dielectric tensor
   LRPA    =     F    only Hartree local field effects (RPA)
   LNABLA  =     F    use nabla operator in PAW spheres
   LVEL    =     F    velocity operator in full k-point grid
   LINTERFAST=   F  fast interpolation
   KINTER  =     0    interpolate to denser k-point grid
   CSHIFT  =0.1000    complex shift for real part using Kramers Kronig
   OMEGAMAX=  -1.0    maximum frequency
   DEG_THRESHOLD= 0.2000000E-02 threshold for treating states as degnerate
   RTIME   =   -0.100 relaxation time in fs
  (WPLASMAI=    0.000 imaginary part of plasma frequency in eV, 0.658/RTIME)
   DFIELD  = 0.0000000 0.0000000 0.0000000 field for delta impulse in time
 
 Orbital magnetization related:
   ORBITALMAG=     F  switch on orbital magnetization
   LCHIMAG   =     F  perturbation theory with respect to B field
   DQ        =  0.001000  dq finite difference perturbation B field
   LLRAUG    =     F  two centre corrections for induced B field



--------------------------------------------------------------------------------------------------------


 Static calculation
 charge density and potential will be updated during run
 non collinear spin polarized calculation
 Conjugate gradient for all bands (Freysoldt, et al. PRB 79, 241103 (2009))
 preconditioned conjugated gradient                                        
 perform sub-space diagonalisation
    before iterative eigenvector-optimisation
 modified Broyden-mixing scheme, WC =      100.0
 initial mixing is a Kerker type mixing with AMIX =  0.4000 and BMIX =      1.0000
 Hartree-type preconditioning will be used
 using additional bands          122
 reciprocal scheme for non local part
 use partial core corrections
 no Harris-corrections to forces 
 use gradient corrections 
 use of overlap-Matrix (Vanderbilt PP)
 Fermi weights with tetrahedron method with Bloechl corrections


--------------------------------------------------------------------------------------------------------


  energy-cutoff  :      700.00
  volume of cell :      281.21
      direct lattice vectors                 reciprocal lattice vectors
     5.048434229  0.000000000  0.000000000     0.198081218  0.000000000  0.000000000
     0.000000000  5.048434229  0.000000000     0.000000000  0.198081218  0.000000000
     0.000000000  0.000000000 11.033623215     0.000000000  0.000000000  0.090632060

  length of vectors
     5.048434229  5.048434229 11.033623215     0.198081218  0.198081218  0.090632060


 
 old parameters found on file WAVECAR:
  energy-cutoff  :      700.00
  volume of cell :      281.16
      direct lattice vectors                 reciprocal lattice vectors
     5.048434229  0.000000000  0.000000000     0.198081218  0.000000000  0.000000000
     0.000000000  5.048434229  0.000000000     0.000000000  0.198081218  0.000000000
     0.000000000  0.000000000 11.031553152     0.000000000  0.000000000  0.090649067

  length of vectors

 
 k-points in units of 2pi/SCALE and weight: Automatic mesh                          
   0.00000000  0.00000000  0.00000000       0.009
   0.03301354  0.00000000  0.00000000       0.037
   0.06602707  0.00000000  0.00000000       0.037
   0.09904061  0.00000000  0.00000000       0.019
   0.03301354  0.03301354  0.00000000       0.037
   0.06602707  0.03301354  0.00000000       0.074
   0.09904061  0.03301354  0.00000000       0.037
   0.06602707  0.06602707  0.00000000       0.037
   0.09904061  0.06602707  0.00000000       0.037
   0.09904061  0.09904061  0.00000000       0.009
   0.00000000  0.00000000  0.03021069       0.019
   0.03301354  0.00000000  0.03021069       0.074
   0.06602707  0.00000000  0.03021069       0.074
   0.09904061  0.00000000  0.03021069       0.037
   0.03301354  0.03301354  0.03021069       0.037
   0.06602707  0.03301354  0.03021069       0.074
   0.09904061  0.03301354  0.03021069       0.074
  -0.06602707  0.03301354  0.03021069       0.074
  -0.03301354  0.03301354  0.03021069       0.037
   0.06602707  0.06602707  0.03021069       0.037
   0.09904061  0.06602707  0.03021069       0.074
  -0.06602707  0.06602707  0.03021069       0.037
   0.09904061  0.09904061  0.03021069       0.019
 
 k-points in reciprocal lattice and weights: Automatic mesh                          
   0.00000000  0.00000000  0.00000000       0.009
   0.16666667  0.00000000  0.00000000       0.037
   0.33333333  0.00000000  0.00000000       0.037
   0.50000000  0.00000000  0.00000000       0.019
   0.16666667  0.16666667  0.00000000       0.037
   0.33333333  0.16666667  0.00000000       0.074
   0.50000000  0.16666667  0.00000000       0.037
   0.33333333  0.33333333  0.00000000       0.037
   0.50000000  0.33333333  0.00000000       0.037
   0.50000000  0.50000000  0.00000000       0.009
   0.00000000  0.00000000  0.33333333       0.019
   0.16666667  0.00000000  0.33333333       0.074
   0.33333333  0.00000000  0.33333333       0.074
   0.50000000  0.00000000  0.33333333       0.037
   0.16666667  0.16666667  0.33333333       0.037
   0.33333333  0.16666667  0.33333333       0.074
   0.50000000  0.16666667  0.33333333       0.074
  -0.33333333  0.16666667  0.33333333       0.074
  -0.16666667  0.16666667  0.33333333       0.037
   0.33333333  0.33333333  0.33333333       0.037
   0.50000000  0.33333333  0.33333333       0.074
  -0.33333333  0.33333333  0.33333333       0.037
   0.50000000  0.50000000  0.33333333       0.019
 
 position of ions in fractional coordinates (direct lattice) 
   0.25326617  0.25000000  0.12500000
   0.74673386  0.75000000  0.12500000
   0.25000000  0.74673386  0.87500000
   0.75000000  0.25326617  0.87500000
   0.24673383  0.25000000  0.62500000
   0.75326614  0.75000000  0.62500000
   0.75000000  0.24673383  0.37500000
   0.25000000  0.75326614  0.37500000
   0.00000000  0.00000000  0.50000000
   0.50000000  0.00000000  0.25000000
   0.50000000  0.50000000  0.00000000
   0.00000000  0.50000000  0.75000000
   0.00000000  0.00000000  0.00000000
   0.50000000  0.00000000  0.75000000
   0.50000000  0.50000000  0.50000000
   0.00000000  0.50000000  0.25000000
 
 position of ions in cartesian coordinates  (Angst):
   1.27859760  1.26210856  1.37920290
   3.76983678  3.78632567  1.37920290
   1.26210856  3.76983678  9.65442031
   3.78632567  1.27859760  9.65442031
   1.24561951  1.26210856  6.89601451
   3.80281457  3.78632567  6.89601451
   3.78632567  1.24561951  4.13760871
   1.26210856  3.80281457  4.13760871
   0.00000000  0.00000000  5.51681161
   2.52421711  0.00000000  2.75840580
   2.52421711  2.52421711  0.00000000
   0.00000000  2.52421711  8.27521741
   0.00000000  0.00000000  0.00000000
   2.52421711  0.00000000  8.27521741
   2.52421711  2.52421711  5.51681161
   0.00000000  2.52421711  2.75840580
 
 Euler angles ALPHA=     0.0000000  BETA=     0.0000000

 transformation matrix from SAXIS to cartesian coordinates
 ---------------------------------------------------------
     1.0000000 m_x     0.0000000 m_y     0.0000000 m_z
     0.0000000 m_x     1.0000000 m_y     0.0000000 m_z
     0.0000000 m_x     0.0000000 m_y     1.0000000 m_z

 transformation matrix from cartesian coordinates to SAXIS
 ---------------------------------------------------------
     1.0000000 m_x     0.0000000 m_y     0.0000000 m_z
     0.0000000 m_x     1.0000000 m_y     0.0000000 m_z
     0.0000000 m_x     0.0000000 m_y     1.0000000 m_z




--------------------------------------------------------------------------------------------------------


 k-point  1 :   0.0000 0.0000 0.0000  plane waves:   23702
 k-point  2 :   0.1667 0.0000 0.0000  plane waves:   23656
 k-point  3 :   0.3333 0.0000 0.0000  plane waves:   23608
 k-point  4 :   0.5000 0.0000 0.0000  plane waves:   23588
 k-point  5 :   0.1667 0.1667 0.0000  plane waves:   23622
 k-point  6 :   0.3333 0.1667 0.0000  plane waves:   23640
 k-point  7 :   0.5000 0.1667 0.0000  plane waves:   23644
 k-point  8 :   0.3333 0.3333 0.0000  plane waves:   23668
 k-point  9 :   0.5000 0.3333 0.0000  plane waves:   23728
 k-point 10 :   0.5000 0.5000 0.0000  plane waves:   23744
 k-point 11 :   0.0000 0.0000 0.3333  plane waves:   23736
 k-point 12 :   0.1667 0.0000 0.3333  plane waves:   23598
 k-point 13 :   0.3333 0.0000 0.3333  plane waves:   23622
 k-point 14 :   0.5000 0.0000 0.3333  plane waves:   23648
 k-point 15 :   0.1667 0.1667 0.3333  plane waves:   23620
 k-point 16 :   0.3333 0.1667 0.3333  plane waves:   23664
 k-point 17 :   0.5000 0.1667 0.3333  plane waves:   23652
 k-point 18 :  -0.3333 0.1667 0.3333  plane waves:   23664
 k-point 19 :  -0.1667 0.1667 0.3333  plane waves:   23620
 k-point 20 :   0.3333 0.3333 0.3333  plane waves:   23690
 k-point 21 :   0.5000 0.3333 0.3333  plane waves:   23680
 k-point 22 :  -0.3333 0.3333 0.3333  plane waves:   23690
 k-point 23 :   0.5000 0.5000 0.3333  plane waves:   23696

 maximum and minimum number of plane-waves per node :       772      698

 maximum number of plane-waves:     23744
 maximum index in each direction: 
   IXMAX=   11   IYMAX=   10   IZMAX=   23
   IXMIN=  -11   IYMIN=  -11   IZMIN=  -24


 parallel 3D FFT for wavefunctions:
    minimum data exchange during FFTs selected (reduces bandwidth)
 parallel 3D FFT for charge:
    minimum data exchange during FFTs selected (reduces bandwidth)


 total amount of memory used by VASP MPI-rank0    64742. kBytes
=======================================================================

   base      :      30000. kBytes
   nonl-proj :       3913. kBytes
   fftplans  :       1448. kBytes
   grid      :       5898. kBytes
   one-center:         62. kBytes
   wavefun   :      23421. kBytes
 
     INWAV:  cpu time    5.5413: real time    5.7003
 Broyden mixing: mesh for mixing (old mesh)
   NGX = 21   NGY = 21   NGZ = 47
  (NGX  = 96   NGY  = 96   NGZ  =192)
  gives a total of  20727 points

 initial charge density was supplied:
 number of electron     171.9999983 magnetization      -0.0000000      0.0000000      0.0000000
 charge density for first step will be calculated from the start-wavefunctions


--------------------------------------------------------------------------------------------------------


 BZINTS: Fermi energy:  5.217198;172.000000 electrons
         Band energy:***********;  BLOECHL correction:  0.000000
 Maximum index for augmentation-charges          941 (set IRDMAX)


--------------------------------------------------------------------------------------------------------


 initial charge from wavefunction
 First call to EWALD:  gamma=   0.271
 Maximum number of real-space cells 3x 3x 2
 Maximum number of reciprocal cells 2x 2x 4

    FEWALD:  cpu time    0.0081: real time    0.0081

 ----------------------------------------------------------------------------- 
|                                                                             |
|           W    W    AA    RRRRR   N    N  II  N    N   GGGG   !!!           |
|           W    W   A  A   R    R  NN   N  II  NN   N  G    G  !!!           |
|           W    W  A    A  R    R  N N  N  II  N N  N  G       !!!           |
|           W WW W  AAAAAA  RRRRR   N  N N  II  N  N N  G  GGG   !            |
|           WW  WW  A    A  R   R   N   NN  II  N   NN  G    G                |
|           W    W  A    A  R    R  N    N  II  N    N   GGGG   !!!           |
|                                                                             |
|      ALGO=A and IALGO=5X tend to fail with the tetrahedron method           |
|      (e.g. Bloechls method ISMEAR=-5 is not variational)                    |
|      please switch to IMSEAR=0-n, except for DOS calculations               |
|      For DOS calculations use IALGO=53 after preconverging with ISMEAR>=0   |
|          I HOPE YOU KNOW, WHAT YOU ARE  DOING                               |
|                                                                             |
 ----------------------------------------------------------------------------- 



--------------------------------------- Iteration      1(   1)  ---------------------------------------


    POTLOK:  cpu time    0.1034: real time    0.1034
    SETDIJ:  cpu time    0.6530: real time    0.6530
    TRIAL :  cpu time    4.1925: real time    4.2055
 BZINTS: Fermi energy:  5.217194;172.000000 electrons
         Band energy:***********;  BLOECHL correction:  0.000000
 BZINTS: Fermi energy:  5.217195;172.000000 electrons
         Band energy:***********;  BLOECHL correction:  0.000000
    CORREC:  cpu time    3.3220: real time    3.3242
    CHARGE:  cpu time    1.0863: real time    1.0863
    --------------------------------------------
      LOOP:  cpu time    9.3658: real time    9.4192

 eigenvalue-minimisations  :     0
 total energy-change (2. order) :-0.8185325E+02  (-0.6638885E-05)
 number of electron     171.9999983 magnetization       0.0000000      0.0000000      0.0000000
 augmentation part       70.5416940 magnetization       0.0000001      0.0000005     -0.0003805

 Free energy of the ion-electron system (eV)
  ---------------------------------------------------
  alpha Z        PSCENC =       602.56249492
  Ewald energy   TEWEN  =    -15747.85511805
  -Hartree energ DENC   =    -10653.53957814
  -exchange      EXHF   =         0.00000000
  -V(xc)+E(xc)   XCENC  =       822.30166928
  PAW double counting   =     28271.88560644   -29196.13252223
  entropy T*S    EENTRO =         0.00000000
  eigenvalues    EBANDS =     -2686.09208163
  atomic energy  EATOM  =     28505.01627691
  ---------------------------------------------------
  free energy    TOTEN  =       -81.85325250 eV

  energy without entropy =      -81.85325250  energy(sigma->0) =      -81.85325250


--------------------------------------------------------------------------------------------------------




--------------------------------------- Iteration      1(   2)  ---------------------------------------


    POTLOK:  cpu time    0.1020: real time    0.1020
    SETDIJ:  cpu time    0.6549: real time    0.6549
    TRIAL :  cpu time    2.8528: real time    2.8551
 BZINTS: Fermi energy:  5.217195;172.000000 electrons
         Band energy:***********;  BLOECHL correction:  0.000000
 BZINTS: Fermi energy:  5.217195;172.000000 electrons
         Band energy:***********;  BLOECHL correction:  0.000000
    CORREC:  cpu time    3.3220: real time    3.3241
    CHARGE:  cpu time    1.0946: real time    1.0946
    --------------------------------------------
      LOOP:  cpu time    8.0475: real time    8.0545

 eigenvalue-minimisations  :     0
 total energy-change (2. order) :-0.9483112E-05  (-0.1269857E-05)
 number of electron     171.9999983 magnetization       0.0000000      0.0000000      0.0000000
 augmentation part       70.5416940 magnetization       0.0000001      0.0000003     -0.0003805

 Free energy of the ion-electron system (eV)
  ---------------------------------------------------
  alpha Z        PSCENC =       602.56249492
  Ewald energy   TEWEN  =    -15747.85511805
  -Hartree energ DENC   =    -10653.53950863
  -exchange      EXHF   =         0.00000000
  -V(xc)+E(xc)   XCENC  =       822.30166988
  PAW double counting   =     28271.88550057   -29196.13241656
  entropy T*S    EENTRO =         0.00000000
  eigenvalues    EBANDS =     -2686.09216102
  atomic energy  EATOM  =     28505.01627691
  ---------------------------------------------------
  free energy    TOTEN  =       -81.85326198 eV

  energy without entropy =      -81.85326198  energy(sigma->0) =      -81.85326198


--------------------------------------------------------------------------------------------------------




--------------------------------------- Iteration      1(   3)  ---------------------------------------


    POTLOK:  cpu time    0.1038: real time    0.1038
    SETDIJ:  cpu time    0.6535: real time    0.6535
    TRIAL :  cpu time    2.8548: real time    2.8570
 BZINTS: Fermi energy:  5.217193;172.000000 electrons
         Band energy:***********;  BLOECHL correction:  0.000000
 BZINTS: Fermi energy:  5.217194;172.000000 electrons
         Band energy:***********;  BLOECHL correction:  0.000000
    CORREC:  cpu time    3.3193: real time    3.3214
    CHARGE:  cpu time    1.0889: real time    1.0889
    --------------------------------------------
      LOOP:  cpu time    8.0356: real time    8.0437

 eigenvalue-minimisations  :     0
 total energy-change (2. order) :-0.1013661E-04  (-0.1526606E-05)
 number of electron     171.9999983 magnetization       0.0000000      0.0000000      0.0000000
 augmentation part       70.5416941 magnetization       0.0000002      0.0000002     -0.0003805

 Free energy of the ion-electron system (eV)
  ---------------------------------------------------
  alpha Z        PSCENC =       602.56249492
  Ewald energy   TEWEN  =    -15747.85511805
  -Hartree energ DENC   =    -10653.53950332
  -exchange      EXHF   =         0.00000000
  -V(xc)+E(xc)   XCENC  =       822.30165194
  PAW double counting   =     28271.88553665   -29196.13245229
  entropy T*S    EENTRO =         0.00000000
  eigenvalues    EBANDS =     -2686.09215887
  atomic energy  EATOM  =     28505.01627691
  ---------------------------------------------------
  free energy    TOTEN  =       -81.85327212 eV

  energy without entropy =      -81.85327212  energy(sigma->0) =      -81.85327212


--------------------------------------------------------------------------------------------------------




--------------------------------------- Iteration      1(   4)  ---------------------------------------


    POTLOK:  cpu time    0.1035: real time    0.1035
    SETDIJ:  cpu time    0.6525: real time    0.6525
    TRIAL :  cpu time    2.8540: real time    2.8563
 BZINTS: Fermi energy:  5.217194;172.000000 electrons
         Band energy:***********;  BLOECHL correction:  0.000000
 BZINTS: Fermi energy:  5.217194;172.000000 electrons
         Band energy:***********;  BLOECHL correction:  0.000000
    CORREC:  cpu time    3.3163: real time    3.3184
    CHARGE:  cpu time    1.0888: real time    1.0888
    --------------------------------------------
      LOOP:  cpu time    8.0333: real time    8.0409

 eigenvalue-minimisations  :     0
 total energy-change (2. order) :-0.2543489E-05  (-0.5798592E-06)
 number of electron     171.9999983 magnetization       0.0000000      0.0000000      0.0000000
 augmentation part       70.5416941 magnetization       0.0000000      0.0000003     -0.0003805

 Free energy of the ion-electron system (eV)
  ---------------------------------------------------
  alpha Z        PSCENC =       602.56249492
  Ewald energy   TEWEN  =    -15747.85511805
  -Hartree energ DENC   =    -10653.53950853
  -exchange      EXHF   =         0.00000000
  -V(xc)+E(xc)   XCENC  =       822.30165233
  PAW double counting   =     28271.88575569   -29196.13267201
  entropy T*S    EENTRO =         0.00000000
  eigenvalues    EBANDS =     -2686.09215592
  atomic energy  EATOM  =     28505.01627691
  ---------------------------------------------------
  free energy    TOTEN  =       -81.85327466 eV

  energy without entropy =      -81.85327466  energy(sigma->0) =      -81.85327466


--------------------------------------------------------------------------------------------------------




--------------------------------------- Iteration      1(   5)  ---------------------------------------


    POTLOK:  cpu time    0.1021: real time    0.1021
    SETDIJ:  cpu time    0.6521: real time    0.6521
    TRIAL :  cpu time    2.8380: real time    2.8402
 BZINTS: Fermi energy:  5.217193;172.000000 electrons
         Band energy:***********;  BLOECHL correction:  0.000000
 BZINTS: Fermi energy:  5.217194;172.000000 electrons
         Band energy:***********;  BLOECHL correction:  0.000000
    CORREC:  cpu time    3.3115: real time    3.3137
    CHARGE:  cpu time    1.0897: real time    1.0897
    --------------------------------------------
      LOOP:  cpu time    8.0138: real time    8.0214

 eigenvalue-minimisations  :     0
 total energy-change (2. order) :-0.2305696E-05  (-0.5923599E-06)
 number of electron     171.9999983 magnetization       0.0000000      0.0000000      0.0000000
 augmentation part       70.5416942 magnetization       0.0000001      0.0000002     -0.0003805

 Free energy of the ion-electron system (eV)
  ---------------------------------------------------
  alpha Z        PSCENC =       602.56249492
  Ewald energy   TEWEN  =    -15747.85511805
  -Hartree energ DENC   =    -10653.53950979
  -exchange      EXHF   =         0.00000000
  -V(xc)+E(xc)   XCENC  =       822.30164940
  PAW double counting   =     28271.88580718   -29196.13272352
  entropy T*S    EENTRO =         0.00000000
  eigenvalues    EBANDS =     -2686.09215402
  atomic energy  EATOM  =     28505.01627691
  ---------------------------------------------------
  free energy    TOTEN  =       -81.85327697 eV

  energy without entropy =      -81.85327697  energy(sigma->0) =      -81.85327697


--------------------------------------------------------------------------------------------------------




--------------------------------------- Iteration      1(   6)  ---------------------------------------


    POTLOK:  cpu time    0.1032: real time    0.1032
    SETDIJ:  cpu time    0.6525: real time    0.6525
    TRIAL :  cpu time    2.8599: real time    2.8622
 BZINTS: Fermi energy:  5.217195;172.000000 electrons
         Band energy:***********;  BLOECHL correction:  0.000000
 BZINTS: Fermi energy:  5.217194;172.000000 electrons
         Band energy:***********;  BLOECHL correction:  0.000000
    CORREC:  cpu time    3.3193: real time    3.3215
    CHARGE:  cpu time    1.0911: real time    1.0911
    --------------------------------------------
      LOOP:  cpu time    8.0466: real time    8.0527

 eigenvalue-minimisations  :     0
 total energy-change (2. order) :-0.6254722E-06  (-0.3404975E-06)
 number of electron     171.9999983 magnetization       0.0000000      0.0000000      0.0000000
 augmentation part       70.5416942 magnetization       0.0000000      0.0000003     -0.0003805

 Free energy of the ion-electron system (eV)
  ---------------------------------------------------
  alpha Z        PSCENC =       602.56249492
  Ewald energy   TEWEN  =    -15747.85511805
  -Hartree energ DENC   =    -10653.53951342
  -exchange      EXHF   =         0.00000000
  -V(xc)+E(xc)   XCENC  =       822.30165032
  PAW double counting   =     28271.88592249   -29196.13283893
  entropy T*S    EENTRO =         0.00000000
  eigenvalues    EBANDS =     -2686.09215184
  atomic energy  EATOM  =     28505.01627691
  ---------------------------------------------------
  free energy    TOTEN  =       -81.85327759 eV

  energy without entropy =      -81.85327759  energy(sigma->0) =      -81.85327759


--------------------------------------------------------------------------------------------------------




--------------------------------------- Iteration      1(   7)  ---------------------------------------


    POTLOK:  cpu time    0.1037: real time    0.1037
    SETDIJ:  cpu time    0.6523: real time    0.6523
    TRIAL :  cpu time    2.8373: real time    2.8395
 BZINTS: Fermi energy:  5.217193;172.000000 electrons
         Band energy:***********;  BLOECHL correction:  0.000000
 BZINTS: Fermi energy:  5.217194;172.000000 electrons
         Band energy:***********;  BLOECHL correction:  0.000000
    CORREC:  cpu time    3.3179: real time    3.3200
    CHARGE:  cpu time    1.0877: real time    1.0877
    --------------------------------------------
      LOOP:  cpu time    8.0216: real time    8.0295

 eigenvalue-minimisations  :     0
 total energy-change (2. order) :-0.1470853E-05  (-0.2898988E-06)
 number of electron     171.9999983 magnetization       0.0000000     -0.0000000     -0.0000000
 augmentation part       70.5416942 magnetization       0.0000001      0.0000002     -0.0003805

 Free energy of the ion-electron system (eV)
  ---------------------------------------------------
  alpha Z        PSCENC =       602.56249492
  Ewald energy   TEWEN  =    -15747.85511805
  -Hartree energ DENC   =    -10653.53951476
  -exchange      EXHF   =         0.00000000
  -V(xc)+E(xc)   XCENC  =       822.30164846
  PAW double counting   =     28271.88597185   -29196.13288823
  entropy T*S    EENTRO =         0.00000000
  eigenvalues    EBANDS =     -2686.09215018
  atomic energy  EATOM  =     28505.01627691
  ---------------------------------------------------
  free energy    TOTEN  =       -81.85327907 eV

  energy without entropy =      -81.85327907  energy(sigma->0) =      -81.85327907


--------------------------------------------------------------------------------------------------------




--------------------------------------- Iteration      1(   8)  ---------------------------------------


    POTLOK:  cpu time    0.1012: real time    0.1012
    SETDIJ:  cpu time    0.6527: real time    0.6527
    TRIAL :  cpu time    2.8455: real time    2.8478
 BZINTS: Fermi energy:  5.217194;172.000000 electrons
         Band energy:***********;  BLOECHL correction:  0.000000
 BZINTS: Fermi energy:  5.217194;172.000000 electrons
         Band energy:***********;  BLOECHL correction:  0.000000
    CORREC:  cpu time    3.3175: real time    3.3197
    CHARGE:  cpu time    1.0949: real time    1.0949
    --------------------------------------------
      LOOP:  cpu time    8.0339: real time    8.0416

 eigenvalue-minimisations  :     0
 total energy-change (2. order) :-0.2621364E-06  (-0.2185815E-06)
 number of electron     171.9999983 magnetization       0.0000000     -0.0000000      0.0000000
 augmentation part       70.5416942 magnetization       0.0000000      0.0000002     -0.0003805

 Free energy of the ion-electron system (eV)
  ---------------------------------------------------
  alpha Z        PSCENC =       602.56249492
  Ewald energy   TEWEN  =    -15747.85511805
  -Hartree energ DENC   =    -10653.53951744
  -exchange      EXHF   =         0.00000000
  -V(xc)+E(xc)   XCENC  =       822.30164904
  PAW double counting   =     28271.88606112   -29196.13297750
  entropy T*S    EENTRO =         0.00000000
  eigenvalues    EBANDS =     -2686.09214831
  atomic energy  EATOM  =     28505.01627691
  ---------------------------------------------------
  free energy    TOTEN  =       -81.85327933 eV

  energy without entropy =      -81.85327933  energy(sigma->0) =      -81.85327933


--------------------------------------------------------------------------------------------------------




--------------------------------------- Iteration      1(   9)  ---------------------------------------


    POTLOK:  cpu time    0.1030: real time    0.1030
    SETDIJ:  cpu time    0.6524: real time    0.6524
    TRIAL :  cpu time    2.8395: real time    2.8418
 BZINTS: Fermi energy:  5.217194;172.000000 electrons
         Band energy:***********;  BLOECHL correction:  0.000000
 BZINTS: Fermi energy:  5.217194;172.000000 electrons
         Band energy:***********;  BLOECHL correction:  0.000000
    CORREC:  cpu time    3.3253: real time    3.3276
    CHARGE:  cpu time    1.0900: real time    1.0900
    --------------------------------------------
      LOOP:  cpu time    8.0337: real time    8.0392

 eigenvalue-minimisations  :     0
 total energy-change (2. order) :-0.6419596E-06  (-0.1843768E-06)
 number of electron     171.9999983 magnetization       0.0000000      0.0000000     -0.0000000
 augmentation part       70.5416943 magnetization       0.0000001      0.0000002     -0.0003805

 Free energy of the ion-electron system (eV)
  ---------------------------------------------------
  alpha Z        PSCENC =       602.56249492
  Ewald energy   TEWEN  =    -15747.85511805
  -Hartree energ DENC   =    -10653.53951916
  -exchange      EXHF   =         0.00000000
  -V(xc)+E(xc)   XCENC  =       822.30164836
  PAW double counting   =     28271.88612011   -29196.13303645
  entropy T*S    EENTRO =         0.00000000
  eigenvalues    EBANDS =     -2686.09214661
  atomic energy  EATOM  =     28505.01627691
  ---------------------------------------------------
  free energy    TOTEN  =       -81.85327997 eV

  energy without entropy =      -81.85327997  energy(sigma->0) =      -81.85327997


--------------------------------------------------------------------------------------------------------




--------------------------------------- Iteration      1(  10)  ---------------------------------------


    POTLOK:  cpu time    0.1058: real time    0.1058
    SETDIJ:  cpu time    0.6523: real time    0.6523
    TRIAL :  cpu time    2.8452: real time    2.8474
 BZINTS: Fermi energy:  5.217194;172.000000 electrons
         Band energy:***********;  BLOECHL correction:  0.000000
 BZINTS: Fermi energy:  5.217194;172.000000 electrons
         Band energy:***********;  BLOECHL correction:  0.000000
    CORREC:  cpu time    3.3190: real time    3.3212
    CHARGE:  cpu time    1.0913: real time    1.0913
    --------------------------------------------
      LOOP:  cpu time    8.0338: real time    8.0413

 eigenvalue-minimisations  :     0
 total energy-change (2. order) :-0.3335172E-06  (-0.1441778E-06)
 number of electron     171.9999983 magnetization       0.0000000      0.0000000     -0.0000000
 augmentation part       70.5416943 magnetization       0.0000000      0.0000002     -0.0003805

 Free energy of the ion-electron system (eV)
  ---------------------------------------------------
  alpha Z        PSCENC =       602.56249492
  Ewald energy   TEWEN  =    -15747.85511805
  -Hartree energ DENC   =    -10653.53952108
  -exchange      EXHF   =         0.00000000
  -V(xc)+E(xc)   XCENC  =       822.30164839
  PAW double counting   =     28271.88618978   -29196.13310608
  entropy T*S    EENTRO =         0.00000000
  eigenvalues    EBANDS =     -2686.09214510
  atomic energy  EATOM  =     28505.01627691
  ---------------------------------------------------
  free energy    TOTEN  =       -81.85328030 eV

  energy without entropy =      -81.85328030  energy(sigma->0) =      -81.85328030


--------------------------------------------------------------------------------------------------------




--------------------------------------- Iteration      1(  11)  ---------------------------------------


    POTLOK:  cpu time    0.1028: real time    0.1028
    SETDIJ:  cpu time    0.6551: real time    0.6551
    TRIAL :  cpu time    2.8428: real time    2.8451
 BZINTS: Fermi energy:  5.217194;172.000000 electrons
         Band energy:***********;  BLOECHL correction:  0.000000
 BZINTS: Fermi energy:  5.217194;172.000000 electrons
         Band energy:***********;  BLOECHL correction:  0.000000
    CORREC:  cpu time    3.3265: real time    3.3287
    CHARGE:  cpu time    1.0890: real time    1.0890
    --------------------------------------------
      LOOP:  cpu time    8.0354: real time    8.0433

 eigenvalue-minimisations  :     0
 total energy-change (2. order) :-0.4396716E-06  (-0.1215678E-06)
 number of electron     171.9999983 magnetization       0.0000000     -0.0000000      0.0000000
 augmentation part       70.5416943 magnetization       0.0000001      0.0000002     -0.0003805

 Free energy of the ion-electron system (eV)
  ---------------------------------------------------
  alpha Z        PSCENC =       602.56249492
  Ewald energy   TEWEN  =    -15747.85511805
  -Hartree energ DENC   =    -10653.53952258
  -exchange      EXHF   =         0.00000000
  -V(xc)+E(xc)   XCENC  =       822.30164796
  PAW double counting   =     28271.88624731   -29196.13316356
  entropy T*S    EENTRO =         0.00000000
  eigenvalues    EBANDS =     -2686.09214364
  atomic energy  EATOM  =     28505.01627691
  ---------------------------------------------------
  free energy    TOTEN  =       -81.85328074 eV

  energy without entropy =      -81.85328074  energy(sigma->0) =      -81.85328074


--------------------------------------------------------------------------------------------------------




--------------------------------------- Iteration      1(  12)  ---------------------------------------


    POTLOK:  cpu time    0.1031: real time    0.1032
    SETDIJ:  cpu time    0.6550: real time    0.6550
    TRIAL :  cpu time    2.8731: real time    2.8753
 BZINTS: Fermi energy:  5.217194;172.000000 electrons
         Band energy:***********;  BLOECHL correction:  0.000000
 BZINTS: Fermi energy:  5.217194;172.000000 electrons
         Band energy:***********;  BLOECHL correction:  0.000000
    CORREC:  cpu time    3.3131: real time    3.3153
    CHARGE:  cpu time    1.0883: real time    1.0883
    --------------------------------------------
      LOOP:  cpu time    8.0537: real time    8.0587

 eigenvalue-minimisations  :     0
 total energy-change (2. order) :-0.3019995E-06  (-0.9849320E-07)
 number of electron     171.9999983 magnetization       0.0000000      0.0000000      0.0000000
 augmentation part       70.5416943 magnetization       0.0000000      0.0000002     -0.0003805

 Free energy of the ion-electron system (eV)
  ---------------------------------------------------
  alpha Z        PSCENC =       602.56249492
  Ewald energy   TEWEN  =    -15747.85511805
  -Hartree energ DENC   =    -10653.53952406
  -exchange      EXHF   =         0.00000000
  -V(xc)+E(xc)   XCENC  =       822.30164779
  PAW double counting   =     28271.88630518   -29196.13322139
  entropy T*S    EENTRO =         0.00000000
  eigenvalues    EBANDS =     -2686.09214235
  atomic energy  EATOM  =     28505.01627691
  ---------------------------------------------------
  free energy    TOTEN  =       -81.85328104 eV

  energy without entropy =      -81.85328104  energy(sigma->0) =      -81.85328104


--------------------------------------------------------------------------------------------------------




--------------------------------------- Iteration      1(  13)  ---------------------------------------


    POTLOK:  cpu time    0.1035: real time    0.1035
    SETDIJ:  cpu time    0.6531: real time    0.6531
    TRIAL :  cpu time    2.8440: real time    2.8463
 BZINTS: Fermi energy:  5.217194;172.000000 electrons
         Band energy:***********;  BLOECHL correction:  0.000000
 BZINTS: Fermi energy:  5.217194;172.000000 electrons
         Band energy:***********;  BLOECHL correction:  0.000000
    CORREC:  cpu time    3.3457: real time    3.3479
    CHARGE:  cpu time    1.0905: real time    1.0905
    --------------------------------------------
      LOOP:  cpu time    8.0583: real time    8.0659

 eigenvalue-minimisations  :     0
 total energy-change (2. order) :-0.2765228E-06  (-0.8445440E-07)
 number of electron     171.9999983 magnetization       0.0000000      0.0000000      0.0000000
 augmentation part       70.5416943 magnetization       0.0000001      0.0000002     -0.0003805

 Free energy of the ion-electron system (eV)
  ---------------------------------------------------
  alpha Z        PSCENC =       602.56249492
  Ewald energy   TEWEN  =    -15747.85511805
  -Hartree energ DENC   =    -10653.53952534
  -exchange      EXHF   =         0.00000000
  -V(xc)+E(xc)   XCENC  =       822.30164758
  PAW double counting   =     28271.88635693   -29196.13327310
  entropy T*S    EENTRO =         0.00000000
  eigenvalues    EBANDS =     -2686.09214117
  atomic energy  EATOM  =     28505.01627691
  ---------------------------------------------------
  free energy    TOTEN  =       -81.85328132 eV

  energy without entropy =      -81.85328132  energy(sigma->0) =      -81.85328132


--------------------------------------------------------------------------------------------------------




--------------------------------------- Iteration      1(  14)  ---------------------------------------


    POTLOK:  cpu time    0.1016: real time    0.1016
    SETDIJ:  cpu time    0.6528: real time    0.6528
    TRIAL :  cpu time    2.8360: real time    2.8383
 BZINTS: Fermi energy:  5.217194;172.000000 electrons
         Band energy:***********;  BLOECHL correction:  0.000000
 BZINTS: Fermi energy:  5.217194;172.000000 electrons
         Band energy:***********;  BLOECHL correction:  0.000000
    CORREC:  cpu time    3.3284: real time    3.3306
    CHARGE:  cpu time    1.0864: real time    1.0864
    --------------------------------------------
      LOOP:  cpu time    8.0244: real time    8.0298

 eigenvalue-minimisations  :     0
 total energy-change (2. order) :-0.2434099E-06  (-0.6928617E-07)
 number of electron     171.9999983 magnetization       0.0000000     -0.0000000      0.0000000
 augmentation part       70.5416943 magnetization       0.0000000      0.0000002     -0.0003805

 Free energy of the ion-electron system (eV)
  ---------------------------------------------------
  alpha Z        PSCENC =       602.56249492
  Ewald energy   TEWEN  =    -15747.85511805
  -Hartree energ DENC   =    -10653.53952654
  -exchange      EXHF   =         0.00000000
  -V(xc)+E(xc)   XCENC  =       822.30164736
  PAW double counting   =     28271.88640617   -29196.13332230
  entropy T*S    EENTRO =         0.00000000
  eigenvalues    EBANDS =     -2686.09214003
  atomic energy  EATOM  =     28505.01627691
  ---------------------------------------------------
  free energy    TOTEN  =       -81.85328156 eV

  energy without entropy =      -81.85328156  energy(sigma->0) =      -81.85328156


--------------------------------------------------------------------------------------------------------




--------------------------------------- Iteration      1(  15)  ---------------------------------------


    POTLOK:  cpu time    0.1033: real time    0.1033
    SETDIJ:  cpu time    0.6525: real time    0.6525
    TRIAL :  cpu time    2.8450: real time    2.8473
 BZINTS: Fermi energy:  5.217194;172.000000 electrons
         Band energy:***********;  BLOECHL correction:  0.000000
 BZINTS: Fermi energy:  5.217194;172.000000 electrons
         Band energy:***********;  BLOECHL correction:  0.000000
    CORREC:  cpu time    3.3218: real time    3.3240
    CHARGE:  cpu time    1.0925: real time    1.0925
    --------------------------------------------
      LOOP:  cpu time    8.0338: real time    8.0420

 eigenvalue-minimisations  :     0
 total energy-change (2. order) :-0.1824337E-06  (-0.6325065E-07)
 number of electron     171.9999983 magnetization       0.0000000      0.0000000     -0.0000000
 augmentation part       70.5416943 magnetization       0.0000001      0.0000002     -0.0003805

 Free energy of the ion-electron system (eV)
  ---------------------------------------------------
  alpha Z        PSCENC =       602.56249492
  Ewald energy   TEWEN  =    -15747.85511805
  -Hartree energ DENC   =    -10653.53952759
  -exchange      EXHF   =         0.00000000
  -V(xc)+E(xc)   XCENC  =       822.30164729
  PAW double counting   =     28271.88644996   -29196.13336605
  entropy T*S    EENTRO =         0.00000000
  eigenvalues    EBANDS =     -2686.09213912
  atomic energy  EATOM  =     28505.01627691
  ---------------------------------------------------
  free energy    TOTEN  =       -81.85328175 eV

  energy without entropy =      -81.85328175  energy(sigma->0) =      -81.85328175


--------------------------------------------------------------------------------------------------------




--------------------------------------- Iteration      1(  16)  ---------------------------------------


    POTLOK:  cpu time    0.1039: real time    0.1039
    SETDIJ:  cpu time    0.6523: real time    0.6523
    TRIAL :  cpu time    2.8418: real time    2.8441
 BZINTS: Fermi energy:  5.217194;172.000000 electrons
         Band energy:***********;  BLOECHL correction:  0.000000
 BZINTS: Fermi energy:  5.217194;172.000000 electrons
         Band energy:***********;  BLOECHL correction:  0.000000
    CORREC:  cpu time    3.3263: real time    3.3285
    CHARGE:  cpu time    1.0917: real time    1.0917
    --------------------------------------------
      LOOP:  cpu time    8.0366: real time    8.0440

 eigenvalue-minimisations  :     0
 total energy-change (2. order) :-0.1763783E-06  (-0.5123852E-07)
 number of electron     171.9999983 magnetization       0.0000000      0.0000000      0.0000000
 augmentation part       70.5416943 magnetization       0.0000000      0.0000002     -0.0003805

 Free energy of the ion-electron system (eV)
  ---------------------------------------------------
  alpha Z        PSCENC =       602.56249492
  Ewald energy   TEWEN  =    -15747.85511805
  -Hartree energ DENC   =    -10653.53952860
  -exchange      EXHF   =         0.00000000
  -V(xc)+E(xc)   XCENC  =       822.30164709
  PAW double counting   =     28271.88649361   -29196.13340967
  entropy T*S    EENTRO =         0.00000000
  eigenvalues    EBANDS =     -2686.09213814
  atomic energy  EATOM  =     28505.01627691
  ---------------------------------------------------
  free energy    TOTEN  =       -81.85328192 eV

  energy without entropy =      -81.85328192  energy(sigma->0) =      -81.85328192


--------------------------------------------------------------------------------------------------------




--------------------------------------- Iteration      1(  17)  ---------------------------------------


    POTLOK:  cpu time    0.1037: real time    0.1037
    SETDIJ:  cpu time    0.6525: real time    0.6525
    TRIAL :  cpu time    2.8494: real time    2.8516
 BZINTS: Fermi energy:  5.217194;172.000000 electrons
         Band energy:***********;  BLOECHL correction:  0.000000
 BZINTS: Fermi energy:  5.217194;172.000000 electrons
         Band energy:***********;  BLOECHL correction:  0.000000
    CORREC:  cpu time    3.3181: real time    3.3203
    CHARGE:  cpu time    1.0901: real time    1.0901
    --------------------------------------------
      LOOP:  cpu time    8.0355: real time    8.0429

 eigenvalue-minimisations  :     0
 total energy-change (2. order) :-0.1765420E-06  (-0.4341341E-07)
 number of electron     171.9999983 magnetization       0.0000000      0.0000000      0.0000000
 augmentation part       70.5416943 magnetization       0.0000001      0.0000002     -0.0003805

 Free energy of the ion-electron system (eV)
  ---------------------------------------------------
  alpha Z        PSCENC =       602.56249492
  Ewald energy   TEWEN  =    -15747.85511805
  -Hartree energ DENC   =    -10653.53952944
  -exchange      EXHF   =         0.00000000
  -V(xc)+E(xc)   XCENC  =       822.30164704
  PAW double counting   =     28271.88653099   -29196.13344702
  entropy T*S    EENTRO =         0.00000000
  eigenvalues    EBANDS =     -2686.09213745
  atomic energy  EATOM  =     28505.01627691
  ---------------------------------------------------
  free energy    TOTEN  =       -81.85328210 eV

  energy without entropy =      -81.85328210  energy(sigma->0) =      -81.85328210


--------------------------------------------------------------------------------------------------------




--------------------------------------- Iteration      1(  18)  ---------------------------------------


    POTLOK:  cpu time    0.1023: real time    0.1023
    SETDIJ:  cpu time    0.6526: real time    0.6526
    TRIAL :  cpu time    2.8543: real time    2.8566
 BZINTS: Fermi energy:  5.217194;172.000000 electrons
         Band energy:***********;  BLOECHL correction:  0.000000
 BZINTS: Fermi energy:  5.217194;172.000000 electrons
         Band energy:***********;  BLOECHL correction:  0.000000
    CORREC:  cpu time    3.3270: real time    3.3291
    CHARGE:  cpu time    1.0850: real time    1.0850
    --------------------------------------------
      LOOP:  cpu time    8.0387: real time    8.0462

 eigenvalue-minimisations  :     0
 total energy-change (2. order) :-0.1459703E-06  (-0.3764938E-07)
 number of electron     171.9999983 magnetization       0.0000000      0.0000000      0.0000000
 augmentation part       70.5416943 magnetization       0.0000000      0.0000002     -0.0003805

 Free energy of the ion-electron system (eV)
  ---------------------------------------------------
  alpha Z        PSCENC =       602.56249492
  Ewald energy   TEWEN  =    -15747.85511805
  -Hartree energ DENC   =    -10653.53953017
  -exchange      EXHF   =         0.00000000
  -V(xc)+E(xc)   XCENC  =       822.30164679
  PAW double counting   =     28271.88656466   -29196.13348066
  entropy T*S    EENTRO =         0.00000000
  eigenvalues    EBANDS =     -2686.09213664
  atomic energy  EATOM  =     28505.01627691
  ---------------------------------------------------
  free energy    TOTEN  =       -81.85328225 eV

  energy without entropy =      -81.85328225  energy(sigma->0) =      -81.85328225


--------------------------------------------------------------------------------------------------------




--------------------------------------- Iteration      1(  19)  ---------------------------------------


    POTLOK:  cpu time    0.1031: real time    0.1031
    SETDIJ:  cpu time    0.6522: real time    0.6522
    TRIAL :  cpu time    2.8463: real time    2.8485
 BZINTS: Fermi energy:  5.217194;172.000000 electrons
         Band energy:***********;  BLOECHL correction:  0.000000
 BZINTS: Fermi energy:  5.217194;172.000000 electrons
         Band energy:***********;  BLOECHL correction:  0.000000
    CORREC:  cpu time    3.3363: real time    3.3385
    CHARGE:  cpu time    1.0893: real time    1.0893
    --------------------------------------------
      LOOP:  cpu time    8.0460: real time    8.0539

 eigenvalue-minimisations  :     0
 total energy-change (2. order) : 0.4150206E-07  (-0.3679076E-07)
 number of electron     171.9999983 magnetization       0.0000000     -0.0000000      0.0000000
 augmentation part       70.5416943 magnetization       0.0000000      0.0000002     -0.0003805

 Free energy of the ion-electron system (eV)
  ---------------------------------------------------
  alpha Z        PSCENC =       602.56249492
  Ewald energy   TEWEN  =    -15747.85511805
  -Hartree energ DENC   =    -10653.53953083
  -exchange      EXHF   =         0.00000000
  -V(xc)+E(xc)   XCENC  =       822.30164702
  PAW double counting   =     28271.88659549   -29196.13351146
  entropy T*S    EENTRO =         0.00000000
  eigenvalues    EBANDS =     -2686.09213620
  atomic energy  EATOM  =     28505.01627691
  ---------------------------------------------------
  free energy    TOTEN  =       -81.85328220 eV

  energy without entropy =      -81.85328220  energy(sigma->0) =      -81.85328220


--------------------------------------------------------------------------------------------------------




--------------------------------------- Iteration      1(  20)  ---------------------------------------


    POTLOK:  cpu time    0.1023: real time    0.1023
    SETDIJ:  cpu time    0.6537: real time    0.6537
    TRIAL :  cpu time    2.8566: real time    2.8589
 BZINTS: Fermi energy:  5.217194;172.000000 electrons
         Band energy:***********;  BLOECHL correction:  0.000000
 BZINTS: Fermi energy:  5.217194;172.000000 electrons
         Band energy:***********;  BLOECHL correction:  0.000000
    CORREC:  cpu time    3.3214: real time    3.3236
    CHARGE:  cpu time    1.0911: real time    1.0911
    --------------------------------------------
      LOOP:  cpu time    8.0448: real time    8.0522

 eigenvalue-minimisations  :     0
 total energy-change (2. order) :-0.1500630E-06  (-0.3000947E-07)
 number of electron     171.9999983 magnetization       0.0000000     -0.0000000      0.0000000
 augmentation part       70.5416943 magnetization       0.0000000      0.0000002     -0.0003805

 Free energy of the ion-electron system (eV)
  ---------------------------------------------------
  alpha Z        PSCENC =       602.56249492
  Ewald energy   TEWEN  =    -15747.85511805
  -Hartree energ DENC   =    -10653.53953149
  -exchange      EXHF   =         0.00000000
  -V(xc)+E(xc)   XCENC  =       822.30164681
  PAW double counting   =     28271.88662674   -29196.13354268
  entropy T*S    EENTRO =         0.00000000
  eigenvalues    EBANDS =     -2686.09213552
  atomic energy  EATOM  =     28505.01627691
  ---------------------------------------------------
  free energy    TOTEN  =       -81.85328235 eV

  energy without entropy =      -81.85328235  energy(sigma->0) =      -81.85328235


--------------------------------------------------------------------------------------------------------




--------------------------------------- Iteration      1(  21)  ---------------------------------------


    POTLOK:  cpu time    0.1020: real time    0.1020
    SETDIJ:  cpu time    0.6535: real time    0.6535
    TRIAL :  cpu time    2.8556: real time    2.8578
 BZINTS: Fermi energy:  5.217194;172.000000 electrons
         Band energy:***********;  BLOECHL correction:  0.000000
 BZINTS: Fermi energy:  5.217194;172.000000 electrons
         Band energy:***********;  BLOECHL correction:  0.000000
    CORREC:  cpu time    3.3157: real time    3.3178
    CHARGE:  cpu time    1.0893: real time    1.0892
    --------------------------------------------
      LOOP:  cpu time    8.0319: real time    8.0395

 eigenvalue-minimisations  :     0
 total energy-change (2. order) :-0.4584217E-07  (-0.3036411E-07)
 number of electron     171.9999983 magnetization       0.0000000     -0.0000000      0.0000000
 augmentation part       70.5416943 magnetization       0.0000001      0.0000002     -0.0003805

 Free energy of the ion-electron system (eV)
  ---------------------------------------------------
  alpha Z        PSCENC =       602.56249492
  Ewald energy   TEWEN  =    -15747.85511805
  -Hartree energ DENC   =    -10653.53953202
  -exchange      EXHF   =         0.00000000
  -V(xc)+E(xc)   XCENC  =       822.30164689
  PAW double counting   =     28271.88665252   -29196.13356844
  entropy T*S    EENTRO =         0.00000000
  eigenvalues    EBANDS =     -2686.09213513
  atomic energy  EATOM  =     28505.01627691
  ---------------------------------------------------
  free energy    TOTEN  =       -81.85328240 eV

  energy without entropy =      -81.85328240  energy(sigma->0) =      -81.85328240


--------------------------------------------------------------------------------------------------------




--------------------------------------- Iteration      1(  22)  ---------------------------------------


    POTLOK:  cpu time    0.1043: real time    0.1043
    SETDIJ:  cpu time    0.6531: real time    0.6531
    TRIAL :  cpu time    2.8496: real time    2.8519
 BZINTS: Fermi energy:  5.217194;172.000000 electrons
         Band energy:***********;  BLOECHL correction:  0.000000
[...]
 -0.000  -0.000  -0.000  -0.000  -0.000   0.000   0.000   0.000   0.000  -0.000  -0.000   0.000   0.000   0.000   0.000  -0.000
 pseudopotential strength for first ion, spin component:           3
  0.000   0.000   0.000   0.000  -0.000  -0.000   0.000   0.000  -0.000   0.000  -0.000  -0.000   0.000   0.000  -0.000   0.000
  0.000   0.000   0.000   0.000  -0.000  -0.000   0.000   0.000  -0.000   0.000  -0.000  -0.000   0.000   0.000  -0.000   0.000
 -0.000  -0.000  -0.000  -0.000   0.000  -0.000  -0.000  -0.000  -0.000  -0.000   0.000  -0.000  -0.000  -0.000  -0.000  -0.000
  0.000   0.000   0.000   0.000  -0.000  -0.000   0.000   0.000   0.000  -0.000  -0.000  -0.000   0.000   0.000   0.000  -0.000
 -0.000   0.000  -0.000   0.000  -0.000  -0.000   0.000  -0.000   0.000   0.000  -0.000  -0.000   0.000  -0.000   0.000   0.000
 -0.000  -0.000  -0.000  -0.000   0.000  -0.000  -0.000  -0.000  -0.000  -0.000   0.000  -0.000  -0.000  -0.000  -0.000  -0.000
  0.000   0.000   0.000   0.000  -0.000  -0.000   0.000   0.000   0.000  -0.000  -0.000  -0.000   0.000   0.000   0.000  -0.000
 -0.000   0.000  -0.000   0.000  -0.000  -0.000   0.000  -0.000   0.000   0.000  -0.000  -0.000   0.000  -0.000   0.000   0.000
 pseudopotential strength for first ion, spin component:           4
 39.448   0.000  45.304   0.000  -0.001   0.000  -0.001   0.000  -0.002   0.000  -0.001   0.000  -0.002   0.000  -0.003   0.000
 45.304   0.000  52.031   0.000  -0.001   0.000  -0.002   0.000  -0.003   0.000  -0.001   0.000  -0.002   0.000  -0.004   0.000
 -0.001   0.000  -0.001   0.000   8.194   0.000   0.002   0.000  -0.001   0.000  11.107   0.000   0.002   0.000  -0.001   0.000
 -0.001   0.000  -0.002   0.000   0.002   0.000   8.196   0.000  -0.000   0.000   0.002   0.000  11.110   0.000  -0.000   0.000
 -0.002   0.000  -0.003   0.000  -0.001   0.000  -0.000   0.000   8.194   0.000  -0.001   0.000  -0.000   0.000  11.107   0.000
 -0.001   0.000  -0.001   0.000  11.107   0.000   0.002   0.000  -0.001   0.000  15.075   0.000   0.003   0.000  -0.002   0.000
 -0.002   0.000  -0.002   0.000   0.002   0.000  11.110   0.000  -0.000   0.000   0.003   0.000  15.078   0.000  -0.001   0.000
 -0.003   0.000  -0.004   0.000  -0.001   0.000  -0.000   0.000  11.107   0.000  -0.002   0.000  -0.001   0.000  15.075   0.000
 total augmentation occupancy for first ion, spin component:           1
 11.222  -7.010   0.000   0.000  -0.506   0.000   0.000   0.131
 -7.010   5.083   0.000   0.000   0.414   0.000   0.000  -0.078
  0.000   0.000   3.615   0.077   0.000  -1.016  -0.039   0.000
  0.000   0.000   0.077   3.818   0.000  -0.039  -1.125   0.000
 -0.506   0.414   0.000   0.000   3.615   0.000   0.000  -1.018
  0.000   0.000  -1.016  -0.039   0.000   0.344   0.014   0.000
  0.000   0.000  -0.039  -1.125   0.000   0.014   0.385   0.000
  0.131  -0.078   0.000   0.000  -1.018   0.000   0.000   0.346
 total augmentation occupancy for first ion, spin component:           2
  0.000  -0.000   0.000   0.000  -0.000   0.000   0.000   0.000
 -0.000   0.000   0.000   0.000  -0.000   0.000   0.000  -0.000
  0.000   0.000   0.000  -0.000   0.000  -0.000   0.000   0.000
  0.000   0.000  -0.000   0.000   0.000   0.000  -0.000   0.000
 -0.000  -0.000  -0.000   0.000  -0.000   0.000   0.000   0.000
  0.000  -0.000  -0.000   0.000   0.000   0.000  -0.000   0.000
  0.000   0.000   0.000  -0.000   0.000  -0.000   0.000  -0.000
  0.000  -0.000   0.000  -0.000   0.000   0.000   0.000  -0.000
 total augmentation occupancy for first ion, spin component:           3
  0.000   0.000   0.000  -0.000   0.000  -0.000   0.000   0.000
  0.000   0.000  -0.000   0.000   0.000   0.000  -0.000   0.000
  0.000  -0.000   0.000   0.000   0.000   0.000   0.000  -0.000
 -0.000   0.000   0.000   0.000  -0.000   0.000   0.000   0.000
 -0.000   0.000   0.000  -0.000   0.000  -0.000   0.000   0.000
 -0.000   0.000   0.000  -0.000  -0.000   0.000   0.000   0.000
  0.000  -0.000   0.000   0.000   0.000   0.000   0.000  -0.000
  0.000   0.000  -0.000   0.000  -0.000   0.000  -0.000  -0.000
 total augmentation occupancy for first ion, spin component:           4
  0.000   0.000   0.102   0.092  -0.000   0.082   0.086  -0.000
  0.000   0.000  -0.080  -0.071  -0.000  -0.089  -0.093   0.000
  0.102  -0.080   0.000   0.000   0.005   0.000   0.000  -0.000
  0.092  -0.071  -0.000   0.000   0.009   0.000  -0.000  -0.007
 -0.000  -0.000   0.005   0.009   0.000  -0.000  -0.007   0.000
  0.082  -0.089   0.000   0.000  -0.000   0.000   0.000   0.015
  0.086  -0.093   0.000  -0.000  -0.007   0.000   0.000   0.016
  0.000   0.000  -0.000  -0.007   0.000   0.015   0.016   0.000


------------------------ aborting loop because EDIFF is reached ----------------------------------------


 


 total charge     
 
# of ion       s       p       d       tot
------------------------------------------
    1        1.313   2.420   0.000   3.733
    2        1.313   2.420   0.000   3.733
    3        1.314   2.419   0.000   3.732
    4        1.314   2.418   0.000   3.732
    5        1.313   2.420   0.000   3.733
    6        1.313   2.420   0.000   3.733
    7        1.314   2.419   0.000   3.732
    8        1.314   2.418   0.000   3.732
    9        0.266   6.213   8.912  15.391
   10        0.266   6.213   8.912  15.390
   11        0.266   6.213   8.912  15.391
   12        0.266   6.213   8.912  15.390
   13        0.353   6.358   5.833  12.544
   14        0.353   6.358   5.832  12.543
   15        0.353   6.358   5.833  12.544
   16        0.353   6.358   5.832  12.543
--------------------------------------------------
tot         12.982  69.637  58.977 141.596
 


 magnetization (x)
 
# of ion       s       p       d       tot
------------------------------------------
    1       -0.000  -0.000   0.000  -0.000
    2        0.000   0.000   0.000   0.000
    3        0.000  -0.000   0.000  -0.000
    4        0.000  -0.000   0.000  -0.000
    5        0.000   0.000   0.000   0.000
    6       -0.000  -0.000   0.000  -0.000
    7        0.000  -0.000   0.000  -0.000
    8        0.000  -0.000   0.000  -0.000
    9        0.000  -0.000   0.000   0.000
   10        0.000  -0.000  -0.000  -0.000
   11        0.000  -0.000   0.000   0.000
   12        0.000  -0.000  -0.000  -0.000
   13        0.000  -0.000  -0.000   0.000
   14       -0.000   0.000   0.000   0.000
   15        0.000  -0.000  -0.000   0.000
   16       -0.000   0.000   0.000   0.000
--------------------------------------------------
tot          0.000  -0.000   0.000   0.000
 


 magnetization (y)
 
# of ion       s       p       d       tot
------------------------------------------
    1        0.000   0.000   0.000   0.000
    2        0.000   0.000   0.000   0.000
    3       -0.000  -0.000   0.000  -0.000
    4        0.000   0.000   0.000   0.000
    5        0.000   0.000   0.000   0.000
    6        0.000   0.000   0.000   0.000
    7       -0.000  -0.000   0.000  -0.000
    8        0.000   0.000   0.000   0.000
    9       -0.000   0.000  -0.000  -0.000
   10       -0.000  -0.000  -0.000  -0.000
   11       -0.000   0.000  -0.000  -0.000
   12       -0.000  -0.000  -0.000  -0.000
   13       -0.000  -0.000   0.000  -0.000
   14        0.000   0.000   0.000   0.000
   15       -0.000  -0.000   0.000  -0.000
   16        0.000   0.000   0.000   0.000
--------------------------------------------------
tot         -0.000   0.000  -0.000  -0.000
 


 magnetization (z)
 
# of ion       s       p       d       tot
------------------------------------------
    1        0.000  -0.003   0.000  -0.002
    2        0.000  -0.004   0.000  -0.003
    3       -0.000   0.004   0.000   0.003
    4       -0.000   0.003   0.000   0.003
    5        0.000  -0.004   0.000  -0.003
    6        0.000  -0.003   0.000  -0.002
    7       -0.000   0.004   0.000   0.003
    8       -0.000   0.003   0.000   0.003
    9        0.001  -0.002   0.014   0.013
   10       -0.001   0.002  -0.014  -0.013
   11        0.001  -0.002   0.014   0.013
   12       -0.001   0.002  -0.014  -0.013
   13        0.020   0.053   3.655   3.728
   14       -0.020  -0.053  -3.656  -3.729
   15        0.020   0.053   3.655   3.728
   16       -0.020  -0.053  -3.656  -3.729
--------------------------------------------------
tot         -0.000   0.001  -0.001  -0.000
 
    FORLOC:  cpu time    0.0047: real time    0.0047
    FORNL :  cpu time    0.7249: real time    0.7249
    STRESS:  cpu time    0.6467: real time    0.6467
    FORCOR:  cpu time    0.0912: real time    0.0913
    OFIELD:  cpu time    0.0008: real time    0.0008

  FORCE on cell =-STRESS in cart. coord.  units (eV):
  Direction    XX          YY          ZZ          XY          YZ          ZX
  --------------------------------------------------------------------------------------
  Alpha Z   602.56249   602.56249   602.56249
  Ewald   -5396.49920 -5396.49920 -4954.89469     0.00000     0.00000     0.00000
  Hartree  3475.27888  3475.27888  3702.98179    -0.00000    -0.00000    -0.00000
  E(xc)   -1051.38317 -1051.38317 -1051.14157    -0.00000    -0.00000    -0.00000
  Local    -976.89633  -976.89633 -1643.37688    -0.00000    -0.00000    -0.00000
  n-local   121.55990   123.19750   128.44838    -0.29644     0.02983    -0.01464
  augment  1180.17097  1180.17097  1182.71342    -0.00000    -0.00000    -0.00000
  Kinetic  2041.64990  2057.02325  2032.70726    -0.88829     0.11852     0.01524
  Fock        0.00000     0.00000     0.00000     0.00000     0.00000     0.00000
  -------------------------------------------------------------------------------------
  Total       4.94891     4.94891     0.00020     0.00000     0.00000     0.00000
  in kB      28.19608    28.19608     0.00116     0.00000     0.00000     0.00000
  external pressure =       18.80 kB  Pullay stress =        0.00 kB


 VOLUME and BASIS-vectors are now :
 -----------------------------------------------------------------------------
  energy-cutoff  :      700.00
  volume of cell :      281.21
      direct lattice vectors                 reciprocal lattice vectors
     5.048434229  0.000000000  0.000000000     0.198081218  0.000000000  0.000000000
     0.000000000  5.048434229  0.000000000     0.000000000  0.198081218  0.000000000
     0.000000000  0.000000000 11.033623215     0.000000000  0.000000000  0.090632060

  length of vectors
     5.048434229  5.048434229 11.033623215     0.198081218  0.198081218  0.090632060


 FORCES acting on ions:
    Electron-Ion                     Ewald-Force                    Non-Local-Force
 -----------------------------------------------------------------------------------------------
   0.416E+02 0.316E-12 0.921E-13   -.425E+02 0.526E-12 -.853E-13   0.849E+00 0.387E-18 -.734E-18
   -.416E+02 -.702E-13 0.707E-12   0.425E+02 -.981E-12 -.171E-12   -.849E+00 0.486E-19 -.886E-18
   0.360E-12 -.416E+02 0.309E-12   0.466E-12 0.425E+02 -.142E-13   -.156E-18 -.849E+00 0.104E-17
   0.315E-12 0.416E+02 0.197E-12   -.853E-12 -.425E+02 0.426E-13   0.919E-19 0.849E+00 0.235E-18
   -.416E+02 0.367E-12 -.468E-14   0.425E+02 0.507E-12 0.426E-13   -.849E+00 -.542E-20 -.752E-18
   0.416E+02 0.746E-12 -.104E-11   -.425E+02 -.943E-12 0.853E-13   0.849E+00 0.431E-18 -.635E-18
   0.315E-12 -.416E+02 0.105E-11   -.796E-12 0.425E+02 -.284E-13   -.480E-19 -.849E+00 -.443E-19
   0.360E-12 0.416E+02 0.686E-12   0.540E-12 -.425E+02 0.568E-13   0.113E-18 0.849E+00 0.344E-18
   0.270E-12 -.242E-12 0.236E-11   0.988E-05 -.206E-04 -.398E-12   -.294E-18 -.992E-19 -.599E-18
   0.176E-11 0.270E-12 -.582E-11   -.988E-05 -.206E-04 -.819E-11   -.304E-18 -.502E-18 0.991E-18
   0.180E-11 -.545E-11 -.938E-12   -.988E-05 0.206E-04 -.114E-12   -.124E-18 -.845E-19 -.471E-18
   0.180E-12 0.171E-11 0.588E-11   0.988E-05 0.206E-04 0.872E-11   -.142E-18 -.129E-18 0.105E-17
   0.180E-12 -.225E-12 -.721E-13   -.719E-05 0.173E-04 -.114E-12   -.199E-18 0.206E-19 -.244E-17
   0.743E-12 0.220E-12 -.296E-10   0.719E-05 0.173E-04 -.663E-11   0.433E-18 0.556E-19 0.171E-17
   0.743E-12 -.480E-11 -.948E-11   0.719E-05 -.173E-04 -.568E-13   -.519E-19 0.183E-18 -.185E-17
   0.180E-12 0.822E-12 0.747E-12   -.719E-05 -.173E-04 0.654E-11   0.358E-19 0.282E-19 0.165E-17
 -----------------------------------------------------------------------------------------------
   0.136E-10 0.796E-12 -.351E-10   0.586E-14 -.371E-13 -.317E-12   -.580E-18 0.110E-15 -.140E-17
 
 
 POSITION                                       TOTAL-FORCE (eV/Angst)
 -----------------------------------------------------------------------------------
      1.27860      1.26211      1.37920        -0.000002     -0.000000     -0.000000
      3.76984      3.78633      1.37920         0.000002     -0.000000     -0.000000
      1.26211      3.76984      9.65442        -0.000000      0.000002      0.000000
      3.78633      1.27860      9.65442        -0.000000     -0.000002     -0.000000
      1.24562      1.26211      6.89601         0.000002      0.000000      0.000000
      3.80281      3.78633      6.89601        -0.000002     -0.000000      0.000000
      3.78633      1.24562      4.13761        -0.000000      0.000002     -0.000000
      1.26211      3.80281      4.13761        -0.000000     -0.000002     -0.000000
      0.00000      0.00000      5.51681         0.000000      0.000000     -0.000000
      2.52422      0.00000      2.75841        -0.000000      0.000000     -0.000000
      2.52422      2.52422      0.00000        -0.000000     -0.000000     -0.000000
      0.00000      2.52422      8.27522         0.000000      0.000000      0.000000
      0.00000      0.00000      0.00000        -0.000000     -0.000000     -0.000000
      2.52422      0.00000      8.27522         0.000000      0.000000      0.000000
      2.52422      2.52422      5.51681        -0.000000      0.000000      0.000000
      0.00000      2.52422      2.75841         0.000000     -0.000000      0.000000
 -----------------------------------------------------------------------------------
    total drift:                                0.000000      0.000000     -0.000000


--------------------------------------------------------------------------------------------------------



  FREE ENERGIE OF THE ION-ELECTRON SYSTEM (eV)
  ---------------------------------------------------
  free  energy   TOTEN  =       -81.85328282 eV

  energy  without entropy=      -81.85328282  energy(sigma->0) =      -81.85328282
 


--------------------------------------------------------------------------------------------------------


    POTLOK:  cpu time    0.7459: real time    0.7459


--------------------------------------------------------------------------------------------------------


 writing wavefunctions
     LOOP+:  cpu time  290.0989: real time  297.4597
    4ORBIT:  cpu time    0.0000: real time    0.0000
 


 total charge     
 
# of ion       s       p       d       tot
------------------------------------------
    1        1.313   2.420   0.000   3.733
    2        1.313   2.420   0.000   3.733
    3        1.314   2.419   0.000   3.732
    4        1.314   2.418   0.000   3.732
    5        1.313   2.420   0.000   3.733
    6        1.313   2.420   0.000   3.733
    7        1.314   2.419   0.000   3.732
    8        1.314   2.418   0.000   3.732
    9        0.266   6.213   8.912  15.391
   10        0.266   6.213   8.912  15.390
   11        0.266   6.213   8.912  15.391
   12        0.266   6.213   8.912  15.390
   13        0.353   6.358   5.833  12.544
   14        0.353   6.358   5.832  12.543
   15        0.353   6.358   5.833  12.544
   16        0.353   6.358   5.832  12.543
--------------------------------------------------
tot         12.982  69.637  58.977 141.596
 


 magnetization (x)
 
# of ion       s       p       d       tot
------------------------------------------
    1       -0.000  -0.000   0.000  -0.000
    2        0.000   0.000   0.000   0.000
    3        0.000  -0.000   0.000  -0.000
    4        0.000  -0.000   0.000  -0.000
    5        0.000   0.000   0.000   0.000
    6       -0.000  -0.000   0.000  -0.000
    7        0.000  -0.000   0.000  -0.000
    8        0.000  -0.000   0.000  -0.000
    9        0.000  -0.000   0.000   0.000
   10        0.000  -0.000  -0.000  -0.000
   11        0.000  -0.000   0.000   0.000
   12        0.000  -0.000  -0.000  -0.000
   13        0.000  -0.000  -0.000   0.000
   14       -0.000   0.000   0.000   0.000
   15        0.000  -0.000  -0.000   0.000
   16       -0.000   0.000   0.000   0.000
--------------------------------------------------
tot          0.000  -0.000   0.000   0.000
 


 magnetization (y)
 
# of ion       s       p       d       tot
------------------------------------------
    1        0.000   0.000   0.000   0.000
    2        0.000   0.000   0.000   0.000
    3       -0.000  -0.000   0.000  -0.000
    4        0.000   0.000   0.000   0.000
    5        0.000   0.000   0.000   0.000
    6        0.000   0.000   0.000   0.000
    7       -0.000  -0.000   0.000  -0.000
    8        0.000   0.000   0.000   0.000
    9       -0.000   0.000  -0.000  -0.000
   10       -0.000  -0.000  -0.000  -0.000
   11       -0.000   0.000  -0.000  -0.000
   12       -0.000  -0.000  -0.000  -0.000
   13       -0.000  -0.000   0.000  -0.000
   14        0.000   0.000   0.000   0.000
   15       -0.000  -0.000   0.000  -0.000
   16        0.000   0.000   0.000   0.000
--------------------------------------------------
tot         -0.000   0.000  -0.000  -0.000
 


 magnetization (z)
 
# of ion       s       p       d       tot
------------------------------------------
    1        0.000  -0.003   0.000  -0.002
    2        0.000  -0.004   0.000  -0.003
    3       -0.000   0.004   0.000   0.003
    4       -0.000   0.003   0.000   0.003
    5        0.000  -0.004   0.000  -0.003
    6        0.000  -0.003   0.000  -0.002
    7       -0.000   0.004   0.000   0.003
    8       -0.000   0.003   0.000   0.003
    9        0.001  -0.002   0.014   0.013
   10       -0.001   0.002  -0.014  -0.013
   11        0.001  -0.002   0.014   0.013
   12       -0.001   0.002  -0.014  -0.013
   13        0.020   0.053   3.655   3.728
   14       -0.020  -0.053  -3.656  -3.729
   15        0.020   0.053   3.655   3.728
   16       -0.020  -0.053  -3.656  -3.729
--------------------------------------------------
tot         -0.000   0.001  -0.001  -0.000
 
 BZINTS: Fermi energy:  5.217203;172.000000 electrons
         Band energy:***********;  BLOECHL correction:  0.000000
 BZINTS: Fermi energy:  5.217203;172.000000 electrons
         Band energy:***********;  BLOECHL correction:  0.000000
 BZINTS: Fermi energy:  5.217203;172.000000 electrons
         Band energy:***********;  BLOECHL correction:  0.000000
 BZINTS: Fermi energy:  5.217203;172.000000 electrons
         Band energy:***********;  BLOECHL correction:  0.000000

 total amount of memory used by VASP MPI-rank0    64742. kBytes
=======================================================================

   base      :      30000. kBytes
   nonl-proj :       3913. kBytes
   fftplans  :       1448. kBytes
   grid      :       5898. kBytes
   one-center:         62. kBytes
   wavefun   :      23421. kBytes
 
  
  
 General timing and accounting informations for this job:
 ========================================================
  
                  Total CPU time used (sec):      318.064
                            User time (sec):      299.300
                          System time (sec):       18.763
                         Elapsed time (sec):      327.806
  
                   Maximum memory used (kb):      354440.
                   Average memory used (kb):           0.
  
                          Minor page faults:       214856
                          Major page faults:          109
                 Voluntary context switches:        55748
