 vasp.5.4.4.18Apr17-6-g9f103f2a35 (build Oct 30 2023 17:30:16) complex          
  
 executed on             LinuxIFC date 2024.06.30  05:26:48
 running on  256 total cores
 distrk:  each k-point on  256 cores,    1 groups
 distr:  one band on NCORES_PER_BAND=   1 cores,  256 groups


--------------------------------------------------------------------------------------------------------


 INCAR:
 POTCAR:    PAW_PBE S 06Sep2000                   
 POTCAR:     PAW_PBE Cu_pv 06Sep2000              
 POTCAR:     PAW_PBE Fe_pv 02Aug2007              

 ----------------------------------------------------------------------------- 
|                                                                             |
|           W    W    AA    RRRRR   N    N  II  N    N   GGGG   !!!           |
|           W    W   A  A   R    R  NN   N  II  NN   N  G    G  !!!           |
|           W    W  A    A  R    R  N N  N  II  N N  N  G       !!!           |
|           W WW W  AAAAAA  RRRRR   N  N N  II  N  N N  G  GGG   !            |
|           WW  WW  A    A  R   R   N   NN  II  N   NN  G    G                |
|           W    W  A    A  R    R  N    N  II  N    N   GGGG   !!!           |
|                                                                             |
|      For optimal performance we recommend to set                            |
|        NCORE= 4 - approx SQRT( number of cores)                             |
|      NCORE specifies how many cores store one orbital (NPAR=cpu/NCORE).     |
|      This setting can  greatly improve the performance of VASP for DFT.     |
|      The default,   NCORE=1            might be grossly inefficient         |
|      on modern multi-core architectures or massively parallel machines.     |
|      Do your own testing !!!!                                               |
|      Unfortunately you need to use the default for GW and RPA calculations. |
|      (for HF NCORE is supported but not extensively tested yet)             |
|                                                                             |
 ----------------------------------------------------------------------------- 

 POTCAR:    PAW_PBE S 06Sep2000                   
   SHA256 =  0fc7481fb0695f01bdc6462160264c5c84044ae9ec85a907d398b887a2bc3132 S/
   COPYR  = (c) Copyright 06Sep2000 Georg Kresse                                
   COPYR  = This file is part of the software VASP. Any use, copying, and all ot
   COPYR  = If you do not have a valid VASP license, you may not use, copy or di
   VRHFIN =S : s2p4                                                             
   LEXCH  = PE                                                                  
   EATOM  =   276.8230 eV,   20.3459 Ry                                         
                                                                                
   TITEL  = PAW_PBE S 06Sep2000                                                 
   LULTRA =        F    use ultrasoft PP ?                                      
   IUNSCR =        1    unscreen: 0-lin 1-nonlin 2-no                           
   RPACOR =    1.500    partial core radius                                     
   POMASS =   32.066; ZVAL   =    6.000    mass and valenz                      
   RCORE  =    1.900    outmost cutoff radius                                   
   RWIGS  =    2.200; RWIGS  =    1.164    wigner-seitz radius (au A)           
   ENMAX  =  258.689; ENMIN  =  194.016 eV                                      
   ICORE  =        2    local potential                                         
   LCOR   =        T    correct aug charges                                     
   LPAW   =        T    paw PP                                                  
   EAUG   =  335.092                                                            
   DEXC   =    0.000                                                            
   RMAX   =    1.942    core radius for proj-oper                               
   RAUG   =    1.300    factor for augmentation sphere                          
   RDEP   =    1.954    radius for radial grids                                 
   RDEPT  =    1.744    core radius for aug-charge                              
                                                                                
   Atomic configuration                                                         
    6 entries                                                                   
     n  l   j            E        occ.                                          
     1  0  0.50     -2405.8406   2.0000                                         
     2  0  0.50      -211.7007   2.0000                                         
     2  1  1.50      -156.4958   6.0000                                         
     3  0  0.50       -17.2562   2.0000                                         
     3  1  0.50        -7.0085   4.0000                                         
     3  2  1.50        -6.8029   0.0000                                         
   Description                                                                  
     l       E           TYP  RCUT    TYP  RCUT                                 
     0    -17.2561641     23  1.900                                             
     0    -15.8743224     23  1.900                                             
     1     -7.0085400     23  1.900                                             
     1     -2.7779785     23  1.900                                             
     2     -6.8029130     23  1.900                                             
  local pseudopotential read in
  partial core-charges read in
  partial kinetic energy density read in
  atomic valenz-charges read in
  non local Contribution for L=           0  read in
    real space projection operators read in
  non local Contribution for L=           0  read in
    real space projection operators read in
  non local Contribution for L=           1  read in
    real space projection operators read in
  non local Contribution for L=           1  read in
    real space projection operators read in
    PAW grid and wavefunctions read in
 
   number of l-projection  operators is LMAX  =           4
   number of lm-projection operators is LMMAX =           8
 
 POTCAR:     PAW_PBE Cu_pv 06Sep2000              
   SHA256 =  cb7b504e2ea725fe1f25c85a9ac77d4012ce94cd394135b722c4e25ec297f1cb Cu
   COPYR  = (c) Copyright 06Sep2000 Georg Kresse                                
   COPYR  = This file is part of the software VASP. Any use, copying, and all ot
   COPYR  = If you do not have a valid VASP license, you may not use, copy or di
   VRHFIN =Cu: d10 p1                                                           
   LEXCH  = PE                                                                  
   EATOM  =  4120.1201 eV,  302.8203 Ry                                         
                                                                                
   TITEL  = PAW_PBE Cu_pv 06Sep2000                                             
   LULTRA =        F    use ultrasoft PP ?                                      
   IUNSCR =        1    unscreen: 0-lin 1-nonlin 2-no                           
   RPACOR =    1.500    partial core radius                                     
   POMASS =   63.546; ZVAL   =   17.000    mass and valenz                      
   RCORE  =    2.000    outmost cutoff radius                                   
   RWIGS  =    2.000; RWIGS  =    1.058    wigner-seitz radius (au A)           
   ENMAX  =  368.648; ENMIN  =  276.486 eV                                      
   RCLOC  =    1.304    cutoff for local pot                                    
   LCOR   =        T    correct aug charges                                     
   LPAW   =        T    paw PP                                                  
   EAUG   =  758.233                                                            
   DEXC   =    0.000                                                            
   RMAX   =    2.046    core radius for proj-oper                               
   RAUG   =    1.300    factor for augmentation sphere                          
   RDEP   =    2.025    radius for radial grids                                 
   RDEPT  =    1.558    core radius for aug-charge                              
                                                                                
   Atomic configuration                                                         
    8 entries                                                                   
     n  l   j            E        occ.                                          
     1  0  0.50     -8850.2467   2.0000                                         
     2  0  0.50     -1062.3498   2.0000                                         
     2  1  1.50      -916.8226   6.0000                                         
     3  0  0.50      -114.6929   2.0000                                         
     3  1  1.50       -72.1325   6.0000                                         
     3  2  2.50        -5.0394  10.0000                                         
     4  0  0.50        -4.6097   1.0000                                         
     4  3  2.50        -1.3606   0.0000                                         
   Description                                                                  
     l       E           TYP  RCUT    TYP  RCUT                                 
     1    -72.1324777     23  1.700                                             
     1     -1.3605826     23  1.700                                             
     2     -5.0393776     23  2.000                                             
     2     -6.3999602     23  2.000                                             
     0     -4.6097062     23  1.800                                             
     0     14.1620818     23  1.800                                             
  local pseudopotential read in
  partial core-charges read in
  partial kinetic energy density read in
  atomic valenz-charges read in
  non local Contribution for L=           1  read in
    real space projection operators read in
  non local Contribution for L=           1  read in
    real space projection operators read in
  non local Contribution for L=           2  read in
    real space projection operators read in
  non local Contribution for L=           2  read in
    real space projection operators read in
  non local Contribution for L=           0  read in
    real space projection operators read in
  non local Contribution for L=           0  read in
    real space projection operators read in
    PAW grid and wavefunctions read in
 
   number of l-projection  operators is LMAX  =           6
   number of lm-projection operators is LMMAX =          18
 
 POTCAR:     PAW_PBE Fe_pv 02Aug2007              
   SHA256 =  5d22e414b1f82158bf2c7ecb8b97b28fd0923e48cadc1c3bf74d524558f5dd32 Fe
   COPYR  = (c) Copyright 02Aug2007 Georg Kresse                                
   COPYR  = This file is part of the software VASP. Any use, copying, and all ot
   COPYR  = If you do not have a valid VASP license, you may not use, copy or di
   VRHFIN =Fe:  3pd7s1                                                          
   LEXCH  = PE                                                                  
   EATOM  =  2457.4239 eV,  180.6156 Ry                                         
                                                                                
   TITEL  = PAW_PBE Fe_pv 02Aug2007                                             
   LULTRA =        F    use ultrasoft PP ?                                      
   IUNSCR =        1    unscreen: 0-lin 1-nonlin 2-no                           
   RPACOR =    1.750    partial core radius                                     
   POMASS =   55.847; ZVAL   =   14.000    mass and valenz                      
   RCORE  =    2.200    outmost cutoff radius                                   
   RWIGS  =    2.200; RWIGS  =    1.164    wigner-seitz radius (au A)           
   ENMAX  =  293.238; ENMIN  =  219.928 eV                                      
   ICORE  =        3    local potential                                         
   LCOR   =        T    correct aug charges                                     
   LPAW   =        T    paw PP                                                  
   EAUG   =  578.342                                                            
   DEXC   =    0.000                                                            
   RMAX   =    2.249    core radius for proj-oper                               
   RAUG   =    1.300    factor for augmentation sphere                          
   RDEP   =    2.296    radius for radial grids                                 
   RDEPT  =    1.766    core radius for aug-charge                              
                                                                                
   Atomic configuration                                                         
    8 entries                                                                   
     n  l   j            E        occ.                                          
     1  0  0.50     -6993.8440   2.0000                                         
     2  0  0.50      -814.6047   2.0000                                         
     2  1  1.50      -693.3689   6.0000                                         
     3  0  0.50       -89.4732   2.0000                                         
     3  1  1.50       -55.6373   6.0000                                         
     3  2  2.50        -3.8151   7.0000                                         
     4  0  0.50        -4.2551   1.0000                                         
     4  3  2.50        -1.3606   0.0000                                         
   Description                                                                  
     l       E           TYP  RCUT    TYP  RCUT                                 
     1    -55.6372668     23  2.000                                             
     1     -5.4423304     23  2.000                                             
     2     -3.8151096     23  2.200                                             
     2     -5.1756922     23  2.200                                             
     0     -4.2550951     23  2.200                                             
     0     27.2116520     23  2.200                                             
     3     -1.3605826     23  2.200                                             
  local pseudopotential read in
  partial core-charges read in
  partial kinetic energy density read in
  atomic valenz-charges read in
  non local Contribution for L=           1  read in
    real space projection operators read in
  non local Contribution for L=           1  read in
    real space projection operators read in
  non local Contribution for L=           2  read in
    real space projection operators read in
  non local Contribution for L=           2  read in
    real space projection operators read in
  non local Contribution for L=           0  read in
    real space projection operators read in
  non local Contribution for L=           0  read in
    real space projection operators read in
    PAW grid and wavefunctions read in
 
   number of l-projection  operators is LMAX  =           6
   number of lm-projection operators is LMMAX =          18
 

 ----------------------------------------------------------------------------- 
|                                                                             |
|  ADVICE TO THIS USER RUNNING 'VASP/VAMP'   (HEAR YOUR MASTER'S VOICE ...):  |
|                                                                             |
|      You have a (more or less) 'large supercell' and for larger cells       |
|      it might be more efficient to use real space projection opertators     |
|      So try LREAL= Auto  in the INCAR   file.                               |
|      Mind:          For very  accurate calculation you might also keep the  |
|      reciprocal projection scheme          (i.e. LREAL=.FALSE.)             |
|                                                                             |
 ----------------------------------------------------------------------------- 


 ----------------------------------------------------------------------------- 
|                                                                             |
|  ADVICE TO THIS USER RUNNING 'VASP/VAMP'   (HEAR YOUR MASTER'S VOICE ...):  |
|                                                                             |
|      You enforced a specific xc-type in the INCAR file,                     |
|      a different type was found on the POTCAR file                          |
|          I HOPE YOU KNOW, WHAT YOU ARE  DOING                               |
|                                                                             |
 ----------------------------------------------------------------------------- 

  PAW_PBE S 06Sep2000                   :
 energy of atom  1       EATOM= -276.8230
 kinetic energy error for atom=    0.0007 (will be added to EATOM!!)
   PAW_PBE Cu_pv 06Sep2000              :
 energy of atom  2       EATOM=-4120.1201
 kinetic energy error for atom=    0.0094 (will be added to EATOM!!)
   PAW_PBE Fe_pv 02Aug2007              :
 energy of atom  3       EATOM=-2457.4239
 kinetic energy error for atom=    0.0025 (will be added to EATOM!!)
 
 
 POSCAR: Fe16 Cu16 S32                           
  positions in direct lattice
  No initial velocities read in
 exchange correlation table for  LEXCH =       14
   RHO(1)=    0.500       N(1)  =     2000
   RHO(2)=  100.500       N(2)  =     4000
 


--------------------------------------------------------------------------------------------------------


 ion  position               nearest neighbor table
   1  0.126  0.122  0.125-  41 2.25  61 2.26  37 2.27  49 2.29
   2  0.626  0.122  0.125-  42 2.25  62 2.26  38 2.27  50 2.29
   3  0.126  0.622  0.125-  43 2.25  63 2.26  39 2.27  51 2.29
   4  0.626  0.622  0.125-  44 2.25  64 2.26  40 2.27  52 2.29
   5  0.374  0.372  0.125-  39 2.25  52 2.26  41 2.27  62 2.29
   6  0.874  0.372  0.125-  40 2.25  51 2.26  42 2.27  61 2.29
   7  0.374  0.872  0.125-  37 2.25  50 2.26  43 2.27  64 2.29
   8  0.874  0.872  0.125-  38 2.25  49 2.26  44 2.27  63 2.29
   9  0.125  0.372  0.875-  41 2.27  45 2.27  51 2.27  55 2.27
  10  0.625  0.372  0.875-  42 2.27  46 2.27  52 2.27  56 2.27
  11  0.125  0.872  0.875-  43 2.27  47 2.27  49 2.27  53 2.27
  12  0.625  0.872  0.875-  44 2.27  48 2.27  50 2.27  54 2.27
  13  0.375  0.124  0.875-  41 2.26  46 2.26  50 2.28  53 2.28
  14  0.875  0.124  0.875-  42 2.26  45 2.26  49 2.28  54 2.28
  15  0.375  0.624  0.875-  43 2.26  48 2.26  52 2.28  55 2.28
  16  0.875  0.624  0.875-  44 2.26  47 2.26  51 2.28  56 2.28
  17  0.124  0.122  0.625-  45 2.25  57 2.26  33 2.27  53 2.29
  18  0.624  0.122  0.625-  46 2.25  58 2.26  34 2.27  54 2.29
  19  0.124  0.622  0.625-  47 2.25  59 2.26  35 2.27  55 2.29
  20  0.624  0.622  0.625-  48 2.25  60 2.26  36 2.27  56 2.29
  21  0.376  0.372  0.625-  36 2.25  55 2.26  46 2.27  57 2.29
  22  0.876  0.372  0.625-  35 2.25  56 2.26  45 2.27  58 2.29
  23  0.376  0.872  0.625-  34 2.25  53 2.26  48 2.27  59 2.29
  24  0.876  0.872  0.625-  33 2.25  54 2.26  47 2.27  60 2.29
  25  0.375  0.122  0.375-  34 2.27  37 2.27  57 2.27  62 2.27
  26  0.875  0.122  0.375-  33 2.27  38 2.27  58 2.27  61 2.27
  27  0.375  0.622  0.375-  36 2.27  39 2.27  59 2.27  64 2.27
  28  0.875  0.622  0.375-  35 2.27  40 2.27  60 2.27  63 2.27
  29  0.125  0.374  0.375-  35 2.26  39 2.26  57 2.28  61 2.28
  30  0.625  0.374  0.375-  36 2.26  40 2.26  58 2.28  62 2.28
  31  0.125  0.874  0.375-  33 2.26  37 2.26  59 2.28  63 2.28
  32  0.625  0.874  0.375-  34 2.26  38 2.26  60 2.28  64 2.28
  33  0.999  0.003  0.500-  24 2.25  31 2.26  26 2.27  17 2.27
  34  0.499  0.003  0.500-  23 2.25  32 2.26  25 2.27  18 2.27
  35  0.999  0.503  0.500-  22 2.25  29 2.26  28 2.27  19 2.27
  36  0.499  0.503  0.500-  21 2.25  30 2.26  27 2.27  20 2.27
  37  0.251  0.003  0.250-   7 2.25  31 2.26  25 2.27   1 2.27
  38  0.751  0.003  0.250-   8 2.25  32 2.26  26 2.27   2 2.27
  39  0.251  0.503  0.250-   5 2.25  29 2.26  27 2.27   3 2.27
  40  0.751  0.503  0.250-   6 2.25  30 2.26  28 2.27   4 2.27
  41  0.249  0.253  0.000-   1 2.25  13 2.26   9 2.27   5 2.27
  42  0.749  0.253  0.000-   2 2.25  14 2.26  10 2.27   6 2.27
  43  0.249  0.753  0.000-   3 2.25  15 2.26  11 2.27   7 2.27
  44  0.749  0.753  0.000-   4 2.25  16 2.26  12 2.27   8 2.27
  45  0.001  0.253  0.750-  17 2.25  14 2.26   9 2.27  22 2.27
  46  0.501  0.253  0.750-  18 2.25  13 2.26  10 2.27  21 2.27
  47  0.001  0.753  0.750-  19 2.25  16 2.26  11 2.27  24 2.27
  48  0.501  0.753  0.750-  20 2.25  15 2.26  12 2.27  23 2.27
  49  0.999  0.003  0.001-   8 2.26  11 2.27  14 2.28   1 2.29
  50  0.499  0.003  0.001-   7 2.26  12 2.27  13 2.28   2 2.29
  51  0.999  0.503  0.001-   6 2.26   9 2.27  16 2.28   3 2.29
  52  0.499  0.503  0.001-   5 2.26  10 2.27  15 2.28   4 2.29
  53  0.251  0.003  0.749-  23 2.26  11 2.27  13 2.28  17 2.29
  54  0.751  0.003  0.749-  24 2.26  12 2.27  14 2.28  18 2.29
  55  0.251  0.503  0.749-  21 2.26   9 2.27  15 2.28  19 2.29
  56  0.751  0.503  0.749-  22 2.26  10 2.27  16 2.28  20 2.29
  57  0.249  0.253  0.501-  17 2.26  25 2.27  29 2.28  21 2.29
  58  0.749  0.253  0.501-  18 2.26  26 2.27  30 2.28  22 2.29
  59  0.249  0.753  0.501-  19 2.26  27 2.27  31 2.28  23 2.29
  60  0.749  0.753  0.501-  20 2.26  28 2.27  32 2.28  24 2.29
  61  0.001  0.253  0.249-   1 2.26  26 2.27  29 2.28   6 2.29
  62  0.501  0.253  0.249-   2 2.26  25 2.27  30 2.28   5 2.29
  63  0.001  0.753  0.249-   3 2.26  28 2.27  31 2.28   8 2.29
  64  0.501  0.753  0.249-   4 2.26  27 2.27  32 2.28   7 2.29
 
  LATTYP: Found a simple monoclinic cell.
 ALAT       =    15.1676593301
 B/A-ratio  =     0.6939629096
 C/A-ratio  =     1.5687027113
 COS(beta)  =    -0.9531623685
  
  Lattice vectors:
  
 A1 = ( -10.7761400000,   0.0000000000, -10.6739260000)
 A2 = (   0.0000000000, -10.5257930000,   0.0000000000)
 A3 = (  11.0483500000,   0.0000000000,  21.0728950000)


Analysis of symmetry for initial positions (statically):
=====================================================================
 Subroutine PRICEL returns following result:
 
  LATTYP: Found a base centered monoclinic cell.
 ALAT       =    11.4059698028
 B/A-ratio  =     0.4614159594
 C/A-ratio  =     0.9120251360
 COS(beta)  =    -0.8062391880
  
  Lattice vectors:
  
 A1 = (  -2.4898775000,  -2.6314482500,   5.1307452500)
 A2 = (  -2.4898775000,   2.6314482500,   5.1307452500)
 A3 = (  -0.2722100000,   0.0000000000, -10.3989690000)
 
   8 primitive cells build up your supercell.
 

 Routine SETGRP: Setting up the symmetry group for a 
 simple monoclinic supercell.


 Subroutine GETGRP returns: Found  2 space group operations
 (whereof  1 operations were pure point group operations)
 out of a pool of  4 trial point group operations.


The static configuration has the point symmetry C_1 .
 The point group associated with its full space group is C_2 .


Analysis of symmetry for dynamics (positions and initial velocities):
=====================================================================
 Subroutine PRICEL returns following result:
 
  LATTYP: Found a base centered monoclinic cell.
 ALAT       =    11.4059698028
 B/A-ratio  =     0.4614159594
 C/A-ratio  =     0.9120251360
 COS(beta)  =    -0.8062391880
  
  Lattice vectors:
  
 A1 = (  -2.4898775000,  -2.6314482500,   5.1307452500)
 A2 = (  -2.4898775000,   2.6314482500,   5.1307452500)
 A3 = (  -0.2722100000,   0.0000000000, -10.3989690000)
 
   8 primitive cells build up your supercell.
 

 Routine SETGRP: Setting up the symmetry group for a 
 simple monoclinic supercell.


 Subroutine GETGRP returns: Found  2 space group operations
 (whereof  1 operations were pure point group operations)
 out of a pool of  4 trial point group operations.


The dynamic configuration has the point symmetry C_1 .
 The point group associated with its full space group is C_2 .


Analysis of structural, dynamic, and magnetic symmetry:
=====================================================================
 Subroutine PRICEL returns following result:
 
  LATTYP: Found a base centered monoclinic cell.
 ALAT       =    11.4059698028
 B/A-ratio  =     0.4614159594
 C/A-ratio  =     0.9120251360
 COS(beta)  =    -0.8062391880
  
  Lattice vectors:
  
 A1 = (  -2.4898775000,  -2.6314482500,   5.1307452500)
 A2 = (  -2.4898775000,   2.6314482500,   5.1307452500)
 A3 = (  -0.2722100000,   0.0000000000, -10.3989690000)
 
   8 primitive cells build up your supercell.
 

 Routine SETGRP: Setting up the symmetry group for a 
 simple monoclinic supercell.


 Subroutine GETGRP returns: Found  2 space group operations
 (whereof  1 operations were pure point group operations)
 out of a pool of  4 trial point group operations.


The magnetic configuration has the point symmetry C_1 .
 The point group associated with its full space group is C_2 .


 Subroutine INISYM returns: Found  2 space group operations
 (whereof  1 operations are pure point group operations),
 and found     8 'primitive' translations

 
 
 KPOINTS: Automatic mesh                          

Automatic generation of k-mesh.
Space group operators:
 irot       det(A)        alpha          n_x          n_y          n_z        tau_x        tau_y        tau_z
    1     1.000000     0.000000     1.000000     0.000000     0.000000     0.000000     0.000000     0.000000
    2     1.000000   180.000000     0.000000     1.000000     0.000000    -0.250000     0.000000    -0.250000
 
 Subroutine IBZKPT returns following result:
 ===========================================
 
 Found      8 irreducible k-points:
 
 Following reciprocal coordinates:
            Coordinates               Weight
  0.000000  0.000000  0.000000      1.000000
  0.500000  0.000000  0.000000      1.000000
  0.000000  0.500000  0.000000      1.000000
  0.500000  0.500000  0.000000      1.000000
 -0.000000  0.000000  0.500000      1.000000
  0.500000  0.000000  0.500000      1.000000
 -0.000000  0.500000  0.500000      1.000000
  0.500000  0.500000  0.500000      1.000000
 
 Following cartesian coordinates:
            Coordinates               Weight
  0.000000  0.000000  0.000000      1.000000
  0.047634  0.000000 -0.001247      1.000000
  0.000000  0.047502  0.000000      1.000000
  0.047634  0.047502 -0.001247      1.000000
 -0.001259  0.000000  0.048115      1.000000
  0.046374  0.000000  0.046868      1.000000
 -0.001259  0.047502  0.048115      1.000000
  0.046374  0.047502  0.046868      1.000000
 
 TETIRR: Found     24 inequivalent tetrahedra from       48
 
 Subroutine IBZKPT_HF returns following result:
 ==============================================
 
 Found      8 k-points in 1st BZ
 the following      8 k-points will be used (e.g. in the exchange kernel)
 Following reciprocal coordinates:   # in IRBZ
  0.000000  0.000000  0.000000    0.12500000   1 t-inv F
  0.500000  0.000000  0.000000    0.12500000   2 t-inv F
  0.000000  0.500000  0.000000    0.12500000   3 t-inv F
  0.500000  0.500000  0.000000    0.12500000   4 t-inv F
 -0.000000  0.000000  0.500000    0.12500000   5 t-inv F
  0.500000  0.000000  0.500000    0.12500000   6 t-inv F
 -0.000000  0.500000  0.500000    0.12500000   7 t-inv F
  0.500000  0.500000  0.500000    0.12500000   8 t-inv F


--------------------------------------------------------------------------------------------------------




 Dimension of arrays:
   k-points           NKPTS =      8   k-points in BZ     NKDIM =      8   number of bands    NBANDS=    512
   number of dos      NEDOS =    301   number of ions     NIONS =     64
   non local maximal  LDIM  =      6   non local SUM 2l+1 LMDIM =     18
   total plane-waves  NPLWV = 829440
   max r-space proj   IRMAX =      1   max aug-charges    IRDMAX=  22941
   dimension x,y,z NGX =    96 NGY =   96 NGZ =   90
   dimension x,y,z NGXF=   192 NGYF=  192 NGZF=  180
   support grid    NGXF=   192 NGYF=  192 NGZF=  180
   ions per type =              32  16  16
   NGX,Y,Z   is equivalent  to a cutoff of  15.19, 15.16, 14.38 a.u.
   NGXF,Y,Z  is equivalent  to a cutoff of  30.38, 30.32, 28.77 a.u.

 SYSTEM =  CuFeS2                                  
 POSCAR =  Fe16 Cu16 S32                           

 Startparameter for this run:
   NWRITE =      2    write-flag & timer
   PREC   = accura    normal or accurate (medium, high low for compatibility)
   ISTART =      0    job   : 0-new  1-cont  2-samecut
   ICHARG =      1    charge: 1-file 2-atom 10-const
   ISPIN  =      2    spin polarized calculation?
   LNONCOLLINEAR =      F non collinear calculations
   LSORBIT =      F    spin-orbit coupling
   INIWAV =      1    electr: 0-lowe 1-rand  2-diag
   LASPH  =      F    aspherical Exc in radial PAW
   METAGGA=      F    non-selfconsistent MetaGGA calc.

 Electronic Relaxation 1
   ENCUT  =  700.0 eV  51.45 Ry    7.17 a.u.  22.67 22.71 22.44*2*pi/ulx,y,z
   ENINI  =  700.0     initial cutoff
   ENAUG  =  758.2 eV  augmentation charge cutoff
   NELM   =    500;   NELMIN=  2; NELMDL=  0     # of ELM steps 
   EDIFF  = 0.1E-07   stopping-criterion for ELM
   LREAL  =      F    real-space projection
   NLSPLINE    = F    spline interpolate recip. space projectors
   LCOMPAT=      F    compatible to vasp.4.4
   GGA_COMPAT  = T    GGA compatible to vasp.4.4-vasp.4.6
   LMAXPAW     = -100 max onsite density
   LMAXMIX     =    4 max onsite mixed and CHGCAR
   VOSKOWN=      0    Vosko Wilk Nusair interpolation
   ROPT   =    0.00000   0.00000   0.00000
 Ionic relaxation
   EDIFFG = -.1E-04   stopping-criterion for IOM
   NSW    =      0    number of steps for IOM
   NBLOCK =      1;   KBLOCK =      1    inner block; outer block 
   IBRION =     -1    ionic relax: 0-MD 1-quasi-New 2-CG
   NFREE  =      0    steps in history (QN), initial steepest desc. (CG)
   ISIF   =      2    stress and relaxation
   IWAVPR =     10    prediction:  0-non 1-charg 2-wave 3-comb
   ISYM   =      2    0-nonsym 1-usesym 2-fastsym
   LCORR  =      T    Harris-Foulkes like correction to forces

   POTIM  = 0.5000    time-step for ionic-motion
   TEIN   =    0.0    initial temperature
   TEBEG  =    0.0;   TEEND  =   0.0 temperature during run
   SMASS  =  -3.00    Nose mass-parameter (am)
   estimated Nose-frequenzy (Omega)   =  0.10E-29 period in steps =****** mass=  -0.252E-26a.u.
   SCALEE = 1.0000    scale energy and forces
   NPACO  =    256;   APACO  = 16.0  distance and # of slots for P.C.
   PSTRESS=    0.0 pullay stress

  Mass of Ions in am
   POMASS =  32.07 63.55 55.85
  Ionic Valenz
   ZVAL   =   6.00 17.00 14.00
  Atomic Wigner-Seitz radii
   RWIGS  =  -1.00 -1.00 -1.00
  virtual crystal weights 
   VCA    =   1.00  1.00  1.00
   NELECT =     688.0000    total number of electrons
   NUPDOWN=      -1.0000    fix difference up-down

 DOS related values:
   EMIN   =  10.00;   EMAX   =-10.00  energy-range for DOS
   EFERMI =   0.00
   ISMEAR =    -5;   SIGMA  =   0.03  broadening in eV -4-tet -1-fermi 0-gaus

 Electronic relaxation 2 (details)
   IALGO  =     38    algorithm
   LDIAG  =      T    sub-space diagonalisation (order eigenvalues)
   LSUBROT=      F    optimize rotation matrix (better conditioning)
   TURBO    =      0    0=normal 1=particle mesh
   IRESTART =      0    0=no restart 2=restart with 2 vectors
   NREBOOT  =      0    no. of reboots
   NMIN     =      0    reboot dimension
   EREF     =   0.00    reference energy to select bands
   IMIX   =      4    mixing-type and parameters
     AMIX     =   0.40;   BMIX     =  1.00
     AMIX_MAG =   1.60;   BMIX_MAG =  1.00
     AMIN     =   0.10
     WC   =   100.;   INIMIX=   1;  MIXPRE=   1;  MAXMIX= -45

 Intra band minimization:
   WEIMIN = 0.0000     energy-eigenvalue tresh-hold
   EBREAK =  0.49E-11  absolut break condition
   DEPER  =   0.30     relativ break condition  

   TIME   =   0.40     timestep for ELM

  volume/ion in A,a.u.               =      17.95       121.15
  Fermi-wavevector in a.u.,A,eV,Ry     =   1.379869  2.607575 25.906021  1.904039
  Thomas-Fermi vector in A             =   2.504799
 
 Write flags
   LWAVE        =      T    write WAVECAR
   LDOWNSAMPLE  =      F    k-point downsampling of WAVECAR
   LCHARG       =      T    write CHGCAR
   LVTOT        =      F    write LOCPOT, total local potential
   LVHAR        =      F    write LOCPOT, Hartree potential only
   LELF         =      F    write electronic localiz. function (ELF)
   LORBIT       =     11    0 simple, 1 ext, 2 COOP (PROOUT), +10 PAW based schemes


 Dipole corrections
   LMONO  =      F    monopole corrections only (constant potential shift)
   LDIPOL =      F    correct potential (dipole corrections)
   IDIPOL =      0    1-x, 2-y, 3-z, 4-all directions 
   EPSILON=  1.0000000 bulk dielectric constant

 LDA+U is selected, type is set to LDAUTYPE =  2
   angular momentum for each species LDAUL =     2    2    2
   U (eV)           for each species LDAUU =   0.0  0.1  4.7
   J (eV)           for each species LDAUJ =   0.0  0.0  0.0
 Exchange correlation treatment:
   GGA     =    PS    GGA type
   LEXCH   =    14    internal setting for exchange type
   VOSKOWN=      0    Vosko Wilk Nusair interpolation
   LHFCALC =     F    Hartree Fock is set to
   LHFONE  =     F    Hartree Fock one center treatment
   AEXX    =    0.0000 exact exchange contribution

 Linear response parameters
   LEPSILON=     F    determine dielectric tensor
   LRPA    =     F    only Hartree local field effects (RPA)
   LNABLA  =     F    use nabla operator in PAW spheres
   LVEL    =     F    velocity operator in full k-point grid
   LINTERFAST=   F  fast interpolation
   KINTER  =     0    interpolate to denser k-point grid
   CSHIFT  =0.1000    complex shift for real part using Kramers Kronig
   OMEGAMAX=  -1.0    maximum frequency
   DEG_THRESHOLD= 0.2000000E-02 threshold for treating states as degnerate
   RTIME   =   -0.100 relaxation time in fs
  (WPLASMAI=    0.000 imaginary part of plasma frequency in eV, 0.658/RTIME)
   DFIELD  = 0.0000000 0.0000000 0.0000000 field for delta impulse in time
 
 Orbital magnetization related:
   ORBITALMAG=     F  switch on orbital magnetization
   LCHIMAG   =     F  perturbation theory with respect to B field
   DQ        =  0.001000  dq finite difference perturbation B field
   LLRAUG    =     F  two centre corrections for induced B field

 PEAD related settings:
   LPEAD      =     T    switch on PEAD
   IPEAD      =     4    finite difference order for dpsi/dk
   LCALCPOL   =     T    calculate macroscopic polarization
   LCALCEPS   =     F    calculate dielectric tensor
   EFIELD_PEAD=    0.0000    0.0000    0.0000
   SKIP_EDOTP =     F
   LRPA       =     F
   SKIP_SCF   =     F


--------------------------------------------------------------------------------------------------------


 Static calculation
 charge density and potential will be updated during run
 spin polarized calculation
 Variant of blocked Davidson
 Davidson routine will perform the subspace rotation
 perform sub-space diagonalisation
    after iterative eigenvector-optimisation
 modified Broyden-mixing scheme, WC =      100.0
 initial mixing is a Kerker type mixing with AMIX =  0.4000 and BMIX =      1.0000
 Hartree-type preconditioning will be used
 using additional bands          168
 reciprocal scheme for non local part
 use partial core corrections
 calculate Harris-corrections to forces 
   (improved forces if not selfconsistent)
 use gradient corrections 
 use of overlap-Matrix (Vanderbilt PP)
 Fermi weights with tetrahedron method with Bloechl corrections


--------------------------------------------------------------------------------------------------------


  energy-cutoff  :      700.00
  volume of cell :     1148.95
      direct lattice vectors                 reciprocal lattice vectors
    10.503930000  0.000000000  0.274957000     0.095267741  0.000000000 -0.002493789
     0.000000000 10.525793000  0.000000000     0.000000000  0.095004718  0.000000000
     0.272210000  0.000000000 10.398969000    -0.002518955  0.000000000  0.096229317

  length of vectors
    10.507528101 10.525793000 10.402531161     0.095300375  0.095004718  0.096262280


 
 k-points in units of 2pi/SCALE and weight: Automatic mesh                          
   0.00000000  0.00000000  0.00000000       0.125
   0.04763387  0.00000000 -0.00124689       0.125
   0.00000000  0.04750236  0.00000000       0.125
   0.04763387  0.04750236 -0.00124689       0.125
  -0.00125948  0.00000000  0.04811466       0.125
   0.04637439  0.00000000  0.04686776       0.125
  -0.00125948  0.04750236  0.04811466       0.125
   0.04637439  0.04750236  0.04686776       0.125
 
 k-points in reciprocal lattice and weights: Automatic mesh                          
   0.00000000  0.00000000  0.00000000       0.125
   0.50000000  0.00000000  0.00000000       0.125
   0.00000000  0.50000000  0.00000000       0.125
   0.50000000  0.50000000  0.00000000       0.125
  -0.00000000  0.00000000  0.50000000       0.125
   0.50000000  0.00000000  0.50000000       0.125
  -0.00000000  0.50000000  0.50000000       0.125
   0.50000000  0.50000000  0.50000000       0.125
 
 position of ions in fractional coordinates (direct lattice) 
   0.12639100  0.12154300  0.12548900
   0.62639100  0.12154300  0.12548900
   0.12639100  0.62154300  0.12548900
   0.62639100  0.62154300  0.12548900
   0.37360900  0.37154300  0.12451100
   0.87360900  0.37154300  0.12451100
   0.37360900  0.87154300  0.12451100
   0.87360900  0.87154300  0.12451100
   0.12500000  0.37219500  0.87500000
   0.62500000  0.37219500  0.87500000
   0.12500000  0.87219500  0.87500000
   0.62500000  0.87219500  0.87500000
   0.37500000  0.12395100  0.87500000
   0.87500000  0.12395100  0.87500000
   0.37500000  0.62395100  0.87500000
   0.87500000  0.62395100  0.87500000
   0.12360900  0.12154300  0.62451100
   0.62360900  0.12154300  0.62451100
   0.12360900  0.62154300  0.62451100
   0.62360900  0.62154300  0.62451100
   0.37639100  0.37154300  0.62548900
   0.87639100  0.37154300  0.62548900
   0.37639100  0.87154300  0.62548900
   0.87639100  0.87154300  0.62548900
   0.37500000  0.12219500  0.37500000
   0.87500000  0.12219500  0.37500000
   0.37500000  0.62219500  0.37500000
   0.87500000  0.62219500  0.37500000
   0.12500000  0.37395100  0.37500000
   0.62500000  0.37395100  0.37500000
   0.12500000  0.87395100  0.37500000
   0.62500000  0.87395100  0.37500000
   0.99853200  0.00268900  0.50003300
   0.49853200  0.00268900  0.50003300
   0.99853200  0.50268900  0.50003300
   0.49853200  0.50268900  0.50003300
   0.25146800  0.00268900  0.24996700
   0.75146800  0.00268900  0.24996700
   0.25146800  0.50268900  0.24996700
   0.75146800  0.50268900  0.24996700
   0.24853200  0.25268900  0.00003300
   0.74853200  0.25268900  0.00003300
   0.24853200  0.75268900  0.00003300
   0.74853200  0.75268900  0.00003300
   0.00146800  0.25268900  0.74996700
   0.50146800  0.25268900  0.74996700
   0.00146800  0.75268900  0.74996700
   0.50146800  0.75268900  0.74996700
   0.99906000  0.00269500  0.00066700
   0.49906000  0.00269500  0.00066700
   0.99906000  0.50269500  0.00066700
   0.49906000  0.50269500  0.00066700
   0.25094000  0.00269500  0.74933300
   0.75094000  0.00269500  0.74933300
   0.25094000  0.50269500  0.74933300
   0.75094000  0.50269500  0.74933300
   0.24906000  0.25269500  0.50066700
   0.74906000  0.25269500  0.50066700
   0.24906000  0.75269500  0.50066700
   0.74906000  0.75269500  0.50066700
   0.00094000  0.25269500  0.24933300
   0.50094000  0.25269500  0.24933300
   0.00094000  0.75269500  0.24933300
   0.50094000  0.75269500  0.24933300
 
 position of ions in cartesian coordinates  (Angst):
   1.36176158  1.27933646  1.33970831
   6.61372658  1.27933646  1.47718681
   1.36176158  6.54223296  1.33970831
   6.61372658  6.54223296  1.47718681
   3.95825592  3.91078471  1.39751244
   9.21022092  3.91078471  1.53499094
   3.95825592  9.17368121  1.39751244
   9.21022092  9.17368121  1.53499094
   1.55117500  3.91764753  9.13346750
   6.80314000  3.91764753  9.27094600
   1.55117500  9.18054403  9.13346750
   6.80314000  9.18054403  9.27094600
   4.17715750  1.30468257  9.20220675
   9.42912250  1.30468257  9.33968525
   4.17715750  6.56757907  9.20220675
   9.42912250  6.56757907  9.33968525
   1.46837842  1.27933646  6.52825769
   6.72034342  1.27933646  6.66573619
   1.46837842  6.54223296  6.52825769
   6.72034342  6.54223296  6.66573619
   4.12384908  3.91078471  6.60793206
   9.37581408  3.91078471  6.74541056
   4.12384908  9.17368121  6.60793206
   9.37581408  9.17368121  6.74541056
   4.04105250  1.28619928  4.00272225
   9.29301750  1.28619928  4.14020075
   4.04105250  6.54909578  4.00272225
   9.29301750  6.54909578  4.14020075
   1.41507000  3.93613082  3.93398300
   6.66703500  3.93613082  4.07146150
   1.41507000  9.19902732  3.93398300
   6.66703500  9.19902732  4.07146150
  10.62462421  0.02830386  5.47438103
   5.37265921  0.02830386  5.33690253
  10.62462421  5.29120036  5.47438103
   5.37265921  5.29120036  5.33690253
   2.70944579  0.02830386  2.66854197
   7.96141079  0.02830386  2.80602047
   2.70944579  5.29120036  2.66854197
   7.96141079  5.29120036  2.80602047
   2.61057171  2.65975211  0.06867878
   7.86253671  2.65975211  0.20615728
   2.61057171  7.92264861  0.06867878
   7.86253671  7.92264861  0.20615728
   0.21956829  2.65975211  7.79928722
   5.47153329  2.65975211  7.93676572
   0.21956829  7.92264861  7.79928722
   5.47153329  7.92264861  7.93676572
  10.49423787  0.02836701  0.28163465
   5.24227287  0.02836701  0.14415615
  10.49423787  5.29126351  0.28163465
   5.24227287  5.29126351  0.14415615
   2.83983213  0.02836701  7.86128835
   8.09179713  0.02836701  7.99876685
   2.83983213  5.29126351  7.86128835
   8.09179713  5.29126351  7.99876685
   2.75239537  2.65981526  5.27490140
   8.00436037  2.65981526  5.41237990
   2.75239537  7.92271176  5.27490140
   8.00436037  7.92271176  5.41237990
   0.07774463  2.65981526  2.59306460
   5.32970963  2.65981526  2.73054310
   0.07774463  7.92271176  2.59306460
   5.32970963  7.92271176  2.73054310
 


--------------------------------------------------------------------------------------------------------


 k-point  1 :   0.0000 0.0000 0.0000  plane waves:   48325
 k-point  2 :   0.5000 0.0000 0.0000  plane waves:   48382
 k-point  3 :   0.0000 0.5000 0.0000  plane waves:   48318
 k-point  4 :   0.5000 0.5000 0.0000  plane waves:   48324
 k-point  5 :  -0.0000 0.0000 0.5000  plane waves:   48338
 k-point  6 :   0.5000 0.0000 0.5000  plane waves:   48336
 k-point  7 :  -0.0000 0.5000 0.5000  plane waves:   48332
 k-point  8 :   0.5000 0.5000 0.5000  plane waves:   48256

 maximum and minimum number of plane-waves per node :     48382    48256

 maximum number of plane-waves:     48382
 maximum index in each direction: 
   IXMAX=   22   IYMAX=   22   IZMAX=   22
   IXMIN=  -23   IYMIN=  -23   IZMIN=  -22


 serial   3D FFT for wavefunctions
 parallel 3D FFT for charge:
    minimum data exchange during FFTs selected (reduces bandwidth)


 total amount of memory used by VASP MPI-rank0   348353. kBytes
=======================================================================

   base      :      30000. kBytes
   nonl-proj :     216760. kBytes
   fftplans  :       4588. kBytes
   grid      :      69719. kBytes
   one-center:       1990. kBytes
   wavefun   :      25296. kBytes
 
     INWAV:  cpu time    0.0000: real time    0.0000
 Broyden mixing: mesh for mixing (old mesh)
   NGX = 45   NGY = 45   NGZ = 45
  (NGX  =192   NGY  =192   NGZ  =180)
  gives a total of  91125 points

 initial charge density was supplied:
 number of electron     688.0000140 magnetization      -0.0000000
 keeping initial charge density in first step


--------------------------------------------------------------------------------------------------------


 Maximum index for augmentation-charges          894 (set IRDMAX)


--------------------------------------------------------------------------------------------------------


 First call to EWALD:  gamma=   0.169
 Maximum number of real-space cells 3x 3x 3
 Maximum number of reciprocal cells 3x 3x 3

    FEWALD:  cpu time    0.0026: real time    0.0030


--------------------------------------- Iteration      1(   1)  ---------------------------------------


    POTLOK:  cpu time    0.3693: real time    0.4188
    SETDIJ:  cpu time    0.0142: real time    0.0144
     EDDAV:  cpu time   83.5576: real time   84.5496
 BZINTS: Fermi energy: 14.512602;688.000000 electrons
         Band energy:***********;  BLOECHL correction: -0.022909
       DOS:  cpu time    0.0407: real time    0.0409
    --------------------------------------------
      LOOP:  cpu time   83.9819: real time   85.0238

 eigenvalue-minimisations  : 16384
 total energy-change (2. order) : 0.5978528E+04  (-0.5193686E+05)
 number of electron     688.0000140 magnetization      -0.0000000
 augmentation part      688.0000140 magnetization      -0.0000000

 Free energy of the ion-electron system (eV)
  ---------------------------------------------------
  alpha Z        PSCENC =      2359.68696471
  Ewald energy   TEWEN  =    -62509.48106878
  -Hartree energ DENC   =    -42589.53635924
  -exchange      EXHF   =         0.00000000
  -V(xc)+E(xc)   XCENC  =      3277.52873385
  PAW double counting   =    112006.03736751  -115694.97744343
  entropy T*S    EENTRO =         0.00000000
  eigenvalues    EBANDS =     -4890.79567571
  atomic energy  EATOM  =    114020.06510763
  Solvation  Ediel_sol  =         0.00000000
  ---------------------------------------------------
  free energy    TOTEN  =      5978.52762654 eV

  energy without entropy =     5978.52762654  energy(sigma->0) =     5978.52762654


--------------------------------------------------------------------------------------------------------




--------------------------------------- Iteration      1(   2)  ---------------------------------------


     EDDAV:  cpu time   99.5019: real time  100.2652
 BZINTS: Fermi energy:  5.011476;688.000000 electrons
         Band energy:***********;  BLOECHL correction: -0.107711
       DOS:  cpu time    0.0356: real time    0.0358
    --------------------------------------------
      LOOP:  cpu time   99.5375: real time  100.3009

 eigenvalue-minimisations  : 18176
 total energy-change (2. order) :-0.6127241E+04  (-0.6022786E+04)
 number of electron     688.0000140 magnetization      -0.0000000
 augmentation part      688.0000140 magnetization      -0.0000000

 Free energy of the ion-electron system (eV)
  ---------------------------------------------------
  alpha Z        PSCENC =      2359.68696471
  Ewald energy   TEWEN  =    -62509.48106878
  -Hartree energ DENC   =    -42589.53635924
  -exchange      EXHF   =         0.00000000
  -V(xc)+E(xc)   XCENC  =      3277.52873385
  PAW double counting   =    112006.03736751  -115694.97744343
  entropy T*S    EENTRO =         0.00000000
  eigenvalues    EBANDS =    -11018.03673157
  atomic energy  EATOM  =    114020.06510763
  Solvation  Ediel_sol  =         0.00000000
  ---------------------------------------------------
  free energy    TOTEN  =      -148.71342931 eV

  energy without entropy =     -148.71342931  energy(sigma->0) =     -148.71342931


--------------------------------------------------------------------------------------------------------




--------------------------------------- Iteration      1(   3)  ---------------------------------------


     EDDAV:  cpu time  152.9550: real time  154.0241
 BZINTS: Fermi energy:  4.695512;688.000000 electrons
         Band energy:***********;  BLOECHL correction:  0.000000
       DOS:  cpu time    0.0122: real time    0.0122
    --------------------------------------------
      LOOP:  cpu time  152.9672: real time  154.0363

 eigenvalue-minimisations  : 22528
 total energy-change (2. order) :-0.2462682E+03  (-0.2455346E+03)
 number of electron     688.0000140 magnetization      -0.0000000
 augmentation part      688.0000140 magnetization      -0.0000000

 Free energy of the ion-electron system (eV)
  ---------------------------------------------------
  alpha Z        PSCENC =      2359.68696471
  Ewald energy   TEWEN  =    -62509.48106878
  -Hartree energ DENC   =    -42589.53635924
  -exchange      EXHF   =         0.00000000
  -V(xc)+E(xc)   XCENC  =      3277.52873385
  PAW double counting   =    112006.03736751  -115694.97744343
  entropy T*S    EENTRO =         0.00000000
  eigenvalues    EBANDS =    -11264.30496335
  atomic energy  EATOM  =    114020.06510763
  Solvation  Ediel_sol  =         0.00000000
  ---------------------------------------------------
  free energy    TOTEN  =      -394.98166109 eV

  energy without entropy =     -394.98166109  energy(sigma->0) =     -394.98166109


--------------------------------------------------------------------------------------------------------




--------------------------------------- Iteration      1(   4)  ---------------------------------------


     EDDAV:  cpu time  127.1926: real time  128.1044
 BZINTS: Fermi energy:  4.694950;688.000000 electrons
         Band energy:***********;  BLOECHL correction:  0.000000
       DOS:  cpu time    0.0120: real time    0.0120
    --------------------------------------------
      LOOP:  cpu time  127.2045: real time  128.1164

 eigenvalue-minimisations  : 19968
 total energy-change (2. order) :-0.3418011E+01  (-0.3417853E+01)
 number of electron     688.0000140 magnetization      -0.0000000
 augmentation part      688.0000140 magnetization      -0.0000000

 Free energy of the ion-electron system (eV)
  ---------------------------------------------------
  alpha Z        PSCENC =      2359.68696471
  Ewald energy   TEWEN  =    -62509.48106878
  -Hartree energ DENC   =    -42589.53635924
  -exchange      EXHF   =         0.00000000
  -V(xc)+E(xc)   XCENC  =      3277.52873385
  PAW double counting   =    112006.03736751  -115694.97744343
  entropy T*S    EENTRO =         0.00000000
  eigenvalues    EBANDS =    -11267.72297414
  atomic energy  EATOM  =    114020.06510763
  Solvation  Ediel_sol  =         0.00000000
  ---------------------------------------------------
  free energy    TOTEN  =      -398.39967189 eV

  energy without entropy =     -398.39967189  energy(sigma->0) =     -398.39967189


--------------------------------------------------------------------------------------------------------




--------------------------------------- Iteration      1(   5)  ---------------------------------------


     EDDAV:  cpu time  142.1879: real time  143.1876
 BZINTS: Fermi energy:  4.693912;688.000000 electrons
         Band energy:***********;  BLOECHL correction:  0.000000
       DOS:  cpu time    0.0094: real time    0.0095
    CHARGE:  cpu time    1.4066: real time    1.4151
    MIXING:  cpu time    0.0024: real time    0.0024
    --------------------------------------------
      LOOP:  cpu time  143.6062: real time  144.6146

 eigenvalue-minimisations  : 21248
 total energy-change (2. order) :-0.1085875E+00  (-0.1085870E+00)
 number of electron     688.0000053 magnetization      -0.0000000
 augmentation part      287.4502651 magnetization      -0.0000000

 Broyden mixing:
  rms(total) = 0.66490E+01    rms(broyden)= 0.66483E+01
  rms(prec ) = 0.74664E+01
  weight for this iteration     100.00

 Free energy of the ion-electron system (eV)
  ---------------------------------------------------
  alpha Z        PSCENC =      2359.68696471
  Ewald energy   TEWEN  =    -62509.48106878
  -Hartree energ DENC   =    -42589.53635924
  -exchange      EXHF   =         0.00000000
  -V(xc)+E(xc)   XCENC  =      3277.52873385
  PAW double counting   =    112006.03736751  -115694.97744343
  entropy T*S    EENTRO =         0.00000000
  eigenvalues    EBANDS =    -11267.83156164
  atomic energy  EATOM  =    114020.06510763
  Solvation  Ediel_sol  =         0.00000000
  ---------------------------------------------------
  free energy    TOTEN  =      -398.50825938 eV

  energy without entropy =     -398.50825938  energy(sigma->0) =     -398.50825938


--------------------------------------------------------------------------------------------------------




--------------------------------------- Iteration      1(   6)  ---------------------------------------


    POTLOK:  cpu time    0.1210: real time    0.1220
    SETDIJ:  cpu time    0.0127: real time    0.0127
     EDDAV:  cpu time  149.1917: real time  150.2476
 BZINTS: Fermi energy:  5.100081;688.000000 electrons
         Band energy:***********;  BLOECHL correction:  0.000000
       DOS:  cpu time    0.0061: real time    0.0061
    CHARGE:  cpu time    1.4048: real time    1.4132
    MIXING:  cpu time    0.0027: real time    0.0714
    --------------------------------------------
      LOOP:  cpu time  150.7390: real time  151.8731

 eigenvalue-minimisations  : 23040
 total energy-change (2. order) : 0.5279416E+02  (-0.8602772E+01)
 number of electron     688.0000051 magnetization      -0.0000000
 augmentation part      278.8432210 magnetization      -0.0000000

 Broyden mixing:
  rms(total) = 0.39507E+01    rms(broyden)= 0.39506E+01
  rms(prec ) = 0.44023E+01
  weight for this iteration     100.00

 eigenvalues of (default mixing * dielectric matrix)
  average eigenvalue GAMMA=   0.6816
  0.6816

 Free energy of the ion-electron system (eV)
  ---------------------------------------------------
  alpha Z        PSCENC =      2359.68696471
  Ewald energy   TEWEN  =    -62509.48106878
  -Hartree energ DENC   =    -43072.16420191
  -exchange      EXHF   =         0.00000000
  -V(xc)+E(xc)   XCENC  =      3288.50924323
  PAW double counting   =    117653.21071678  -121403.90905603
  entropy T*S    EENTRO =         0.00000000
  eigenvalues    EBANDS =    -10681.63180106
  atomic energy  EATOM  =    114020.06510763
  Solvation  Ediel_sol  =         0.00000000
  ---------------------------------------------------
  free energy    TOTEN  =      -345.71409543 eV

  energy without entropy =     -345.71409543  energy(sigma->0) =     -345.71409543


--------------------------------------------------------------------------------------------------------




--------------------------------------- Iteration      1(   7)  ---------------------------------------


    POTLOK:  cpu time    0.1201: real time    0.1211
    SETDIJ:  cpu time    0.0127: real time    0.0128
     EDDAV:  cpu time  124.2006: real time  125.1101
 BZINTS: Fermi energy:  4.965630;688.000000 electrons
         Band energy:***********;  BLOECHL correction:  0.000000
       DOS:  cpu time    0.0051: real time    0.0052
    CHARGE:  cpu time    1.4047: real time    1.4132
    MIXING:  cpu time    0.0015: real time    0.0093
    --------------------------------------------
      LOOP:  cpu time  125.7447: real time  126.6715

 eigenvalue-minimisations  : 20480
 total energy-change (2. order) : 0.1368855E+02  (-0.4434429E+01)
 number of electron     688.0000051 magnetization      -0.0000000
 augmentation part      283.5359719 magnetization      -0.0000000

 Broyden mixing:
  rms(total) = 0.32858E+01    rms(broyden)= 0.32858E+01
  rms(prec ) = 0.34893E+01
  weight for this iteration     100.00

 eigenvalues of (default mixing * dielectric matrix)
  average eigenvalue GAMMA=   0.8212
  1.1968  0.4457

 Free energy of the ion-electron system (eV)
  ---------------------------------------------------
  alpha Z        PSCENC =      2359.68696471
  Ewald energy   TEWEN  =    -62509.48106878
  -Hartree energ DENC   =    -42841.26181629
  -exchange      EXHF   =         0.00000000
  -V(xc)+E(xc)   XCENC  =      3285.47153660
  PAW double counting   =    116741.38228387  -120427.71143041
  entropy T*S    EENTRO =         0.00000000
  eigenvalues    EBANDS =    -10960.17712170
  atomic energy  EATOM  =    114020.06510763
  Solvation  Ediel_sol  =         0.00000000
  ---------------------------------------------------
  free energy    TOTEN  =      -332.02554438 eV

  energy without entropy =     -332.02554438  energy(sigma->0) =     -332.02554438


--------------------------------------------------------------------------------------------------------




--------------------------------------- Iteration      1(   8)  ---------------------------------------


    POTLOK:  cpu time    0.1196: real time    0.1222
    SETDIJ:  cpu time    0.0127: real time    0.0128
     EDDAV:  cpu time  165.1441: real time  166.2794
 BZINTS: Fermi energy:  4.877435;688.000000 electrons
         Band energy:***********;  BLOECHL correction:  0.000000
       DOS:  cpu time    0.0060: real time    0.0060
    CHARGE:  cpu time    1.4019: real time    1.4107
    MIXING:  cpu time    0.0013: real time    0.0013
    --------------------------------------------
      LOOP:  cpu time  166.6856: real time  167.8324

 eigenvalue-minimisations  : 23552
 total energy-change (2. order) : 0.3608776E+01  (-0.2357272E+01)
 number of electron     688.0000053 magnetization      -0.0000000
 augmentation part      283.6507998 magnetization      -0.0000000

 Broyden mixing:
  rms(total) = 0.12309E+01    rms(broyden)= 0.12308E+01
  rms(prec ) = 0.13610E+01
  weight for this iteration     100.00

 eigenvalues of (default mixing * dielectric matrix)
  average eigenvalue GAMMA=   0.9970
  1.8170  0.7049  0.4691

 Free energy of the ion-electron system (eV)
  ---------------------------------------------------
  alpha Z        PSCENC =      2359.68696471
  Ewald energy   TEWEN  =    -62509.48106878
  -Hartree energ DENC   =    -42826.60272333
  -exchange      EXHF   =         0.00000000
  -V(xc)+E(xc)   XCENC  =      3283.76379707
  PAW double counting   =    115369.85438002  -119056.07446218
  entropy T*S    EENTRO =         0.00000000
  eigenvalues    EBANDS =    -10969.62876381
  atomic energy  EATOM  =    114020.06510763
  Solvation  Ediel_sol  =         0.00000000
  ---------------------------------------------------
  free energy    TOTEN  =      -328.41676867 eV

  energy without entropy =     -328.41676867  energy(sigma->0) =     -328.41676867


--------------------------------------------------------------------------------------------------------




--------------------------------------- Iteration      1(   9)  ---------------------------------------


    POTLOK:  cpu time    0.1196: real time    0.1218
    SETDIJ:  cpu time    0.0127: real time    0.0128
     EDDAV:  cpu time  149.0327: real time  150.0690
 BZINTS: Fermi energy:  5.008322;688.000000 electrons
         Band energy:***********;  BLOECHL correction:  0.000000
       DOS:  cpu time    0.0059: real time    0.0059
    CHARGE:  cpu time    1.4018: real time    1.4102
    MIXING:  cpu time    0.0014: real time    0.0014
    --------------------------------------------
      LOOP:  cpu time  150.5742: real time  151.6212

 eigenvalue-minimisations  : 21760
 total energy-change (2. order) : 0.4644274E+00  (-0.1202864E+01)
 number of electron     688.0000052 magnetization      -0.0000000
 augmentation part      282.0642905 magnetization      -0.0000000

 Broyden mixing:
  rms(total) = 0.95126E+00    rms(broyden)= 0.95123E+00
  rms(prec ) = 0.11002E+01
  weight for this iteration     100.00

 eigenvalues of (default mixing * dielectric matrix)
  average eigenvalue GAMMA=   0.8991
  1.8208  0.8027  0.5729  0.4001

 Free energy of the ion-electron system (eV)
  ---------------------------------------------------
  alpha Z        PSCENC =      2359.68696471
  Ewald energy   TEWEN  =    -62509.48106878
  -Hartree energ DENC   =    -42966.36630336
  -exchange      EXHF   =         0.00000000
  -V(xc)+E(xc)   XCENC  =      3288.19802526
  PAW double counting   =    114460.35648081  -118160.70124955
  entropy T*S    EENTRO =         0.00000000
  eigenvalues    EBANDS =    -10819.71029799
  atomic energy  EATOM  =    114020.06510763
  Solvation  Ediel_sol  =         0.00000000
  ---------------------------------------------------
  free energy    TOTEN  =      -327.95234127 eV

  energy without entropy =     -327.95234127  energy(sigma->0) =     -327.95234127


--------------------------------------------------------------------------------------------------------




--------------------------------------- Iteration      1(  10)  ---------------------------------------


    POTLOK:  cpu time    0.1208: real time    0.1217
    SETDIJ:  cpu time    0.0127: real time    0.0128
     EDDAV:  cpu time  169.4035: real time  170.5596
 BZINTS: Fermi energy:  4.940485;688.000000 electrons
         Band energy:***********;  BLOECHL correction:  0.000000
       DOS:  cpu time    0.0059: real time    0.0059
    CHARGE:  cpu time    1.4042: real time    1.4129
    MIXING:  cpu time    0.0017: real time    0.0134
    --------------------------------------------
      LOOP:  cpu time  170.9489: real time  172.1262

 eigenvalue-minimisations  : 23552
 total energy-change (2. order) : 0.1636540E+00  (-0.8077564E+00)
 number of electron     688.0000053 magnetization       0.0000000
 augmentation part      281.8573717 magnetization       0.0000000

 Broyden mixing:
  rms(total) = 0.59339E+00    rms(broyden)= 0.59336E+00
  rms(prec ) = 0.68598E+00
  weight for this iteration     100.00

 eigenvalues of (default mixing * dielectric matrix)
  average eigenvalue GAMMA=   0.9864
  1.7266  1.7266  0.6022  0.5683  0.3085

 Free energy of the ion-electron system (eV)
  ---------------------------------------------------
  alpha Z        PSCENC =      2359.68696471
  Ewald energy   TEWEN  =    -62509.48106878
  -Hartree energ DENC   =    -42935.25517210
  -exchange      EXHF   =         0.00000000
  -V(xc)+E(xc)   XCENC  =      3286.34894709
  PAW double counting   =    113871.18640428  -117567.71315592
  entropy T*S    EENTRO =         0.00000000
  eigenvalues    EBANDS =    -10852.62671413
  atomic energy  EATOM  =    114020.06510763
  Solvation  Ediel_sol  =         0.00000000
  ---------------------------------------------------
  free energy    TOTEN  =      -327.78868723 eV

  energy without entropy =     -327.78868723  energy(sigma->0) =     -327.78868723


--------------------------------------------------------------------------------------------------------




--------------------------------------- Iteration      1(  11)  ---------------------------------------


    POTLOK:  cpu time    0.1184: real time    0.1216
    SETDIJ:  cpu time    0.0126: real time    0.0127
     EDDAV:  cpu time  109.7758: real time  110.5970
 BZINTS: Fermi energy:  4.947638;688.000000 electrons
         Band energy:***********;  BLOECHL correction:  0.000000
       DOS:  cpu time    0.0059: real time    0.0060
    CHARGE:  cpu time    1.4051: real time    1.4144
    MIXING:  cpu time    0.0015: real time    0.0015
    --------------------------------------------
      LOOP:  cpu time  111.3193: real time  112.1531

 eigenvalue-minimisations  : 18944
 total energy-change (2. order) : 0.2744981E-01  (-0.9062123E-01)
 number of electron     688.0000053 magnetization       0.0000000
 augmentation part      282.2102060 magnetization       0.0000000

 Broyden mixing:
  rms(total) = 0.21347E+00    rms(broyden)= 0.21347E+00
  rms(prec ) = 0.23800E+00
  weight for this iteration     100.00

 eigenvalues of (default mixing * dielectric matrix)
  average eigenvalue GAMMA=   1.0695
  2.0489  2.0489  0.7580  0.6172  0.6172  0.3269

 Free energy of the ion-electron system (eV)
  ---------------------------------------------------
  alpha Z        PSCENC =      2359.68696471
  Ewald energy   TEWEN  =    -62509.48106878
  -Hartree energ DENC   =    -42922.16432517
  -exchange      EXHF   =         0.00000000
  -V(xc)+E(xc)   XCENC  =      3286.42665971
  PAW double counting   =    112961.39812614  -116653.66180474
  entropy T*S    EENTRO =         0.00000000
  eigenvalues    EBANDS =    -10870.03089692
  atomic energy  EATOM  =    114020.06510763
  Solvation  Ediel_sol  =         0.00000000
  ---------------------------------------------------
  free energy    TOTEN  =      -327.76123742 eV

  energy without entropy =     -327.76123742  energy(sigma->0) =     -327.76123742


--------------------------------------------------------------------------------------------------------




--------------------------------------- Iteration      1(  12)  ---------------------------------------


    POTLOK:  cpu time    0.1209: real time    0.1219
    SETDIJ:  cpu time    0.0128: real time    0.0128
     EDDAV:  cpu time  204.7682: real time  206.1492
 BZINTS: Fermi energy:  4.956269;688.000000 electrons
         Band energy:***********;  BLOECHL correction:  0.000000
       DOS:  cpu time    0.0059: real time    0.0059
    CHARGE:  cpu time    1.4237: real time    1.4327
    MIXING:  cpu time    0.0016: real time    0.0017
    --------------------------------------------
      LOOP:  cpu time  206.3332: real time  207.7242

 eigenvalue-minimisations  : 27648
 total energy-change (2. order) :-0.4152005E-01  (-0.3108118E-01)
 number of electron     688.0000053 magnetization       0.0000000
 augmentation part      282.2389440 magnetization       0.0000000

 Broyden mixing:
  rms(total) = 0.10018E+00    rms(broyden)= 0.10017E+00
  rms(prec ) = 0.11022E+00
  weight for this iteration     100.00

 eigenvalues of (default mixing * dielectric matrix)
  average eigenvalue GAMMA=   1.1245
  2.2607  2.2607  1.0949  0.6933  0.6167  0.6167  0.3288

 Free energy of the ion-electron system (eV)
  ---------------------------------------------------
  alpha Z        PSCENC =      2359.68696471
  Ewald energy   TEWEN  =    -62509.48106878
  -Hartree energ DENC   =    -42928.21442259
  -exchange      EXHF   =         0.00000000
  -V(xc)+E(xc)   XCENC  =      3286.61356562
  PAW double counting   =    112541.65931004  -116235.40824821
  entropy T*S    EENTRO =         0.00000000
  eigenvalues    EBANDS =    -10862.72396589
  atomic energy  EATOM  =    114020.06510763
  Solvation  Ediel_sol  =         0.00000000
  ---------------------------------------------------
  free energy    TOTEN  =      -327.80275747 eV

  energy without entropy =     -327.80275747  energy(sigma->0) =     -327.80275747


--------------------------------------------------------------------------------------------------------




--------------------------------------- Iteration      1(  13)  ---------------------------------------


    POTLOK:  cpu time    0.1186: real time    0.1209
    SETDIJ:  cpu time    0.0126: real time    0.0127
     EDDAV:  cpu time  102.7023: real time  103.4773
 BZINTS: Fermi energy:  4.954369;688.000000 electrons
         Band energy:***********;  BLOECHL correction:  0.000000
       DOS:  cpu time    0.0060: real time    0.0060
    CHARGE:  cpu time    1.4035: real time    1.4129
    MIXING:  cpu time    0.0017: real time    0.0017
    --------------------------------------------
      LOOP:  cpu time  104.2448: real time  105.0315

 eigenvalue-minimisations  : 17920
 total energy-change (2. order) :-0.1626666E-01  (-0.6366207E-02)
 number of electron     688.0000053 magnetization       0.0000000
 augmentation part      282.2260290 magnetization       0.0000000

 Broyden mixing:
  rms(total) = 0.40329E-01    rms(broyden)= 0.40325E-01
  rms(prec ) = 0.42814E-01
  weight for this iteration     100.00

 eigenvalues of (default mixing * dielectric matrix)
  average eigenvalue GAMMA=   1.1374
  2.3282  2.3282  1.3303  0.8813  0.6781  0.6123  0.6123  0.3288

 Free energy of the ion-electron system (eV)
  ---------------------------------------------------
  alpha Z        PSCENC =      2359.68696471
  Ewald energy   TEWEN  =    -62509.48106878
  -Hartree energ DENC   =    -42927.29920790
  -exchange      EXHF   =         0.00000000
  -V(xc)+E(xc)   XCENC  =      3286.57165041
  PAW double counting   =    112327.96012011  -116021.45728219
  entropy T*S    EENTRO =         0.00000000
  eigenvalues    EBANDS =    -10863.86530812
  atomic energy  EATOM  =    114020.06510763
  Solvation  Ediel_sol  =         0.00000000
  ---------------------------------------------------
  free energy    TOTEN  =      -327.81902413 eV

  energy without entropy =     -327.81902413  energy(sigma->0) =     -327.81902413


--------------------------------------------------------------------------------------------------------




--------------------------------------- Iteration      1(  14)  ---------------------------------------


    POTLOK:  cpu time    0.1199: real time    0.1212
    SETDIJ:  cpu time    0.0127: real time    0.0127
     EDDAV:  cpu time  161.3725: real time  162.4765
 BZINTS: Fermi energy:  4.954804;688.000000 electrons
         Band energy:***********;  BLOECHL correction:  0.000000
       DOS:  cpu time    0.0061: real time    0.0062
    CHARGE:  cpu time    1.4067: real time    1.4151
    MIXING:  cpu time    0.0019: real time    0.0019
    --------------------------------------------
      LOOP:  cpu time  162.9198: real time  164.0336

 eigenvalue-minimisations  : 22528
 total energy-change (2. order) :-0.4826536E-02  (-0.1105250E-02)
 number of electron     688.0000053 magnetization       0.0000000
 augmentation part      282.2272352 magnetization       0.0000000

 Broyden mixing:
  rms(total) = 0.24326E-01    rms(broyden)= 0.24324E-01
  rms(prec ) = 0.25486E-01
  weight for this iteration     100.00

 eigenvalues of (default mixing * dielectric matrix)
  average eigenvalue GAMMA=   1.1681
  2.4062  2.4062  1.5659  1.2025  0.3288  0.6126  0.6126  0.7408  0.6377

 Free energy of the ion-electron system (eV)
  ---------------------------------------------------
  alpha Z        PSCENC =      2359.68696471
  Ewald energy   TEWEN  =    -62509.48106878
  -Hartree energ DENC   =    -42927.89422310
  -exchange      EXHF   =         0.00000000
  -V(xc)+E(xc)   XCENC  =      3286.60007949
  PAW double counting   =    112286.94232927  -115980.76971428
  entropy T*S    EENTRO =         0.00000000
  eigenvalues    EBANDS =    -10862.97332560
  atomic energy  EATOM  =    114020.06510763
  Solvation  Ediel_sol  =         0.00000000
  ---------------------------------------------------
  free energy    TOTEN  =      -327.82385066 eV

  energy without entropy =     -327.82385066  energy(sigma->0) =     -327.82385066


--------------------------------------------------------------------------------------------------------




--------------------------------------- Iteration      1(  15)  ---------------------------------------


    POTLOK:  cpu time    0.1340: real time    0.1350
    SETDIJ:  cpu time    0.0160: real time    0.0161
     EDDAV:  cpu time  139.1071: real time  140.1038
 BZINTS: Fermi energy:  4.955171;688.000000 electrons
         Band energy:***********;  BLOECHL correction:  0.000000
       DOS:  cpu time    0.0059: real time    0.0060
    CHARGE:  cpu time    1.4066: real time    1.4166
    MIXING:  cpu time    0.0017: real time    0.0017
    --------------------------------------------
      LOOP:  cpu time  140.6715: real time  141.6792

 eigenvalue-minimisations  : 22016
 total energy-change (2. order) :-0.2410950E-02  (-0.5414589E-03)
 number of electron     688.0000053 magnetization       0.0000000
 augmentation part      282.2201264 magnetization       0.0000000

 Broyden mixing:
  rms(total) = 0.14105E-01    rms(broyden)= 0.14104E-01
  rms(prec ) = 0.14902E-01
  weight for this iteration     100.00

 eigenvalues of (default mixing * dielectric matrix)
  average eigenvalue GAMMA=   1.2171
  2.9220  2.2128  1.9038  1.1319  1.1319  0.3288  0.6097  0.6097  0.6965  0.6242

 Free energy of the ion-electron system (eV)
  ---------------------------------------------------
  alpha Z        PSCENC =      2359.68696471
  Ewald energy   TEWEN  =    -62509.48106878
  -Hartree energ DENC   =    -42928.24753843
  -exchange      EXHF   =         0.00000000
  -V(xc)+E(xc)   XCENC  =      3286.60139643
  PAW double counting   =    112274.05395086  -115967.80823652
  entropy T*S    EENTRO =         0.00000000
  eigenvalues    EBANDS =    -10862.69683751
  atomic energy  EATOM  =    114020.06510763
  Solvation  Ediel_sol  =         0.00000000
  ---------------------------------------------------
  free energy    TOTEN  =      -327.82626161 eV

  energy without entropy =     -327.82626161  energy(sigma->0) =     -327.82626161


--------------------------------------------------------------------------------------------------------




--------------------------------------- Iteration      1(  16)  ---------------------------------------


    POTLOK:  cpu time    0.1207: real time    0.1217
    SETDIJ:  cpu time    0.0127: real time    0.0128
     EDDAV:  cpu time  163.9257: real time  165.0400
 BZINTS: Fermi energy:  4.955238;688.000000 electrons
         Band energy:***********;  BLOECHL correction:  0.000000
       DOS:  cpu time    0.0059: real time    0.0060
    CHARGE:  cpu time    1.4020: real time    1.4107
    MIXING:  cpu time    0.0019: real time    0.0154
    --------------------------------------------
      LOOP:  cpu time  165.4690: real time  166.6066

 eigenvalue-minimisations  : 22528
 total energy-change (2. order) :-0.1231252E-02  (-0.4240236E-03)
 number of electron     688.0000053 magnetization       0.0000000
 augmentation part      282.2281961 magnetization       0.0000000

 Broyden mixing:
  rms(total) = 0.87716E-02    rms(broyden)= 0.87700E-02
  rms(prec ) = 0.95481E-02
  weight for this iteration     100.00

 eigenvalues of (default mixing * dielectric matrix)
  average eigenvalue GAMMA=   1.2798
  3.4216  2.1378  2.1378  1.3470  1.3470  0.3288  0.8163  0.6078  0.6078  0.7067
  0.6194

 Free energy of the ion-electron system (eV)
  ---------------------------------------------------
  alpha Z        PSCENC =      2359.68696471
  Ewald energy   TEWEN  =    -62509.48106878
  -Hartree energ DENC   =    -42928.00915985
  -exchange      EXHF   =         0.00000000
  -V(xc)+E(xc)   XCENC  =      3286.60155088
  PAW double counting   =    112263.88413441  -115957.57247324
  entropy T*S    EENTRO =         0.00000000
  eigenvalues    EBANDS =    -10863.00254862
  atomic energy  EATOM  =    114020.06510763
  Solvation  Ediel_sol  =         0.00000000
  ---------------------------------------------------
  free energy    TOTEN  =      -327.82749287 eV

  energy without entropy =     -327.82749287  energy(sigma->0) =     -327.82749287


--------------------------------------------------------------------------------------------------------




--------------------------------------- Iteration      1(  17)  ---------------------------------------


    POTLOK:  cpu time    0.1199: real time    0.1208
    SETDIJ:  cpu time    0.0124: real time    0.0125
     EDDAV:  cpu time  103.9306: real time  104.7086
 BZINTS: Fermi energy:  4.955048;688.000000 electrons
         Band energy:***********;  BLOECHL correction:  0.000000
       DOS:  cpu time    0.0059: real time    0.0059
    CHARGE:  cpu time    1.4032: real time    1.4117
    MIXING:  cpu time    0.0019: real time    0.0019
    --------------------------------------------
      LOOP:  cpu time  105.4739: real time  106.2614

 eigenvalue-minimisations  : 17920
 total energy-change (2. order) :-0.3856218E-03  (-0.2055723E-03)
 number of electron     688.0000053 magnetization       0.0000000
 augmentation part      282.2244037 magnetization       0.0000000

 Broyden mixing:
  rms(total) = 0.44997E-02    rms(broyden)= 0.44980E-02
  rms(prec ) = 0.48020E-02
  weight for this iteration     100.00

 eigenvalues of (default mixing * dielectric matrix)
  average eigenvalue GAMMA=   1.3565
  4.0653  2.3378  2.3378  1.4531  1.4531  1.0386  0.3288  0.6081  0.6081  0.7355
  0.7029  0.6087

 Free energy of the ion-electron system (eV)
  ---------------------------------------------------
  alpha Z        PSCENC =      2359.68696471
  Ewald energy   TEWEN  =    -62509.48106878
  -Hartree energ DENC   =    -42928.07165694
  -exchange      EXHF   =         0.00000000
  -V(xc)+E(xc)   XCENC  =      3286.60106746
  PAW double counting   =    112275.63514169  -115969.31332147
  entropy T*S    EENTRO =         0.00000000
  eigenvalues    EBANDS =    -10862.95011279
  atomic energy  EATOM  =    114020.06510763
  Solvation  Ediel_sol  =         0.00000000
  ---------------------------------------------------
  free energy    TOTEN  =      -327.82787849 eV

  energy without entropy =     -327.82787849  energy(sigma->0) =     -327.82787849


--------------------------------------------------------------------------------------------------------




--------------------------------------- Iteration      1(  18)  ---------------------------------------


    POTLOK:  cpu time    0.1202: real time    0.1212
    SETDIJ:  cpu time    0.0126: real time    0.0127
     EDDAV:  cpu time  167.6687: real time  168.8011
 BZINTS: Fermi energy:  4.955010;688.000000 electrons
         Band energy:***********;  BLOECHL correction:  0.000000
       DOS:  cpu time    0.0059: real time    0.0060
    CHARGE:  cpu time    1.4014: real time    1.4102
    MIXING:  cpu time    0.0020: real time    0.0020
    --------------------------------------------
      LOOP:  cpu time  169.2109: real time  170.3530

 eigenvalue-minimisations  : 23040
 total energy-change (2. order) :-0.7886189E-04  (-0.5297413E-04)
 number of electron     688.0000053 magnetization       0.0000000
 augmentation part      282.2254455 magnetization       0.0000000

 Broyden mixing:
  rms(total) = 0.22206E-02    rms(broyden)= 0.22196E-02
  rms(prec ) = 0.24648E-02
  weight for this iteration     100.00

 eigenvalues of (default mixing * dielectric matrix)
  average eigenvalue GAMMA=   1.3503
  4.1755  2.4194  2.4194  1.7549  1.1965  1.1965  0.3288  0.8507  0.6066  0.6066
  0.7392  0.6048  0.6553

 Free energy of the ion-electron system (eV)
  ---------------------------------------------------
  alpha Z        PSCENC =      2359.68696471
  Ewald energy   TEWEN  =    -62509.48106878
  -Hartree energ DENC   =    -42927.99942309
  -exchange      EXHF   =         0.00000000
  -V(xc)+E(xc)   XCENC  =      3286.59830727
  PAW double counting   =    112285.74291720  -115979.39381252
  entropy T*S    EENTRO =         0.00000000
  eigenvalues    EBANDS =    -10863.04694977
  atomic energy  EATOM  =    114020.06510763
  Solvation  Ediel_sol  =         0.00000000
  ---------------------------------------------------
  free energy    TOTEN  =      -327.82795735 eV

  energy without entropy =     -327.82795735  energy(sigma->0) =     -327.82795735


--------------------------------------------------------------------------------------------------------




--------------------------------------- Iteration      1(  19)  ---------------------------------------


    POTLOK:  cpu time    0.1198: real time    0.1207
    SETDIJ:  cpu time    0.0127: real time    0.0128
     EDDAV:  cpu time   94.3068: real time   95.0223
 BZINTS: Fermi energy:  4.955060;688.000000 electrons
         Band energy:***********;  BLOECHL correction:  0.000000
       DOS:  cpu time    0.0059: real time    0.0060
    CHARGE:  cpu time    1.4029: real time    1.4124
    MIXING:  cpu time    0.0021: real time    0.0021
    --------------------------------------------
      LOOP:  cpu time   95.8502: real time   96.5763

 eigenvalue-minimisations  : 16896
 total energy-change (2. order) :-0.6177172E-05  (-0.2646694E-05)
 number of electron     688.0000053 magnetization       0.0000000
 augmentation part      282.2252505 magnetization       0.0000000

 Broyden mixing:
[...]
   -.412E+02 0.199E+02 -.995E+00   0.420E+02 -.200E+02 0.100E+01   -.855E+00 0.112E+00 -.100E-01   0.248E-05 -.238E-05 -.635E-06
   -.412E+02 0.199E+02 -.995E+00   0.420E+02 -.200E+02 0.100E+01   -.855E+00 0.112E+00 -.100E-01   0.246E-05 -.238E-05 -.634E-06
   -.412E+02 0.199E+02 -.995E+00   0.420E+02 -.200E+02 0.100E+01   -.855E+00 0.112E+00 -.100E-01   0.248E-05 -.240E-05 -.635E-06
   -.412E+02 0.199E+02 -.995E+00   0.420E+02 -.200E+02 0.100E+01   -.855E+00 0.112E+00 -.100E-01   0.246E-05 -.240E-05 -.634E-06
   0.412E+02 0.199E+02 0.995E+00   -.420E+02 -.200E+02 -.100E+01   0.855E+00 0.112E+00 0.100E-01   -.247E-05 -.239E-05 0.635E-06
   0.412E+02 0.199E+02 0.995E+00   -.420E+02 -.200E+02 -.100E+01   0.855E+00 0.112E+00 0.100E-01   -.247E-05 -.239E-05 0.635E-06
   0.412E+02 0.199E+02 0.995E+00   -.420E+02 -.200E+02 -.100E+01   0.855E+00 0.112E+00 0.100E-01   -.247E-05 -.239E-05 0.635E-06
   0.412E+02 0.199E+02 0.995E+00   -.420E+02 -.200E+02 -.100E+01   0.855E+00 0.112E+00 0.100E-01   -.247E-05 -.239E-05 0.635E-06
   -.269E-08 -.299E+02 -.608E-07   0.249E-13 0.307E+02 -.107E-12   -.242E-24 -.770E+00 -.310E-24   0.265E-10 -.478E-06 -.186E-09
   -.269E-08 -.299E+02 -.608E-07   -.533E-14 0.307E+02 -.986E-13   0.275E-24 -.770E+00 0.414E-24   -.327E-10 -.478E-06 0.186E-09
   -.269E-08 -.299E+02 -.608E-07   0.284E-13 0.307E+02 -.284E-13   0.270E-24 -.770E+00 0.620E-24   0.265E-10 -.495E-06 -.186E-09
   -.269E-08 -.299E+02 -.608E-07   0.000E+00 0.307E+02 -.497E-13   0.194E-25 -.770E+00 -.103E-24   -.327E-10 -.495E-06 0.186E-09
   0.219E-08 0.558E+02 0.222E-06   0.959E-13 -.568E+02 0.126E-12   0.255E-24 0.955E+00 -.258E-24   0.759E-08 -.642E-07 -.198E-09
   0.218E-08 0.558E+02 0.222E-06   0.103E-12 -.568E+02 0.139E-12   -.953E-25 0.955E+00 -.129E-24   -.758E-08 -.642E-07 0.198E-09
   0.219E-08 0.558E+02 0.222E-06   0.135E-12 -.568E+02 0.711E-13   0.105E-24 0.955E+00 -.194E-24   0.759E-08 -.637E-07 -.198E-09
   0.218E-08 0.558E+02 0.222E-06   0.114E-12 -.568E+02 0.142E-12   -.198E-24 0.955E+00 0.336E-24   -.758E-08 -.637E-07 0.198E-09
   0.282E+01 -.179E+02 0.316E+01   -.279E+01 0.172E+02 -.323E+01   -.240E-01 0.709E+00 0.557E-01   -.424E-05 0.548E-04 0.257E-05
   0.282E+01 -.179E+02 0.316E+01   -.279E+01 0.172E+02 -.323E+01   -.240E-01 0.709E+00 0.557E-01   -.427E-05 0.548E-04 0.257E-05
   0.282E+01 -.179E+02 0.316E+01   -.279E+01 0.172E+02 -.323E+01   -.240E-01 0.709E+00 0.557E-01   -.424E-05 0.547E-04 0.257E-05
   0.282E+01 -.179E+02 0.316E+01   -.279E+01 0.172E+02 -.323E+01   -.240E-01 0.709E+00 0.557E-01   -.427E-05 0.547E-04 0.257E-05
   -.282E+01 -.179E+02 -.316E+01   0.279E+01 0.172E+02 0.323E+01   0.240E-01 0.709E+00 -.557E-01   0.427E-05 0.548E-04 -.257E-05
   -.282E+01 -.179E+02 -.316E+01   0.279E+01 0.172E+02 0.323E+01   0.240E-01 0.709E+00 -.557E-01   0.424E-05 0.548E-04 -.257E-05
   -.282E+01 -.179E+02 -.316E+01   0.279E+01 0.172E+02 0.323E+01   0.240E-01 0.709E+00 -.557E-01   0.427E-05 0.547E-04 -.257E-05
   -.282E+01 -.179E+02 -.316E+01   0.279E+01 0.172E+02 0.323E+01   0.240E-01 0.709E+00 -.557E-01   0.424E-05 0.547E-04 -.257E-05
   0.282E+01 -.179E+02 0.316E+01   -.279E+01 0.172E+02 -.323E+01   -.240E-01 0.709E+00 0.557E-01   -.424E-05 0.548E-04 0.257E-05
   0.282E+01 -.179E+02 0.316E+01   -.279E+01 0.172E+02 -.323E+01   -.240E-01 0.709E+00 0.557E-01   -.427E-05 0.548E-04 0.257E-05
   0.282E+01 -.179E+02 0.316E+01   -.279E+01 0.172E+02 -.323E+01   -.240E-01 0.709E+00 0.557E-01   -.424E-05 0.547E-04 0.257E-05
   0.282E+01 -.179E+02 0.316E+01   -.279E+01 0.172E+02 -.323E+01   -.240E-01 0.709E+00 0.557E-01   -.427E-05 0.547E-04 0.257E-05
   -.282E+01 -.179E+02 -.316E+01   0.279E+01 0.172E+02 0.323E+01   0.240E-01 0.709E+00 -.557E-01   0.427E-05 0.548E-04 -.257E-05
   -.282E+01 -.179E+02 -.316E+01   0.279E+01 0.172E+02 0.323E+01   0.240E-01 0.709E+00 -.557E-01   0.424E-05 0.548E-04 -.257E-05
   -.282E+01 -.179E+02 -.316E+01   0.279E+01 0.172E+02 0.323E+01   0.240E-01 0.709E+00 -.557E-01   0.427E-05 0.547E-04 -.258E-05
   -.282E+01 -.179E+02 -.316E+01   0.279E+01 0.172E+02 0.323E+01   0.240E-01 0.709E+00 -.557E-01   0.424E-05 0.547E-04 -.257E-05
   -.487E+01 -.167E+02 0.350E+01   0.480E+01 0.158E+02 -.358E+01   0.755E-01 0.921E+00 0.540E-01   0.114E-04 0.207E-04 0.102E-04
   -.487E+01 -.167E+02 0.350E+01   0.480E+01 0.158E+02 -.358E+01   0.755E-01 0.921E+00 0.540E-01   0.114E-04 0.207E-04 0.102E-04
   -.487E+01 -.167E+02 0.350E+01   0.480E+01 0.158E+02 -.358E+01   0.755E-01 0.921E+00 0.540E-01   0.114E-04 0.207E-04 0.102E-04
   -.487E+01 -.167E+02 0.350E+01   0.480E+01 0.158E+02 -.358E+01   0.755E-01 0.921E+00 0.540E-01   0.114E-04 0.207E-04 0.102E-04
   0.487E+01 -.167E+02 -.350E+01   -.480E+01 0.158E+02 0.358E+01   -.755E-01 0.921E+00 -.540E-01   -.114E-04 0.207E-04 -.102E-04
   0.487E+01 -.167E+02 -.350E+01   -.480E+01 0.158E+02 0.358E+01   -.755E-01 0.921E+00 -.540E-01   -.114E-04 0.207E-04 -.102E-04
   0.487E+01 -.167E+02 -.350E+01   -.480E+01 0.158E+02 0.358E+01   -.755E-01 0.921E+00 -.540E-01   -.114E-04 0.207E-04 -.102E-04
   0.487E+01 -.167E+02 -.350E+01   -.480E+01 0.158E+02 0.358E+01   -.755E-01 0.921E+00 -.540E-01   -.114E-04 0.207E-04 -.102E-04
   -.487E+01 -.167E+02 0.350E+01   0.480E+01 0.158E+02 -.358E+01   0.755E-01 0.921E+00 0.540E-01   0.114E-04 0.207E-04 0.102E-04
   -.487E+01 -.167E+02 0.350E+01   0.480E+01 0.158E+02 -.358E+01   0.755E-01 0.921E+00 0.540E-01   0.114E-04 0.207E-04 0.102E-04
   -.487E+01 -.167E+02 0.350E+01   0.480E+01 0.158E+02 -.358E+01   0.755E-01 0.921E+00 0.540E-01   0.114E-04 0.207E-04 0.102E-04
   -.487E+01 -.167E+02 0.350E+01   0.480E+01 0.158E+02 -.358E+01   0.755E-01 0.921E+00 0.540E-01   0.114E-04 0.207E-04 0.102E-04
   0.487E+01 -.167E+02 -.350E+01   -.480E+01 0.158E+02 0.358E+01   -.755E-01 0.921E+00 -.540E-01   -.114E-04 0.207E-04 -.102E-04
   0.487E+01 -.167E+02 -.350E+01   -.480E+01 0.158E+02 0.358E+01   -.755E-01 0.921E+00 -.540E-01   -.114E-04 0.207E-04 -.102E-04
   0.487E+01 -.167E+02 -.350E+01   -.480E+01 0.158E+02 0.358E+01   -.755E-01 0.921E+00 -.540E-01   -.114E-04 0.207E-04 -.102E-04
   0.487E+01 -.167E+02 -.350E+01   -.480E+01 0.158E+02 0.358E+01   -.755E-01 0.921E+00 -.540E-01   -.114E-04 0.207E-04 -.102E-04
 -----------------------------------------------------------------------------------------------
   -.524E-06 -.293E+02 -.363E-04   -.129E-12 0.222E-12 0.572E-12   0.261E-14 0.293E+02 -.625E-16   -.479E-11 0.116E-02 0.103E-10
 
 
 POSITION                                       TOTAL-FORCE (eV/Angst)
 -----------------------------------------------------------------------------------
      1.36176      1.27934      1.33971         0.001913     -0.018562      0.003290
      6.61373      1.27934      1.47719         0.001913     -0.018562      0.003290
      1.36176      6.54223      1.33971         0.001913     -0.018562      0.003290
      6.61373      6.54223      1.47719         0.001913     -0.018562      0.003290
      3.95826      3.91078      1.39751        -0.001913     -0.018562     -0.003290
      9.21022      3.91078      1.53499        -0.001913     -0.018562     -0.003290
      3.95826      9.17368      1.39751        -0.001913     -0.018562     -0.003290
      9.21022      9.17368      1.53499        -0.001913     -0.018562     -0.003290
      1.55117      3.91765      9.13347        -0.000000     -0.010787     -0.000000
      6.80314      3.91765      9.27095        -0.000000     -0.010787     -0.000000
      1.55117      9.18054      9.13347        -0.000000     -0.010787     -0.000000
      6.80314      9.18054      9.27095        -0.000000     -0.010787     -0.000000
      4.17716      1.30468      9.20221        -0.000000     -0.008308     -0.000000
      9.42912      1.30468      9.33969        -0.000000     -0.008308     -0.000000
      4.17716      6.56758      9.20221        -0.000000     -0.008308     -0.000000
      9.42912      6.56758      9.33969        -0.000000     -0.008308     -0.000000
      1.46838      1.27934      6.52826        -0.001913     -0.018562     -0.003290
      6.72034      1.27934      6.66574        -0.001913     -0.018562     -0.003290
      1.46838      6.54223      6.52826        -0.001913     -0.018562     -0.003290
      6.72034      6.54223      6.66574        -0.001913     -0.018562     -0.003290
      4.12385      3.91078      6.60793         0.001913     -0.018562      0.003290
      9.37581      3.91078      6.74541         0.001913     -0.018562      0.003290
      4.12385      9.17368      6.60793         0.001913     -0.018562      0.003290
      9.37581      9.17368      6.74541         0.001913     -0.018562      0.003290
      4.04105      1.28620      4.00272        -0.000000     -0.010787     -0.000000
      9.29302      1.28620      4.14020        -0.000000     -0.010787     -0.000000
      4.04105      6.54910      4.00272        -0.000000     -0.010787     -0.000000
      9.29302      6.54910      4.14020        -0.000000     -0.010787     -0.000000
      1.41507      3.93613      3.93398        -0.000000     -0.008308     -0.000000
      6.66704      3.93613      4.07146        -0.000000     -0.008308     -0.000000
      1.41507      9.19903      3.93398        -0.000000     -0.008308     -0.000000
      6.66704      9.19903      4.07146        -0.000000     -0.008308     -0.000000
     10.62462      0.02830      5.47438         0.007990      0.014659     -0.015240
      5.37266      0.02830      5.33690         0.007990      0.014659     -0.015240
     10.62462      5.29120      5.47438         0.007990      0.014659     -0.015240
      5.37266      5.29120      5.33690         0.007990      0.014659     -0.015240
      2.70945      0.02830      2.66854        -0.007990      0.014659      0.015240
      7.96141      0.02830      2.80602        -0.007990      0.014659      0.015240
      2.70945      5.29120      2.66854        -0.007990      0.014659      0.015240
      7.96141      5.29120      2.80602        -0.007990      0.014659      0.015240
      2.61057      2.65975      0.06868         0.007990      0.014659     -0.015240
      7.86254      2.65975      0.20616         0.007990      0.014659     -0.015240
      2.61057      7.92265      0.06868         0.007990      0.014659     -0.015240
      7.86254      7.92265      0.20616         0.007990      0.014659     -0.015240
      0.21957      2.65975      7.79929        -0.007990      0.014659      0.015240
      5.47153      2.65975      7.93677        -0.007990      0.014659      0.015240
      0.21957      7.92265      7.79929        -0.007990      0.014659      0.015240
      5.47153      7.92265      7.93677        -0.007990      0.014659      0.015240
     10.49424      0.02837      0.28163         0.012792      0.013451     -0.034096
      5.24227      0.02837      0.14416         0.012792      0.013451     -0.034096
     10.49424      5.29126      0.28163         0.012792      0.013451     -0.034096
      5.24227      5.29126      0.14416         0.012792      0.013451     -0.034096
      2.83983      0.02837      7.86129        -0.012792      0.013451      0.034096
      8.09180      0.02837      7.99877        -0.012792      0.013451      0.034096
      2.83983      5.29126      7.86129        -0.012792      0.013451      0.034096
      8.09180      5.29126      7.99877        -0.012792      0.013451      0.034096
      2.75240      2.65982      5.27490         0.012792      0.013451     -0.034096
      8.00436      2.65982      5.41238         0.012792      0.013451     -0.034096
      2.75240      7.92271      5.27490         0.012792      0.013451     -0.034096
      8.00436      7.92271      5.41238         0.012792      0.013451     -0.034096
      0.07774      2.65982      2.59306        -0.012792      0.013451      0.034096
      5.32971      2.65982      2.73054        -0.012792      0.013451      0.034096
      0.07774      7.92271      2.59306        -0.012792      0.013451      0.034096
      5.32971      7.92271      2.73054        -0.012792      0.013451      0.034096
 -----------------------------------------------------------------------------------
    total drift:                               -0.000001      0.002256     -0.000036


--------------------------------------------------------------------------------------------------------



  FREE ENERGIE OF THE ION-ELECTRON SYSTEM (eV)
  ---------------------------------------------------
  free  energy   TOTEN  =      -327.82796818 eV

  energy  without entropy=     -327.82796818  energy(sigma->0) =     -327.82796818
 


--------------------------------------------------------------------------------------------------------


    POTLOK:  cpu time    0.1323: real time    0.1330


--------------------------------------------------------------------------------------------------------


 writing wavefunctions
     LOOP+:  cpu time 3783.6130: real time 3811.0132
    4ORBIT:  cpu time    0.0000: real time    0.0000
 


 total charge     
 
# of ion       s       p       d       tot
------------------------------------------
    1        1.314   2.410   0.000   3.724
    2        1.314   2.410   0.000   3.724
    3        1.314   2.410   0.000   3.724
    4        1.314   2.410   0.000   3.724
    5        1.314   2.410   0.000   3.724
    6        1.314   2.410   0.000   3.724
    7        1.314   2.410   0.000   3.724
    8        1.314   2.410   0.000   3.724
    9        1.315   2.406   0.000   3.721
   10        1.315   2.406   0.000   3.721
   11        1.315   2.406   0.000   3.721
   12        1.315   2.406   0.000   3.721
   13        1.313   2.412   0.000   3.724
   14        1.313   2.412   0.000   3.724
   15        1.313   2.412   0.000   3.724
   16        1.313   2.412   0.000   3.724
   17        1.314   2.410   0.000   3.724
   18        1.314   2.410   0.000   3.724
   19        1.314   2.410   0.000   3.724
   20        1.314   2.410   0.000   3.724
   21        1.314   2.410   0.000   3.724
   22        1.314   2.410   0.000   3.724
   23        1.314   2.410   0.000   3.724
   24        1.314   2.410   0.000   3.724
   25        1.315   2.406   0.000   3.721
   26        1.315   2.406   0.000   3.721
   27        1.315   2.406   0.000   3.721
   28        1.315   2.406   0.000   3.721
   29        1.313   2.412   0.000   3.724
   30        1.313   2.412   0.000   3.724
   31        1.313   2.412   0.000   3.724
   32        1.313   2.412   0.000   3.724
   33        0.259   6.202   8.917  15.378
   34        0.259   6.202   8.917  15.378
   35        0.259   6.202   8.917  15.378
   36        0.259   6.202   8.917  15.378
   37        0.259   6.202   8.917  15.378
   38        0.259   6.202   8.917  15.378
   39        0.259   6.202   8.917  15.378
   40        0.259   6.202   8.917  15.378
   41        0.259   6.202   8.917  15.378
   42        0.259   6.202   8.917  15.378
   43        0.259   6.202   8.917  15.378
   44        0.259   6.202   8.917  15.378
   45        0.259   6.202   8.917  15.378
   46        0.259   6.202   8.917  15.378
   47        0.259   6.202   8.917  15.378
   48        0.259   6.202   8.917  15.378
   49        0.350   6.351   5.821  12.522
   50        0.350   6.351   5.821  12.522
   51        0.350   6.351   5.821  12.522
   52        0.350   6.351   5.821  12.522
   53        0.350   6.351   5.821  12.522
   54        0.350   6.351   5.821  12.522
   55        0.350   6.351   5.821  12.522
   56        0.350   6.351   5.821  12.522
   57        0.350   6.351   5.821  12.522
   58        0.350   6.351   5.821  12.522
   59        0.350   6.351   5.821  12.522
   60        0.350   6.351   5.821  12.522
   61        0.350   6.351   5.821  12.522
   62        0.350   6.351   5.821  12.522
   63        0.350   6.351   5.821  12.522
   64        0.350   6.351   5.821  12.522
--------------------------------------------------
tot         51.790 277.950 235.806 565.546
 


 magnetization (x)
 
# of ion       s       p       d       tot
------------------------------------------
    1       -0.000  -0.013   0.000  -0.013
    2       -0.000  -0.013   0.000  -0.013
    3       -0.000  -0.013   0.000  -0.013
    4       -0.000  -0.013   0.000  -0.013
    5        0.000   0.013   0.000   0.013
    6        0.000   0.013   0.000   0.013
    7        0.000   0.013   0.000   0.013
    8        0.000   0.013   0.000   0.013
    9       -0.000   0.000   0.000   0.000
   10       -0.000  -0.000   0.000  -0.000
   11       -0.000   0.000   0.000   0.000
   12       -0.000  -0.000   0.000  -0.000
   13       -0.000  -0.000   0.000  -0.000
   14       -0.000  -0.000   0.000  -0.000
   15       -0.000  -0.000   0.000  -0.000
   16       -0.000  -0.000   0.000  -0.000
   17        0.000   0.013   0.000   0.013
   18        0.000   0.013   0.000   0.013
   19        0.000   0.013   0.000   0.013
   20        0.000   0.013   0.000   0.013
   21       -0.000  -0.013   0.000  -0.013
   22       -0.000  -0.013   0.000  -0.013
   23       -0.000  -0.013   0.000  -0.013
   24       -0.000  -0.013   0.000  -0.013
   25       -0.000   0.000   0.000  -0.000
   26       -0.000   0.000   0.000  -0.000
   27       -0.000   0.000   0.000  -0.000
   28       -0.000   0.000   0.000  -0.000
   29        0.000  -0.000   0.000  -0.000
   30       -0.000  -0.000   0.000  -0.000
   31        0.000  -0.000   0.000  -0.000
   32       -0.000  -0.000   0.000  -0.000
   33        0.000   0.001  -0.002  -0.001
   34        0.000   0.001  -0.002  -0.001
   35        0.000   0.001  -0.002  -0.001
   36        0.000   0.001  -0.002  -0.001
   37       -0.000  -0.001   0.002   0.001
   38       -0.000  -0.001   0.002   0.001
   39       -0.000  -0.001   0.002   0.001
   40       -0.000  -0.001   0.002   0.001
   41        0.000   0.001  -0.002  -0.001
   42        0.000   0.001  -0.002  -0.001
   43        0.000   0.001  -0.002  -0.001
   44        0.000   0.001  -0.002  -0.001
   45       -0.000  -0.001   0.002   0.001
   46       -0.000  -0.001   0.002   0.001
   47       -0.000  -0.001   0.002   0.001
   48       -0.000  -0.001   0.002   0.001
   49        0.020   0.054   3.669   3.742
   50        0.020   0.054   3.669   3.742
   51        0.020   0.054   3.669   3.742
   52        0.020   0.054   3.669   3.742
   53       -0.020  -0.054  -3.669  -3.742
   54       -0.020  -0.054  -3.669  -3.742
   55       -0.020  -0.054  -3.669  -3.742
   56       -0.020  -0.054  -3.669  -3.742
   57        0.020   0.054   3.669   3.742
   58        0.020   0.054   3.669   3.742
   59        0.020   0.054   3.669   3.742
   60        0.020   0.054   3.669   3.742
   61       -0.020  -0.054  -3.669  -3.742
   62       -0.020  -0.054  -3.669  -3.742
   63       -0.020  -0.054  -3.669  -3.742
   64       -0.020  -0.054  -3.669  -3.742
--------------------------------------------------
tot         -0.000   0.000   0.000   0.000
 
 BZINTS: Fermi energy:  4.955063;688.000000 electrons
         Band energy:***********;  BLOECHL correction:  0.000000

 total amount of memory used by VASP MPI-rank0   348353. kBytes
=======================================================================

   base      :      30000. kBytes
   nonl-proj :     216760. kBytes
   fftplans  :       4588. kBytes
   grid      :      69719. kBytes
   one-center:       1990. kBytes
   wavefun   :      25296. kBytes
 
  
  
 General timing and accounting informations for this job:
 ========================================================
  
                  Total CPU time used (sec):     3842.342
                            User time (sec):     3831.034
                          System time (sec):       11.307
                         Elapsed time (sec):     3871.131
  
                   Maximum memory used (kb):      710636.
                   Average memory used (kb):           0.
  
                          Minor page faults:       711082
                          Major page faults:         5939
                 Voluntary context switches:         7384
