 vasp.5.4.4.18Apr17-6-g9f103f2a35 (build Oct 30 2023 17:30:16) complex          
  
 executed on             LinuxIFC date 2024.06.30  04:42:09
 running on  256 total cores
 distrk:  each k-point on  256 cores,    1 groups
 distr:  one band on NCORES_PER_BAND=   1 cores,  256 groups


--------------------------------------------------------------------------------------------------------


 INCAR:
 POTCAR:    PAW_PBE S 06Sep2000                   
 POTCAR:     PAW_PBE Cu_pv 06Sep2000              
 POTCAR:     PAW_PBE Fe_pv 02Aug2007              

 ----------------------------------------------------------------------------- 
|                                                                             |
|           W    W    AA    RRRRR   N    N  II  N    N   GGGG   !!!           |
|           W    W   A  A   R    R  NN   N  II  NN   N  G    G  !!!           |
|           W    W  A    A  R    R  N N  N  II  N N  N  G       !!!           |
|           W WW W  AAAAAA  RRRRR   N  N N  II  N  N N  G  GGG   !            |
|           WW  WW  A    A  R   R   N   NN  II  N   NN  G    G                |
|           W    W  A    A  R    R  N    N  II  N    N   GGGG   !!!           |
|                                                                             |
|      For optimal performance we recommend to set                            |
|        NCORE= 4 - approx SQRT( number of cores)                             |
|      NCORE specifies how many cores store one orbital (NPAR=cpu/NCORE).     |
|      This setting can  greatly improve the performance of VASP for DFT.     |
|      The default,   NCORE=1            might be grossly inefficient         |
|      on modern multi-core architectures or massively parallel machines.     |
|      Do your own testing !!!!                                               |
|      Unfortunately you need to use the default for GW and RPA calculations. |
|      (for HF NCORE is supported but not extensively tested yet)             |
|                                                                             |
 ----------------------------------------------------------------------------- 

 POTCAR:    PAW_PBE S 06Sep2000                   
   SHA256 =  0fc7481fb0695f01bdc6462160264c5c84044ae9ec85a907d398b887a2bc3132 S/
   COPYR  = (c) Copyright 06Sep2000 Georg Kresse                                
   COPYR  = This file is part of the software VASP. Any use, copying, and all ot
   COPYR  = If you do not have a valid VASP license, you may not use, copy or di
   VRHFIN =S : s2p4                                                             
   LEXCH  = PE                                                                  
   EATOM  =   276.8230 eV,   20.3459 Ry                                         
                                                                                
   TITEL  = PAW_PBE S 06Sep2000                                                 
   LULTRA =        F    use ultrasoft PP ?                                      
   IUNSCR =        1    unscreen: 0-lin 1-nonlin 2-no                           
   RPACOR =    1.500    partial core radius                                     
   POMASS =   32.066; ZVAL   =    6.000    mass and valenz                      
   RCORE  =    1.900    outmost cutoff radius                                   
   RWIGS  =    2.200; RWIGS  =    1.164    wigner-seitz radius (au A)           
   ENMAX  =  258.689; ENMIN  =  194.016 eV                                      
   ICORE  =        2    local potential                                         
   LCOR   =        T    correct aug charges                                     
   LPAW   =        T    paw PP                                                  
   EAUG   =  335.092                                                            
   DEXC   =    0.000                                                            
   RMAX   =    1.942    core radius for proj-oper                               
   RAUG   =    1.300    factor for augmentation sphere                          
   RDEP   =    1.954    radius for radial grids                                 
   RDEPT  =    1.744    core radius for aug-charge                              
                                                                                
   Atomic configuration                                                         
    6 entries                                                                   
     n  l   j            E        occ.                                          
     1  0  0.50     -2405.8406   2.0000                                         
     2  0  0.50      -211.7007   2.0000                                         
     2  1  1.50      -156.4958   6.0000                                         
     3  0  0.50       -17.2562   2.0000                                         
     3  1  0.50        -7.0085   4.0000                                         
     3  2  1.50        -6.8029   0.0000                                         
   Description                                                                  
     l       E           TYP  RCUT    TYP  RCUT                                 
     0    -17.2561641     23  1.900                                             
     0    -15.8743224     23  1.900                                             
     1     -7.0085400     23  1.900                                             
     1     -2.7779785     23  1.900                                             
     2     -6.8029130     23  1.900                                             
  local pseudopotential read in
  partial core-charges read in
  partial kinetic energy density read in
  atomic valenz-charges read in
  non local Contribution for L=           0  read in
    real space projection operators read in
  non local Contribution for L=           0  read in
    real space projection operators read in
  non local Contribution for L=           1  read in
    real space projection operators read in
  non local Contribution for L=           1  read in
    real space projection operators read in
    PAW grid and wavefunctions read in
 
   number of l-projection  operators is LMAX  =           4
   number of lm-projection operators is LMMAX =           8
 
 POTCAR:     PAW_PBE Cu_pv 06Sep2000              
   SHA256 =  cb7b504e2ea725fe1f25c85a9ac77d4012ce94cd394135b722c4e25ec297f1cb Cu
   COPYR  = (c) Copyright 06Sep2000 Georg Kresse                                
   COPYR  = This file is part of the software VASP. Any use, copying, and all ot
   COPYR  = If you do not have a valid VASP license, you may not use, copy or di
   VRHFIN =Cu: d10 p1                                                           
   LEXCH  = PE                                                                  
   EATOM  =  4120.1201 eV,  302.8203 Ry                                         
                                                                                
   TITEL  = PAW_PBE Cu_pv 06Sep2000                                             
   LULTRA =        F    use ultrasoft PP ?                                      
   IUNSCR =        1    unscreen: 0-lin 1-nonlin 2-no                           
   RPACOR =    1.500    partial core radius                                     
   POMASS =   63.546; ZVAL   =   17.000    mass and valenz                      
   RCORE  =    2.000    outmost cutoff radius                                   
   RWIGS  =    2.000; RWIGS  =    1.058    wigner-seitz radius (au A)           
   ENMAX  =  368.648; ENMIN  =  276.486 eV                                      
   RCLOC  =    1.304    cutoff for local pot                                    
   LCOR   =        T    correct aug charges                                     
   LPAW   =        T    paw PP                                                  
   EAUG   =  758.233                                                            
   DEXC   =    0.000                                                            
   RMAX   =    2.046    core radius for proj-oper                               
   RAUG   =    1.300    factor for augmentation sphere                          
   RDEP   =    2.025    radius for radial grids                                 
   RDEPT  =    1.558    core radius for aug-charge                              
                                                                                
   Atomic configuration                                                         
    8 entries                                                                   
     n  l   j            E        occ.                                          
     1  0  0.50     -8850.2467   2.0000                                         
     2  0  0.50     -1062.3498   2.0000                                         
     2  1  1.50      -916.8226   6.0000                                         
     3  0  0.50      -114.6929   2.0000                                         
     3  1  1.50       -72.1325   6.0000                                         
     3  2  2.50        -5.0394  10.0000                                         
     4  0  0.50        -4.6097   1.0000                                         
     4  3  2.50        -1.3606   0.0000                                         
   Description                                                                  
     l       E           TYP  RCUT    TYP  RCUT                                 
     1    -72.1324777     23  1.700                                             
     1     -1.3605826     23  1.700                                             
     2     -5.0393776     23  2.000                                             
     2     -6.3999602     23  2.000                                             
     0     -4.6097062     23  1.800                                             
     0     14.1620818     23  1.800                                             
  local pseudopotential read in
  partial core-charges read in
  partial kinetic energy density read in
  atomic valenz-charges read in
  non local Contribution for L=           1  read in
    real space projection operators read in
  non local Contribution for L=           1  read in
    real space projection operators read in
  non local Contribution for L=           2  read in
    real space projection operators read in
  non local Contribution for L=           2  read in
    real space projection operators read in
  non local Contribution for L=           0  read in
    real space projection operators read in
  non local Contribution for L=           0  read in
    real space projection operators read in
    PAW grid and wavefunctions read in
 
   number of l-projection  operators is LMAX  =           6
   number of lm-projection operators is LMMAX =          18
 
 POTCAR:     PAW_PBE Fe_pv 02Aug2007              
   SHA256 =  5d22e414b1f82158bf2c7ecb8b97b28fd0923e48cadc1c3bf74d524558f5dd32 Fe
   COPYR  = (c) Copyright 02Aug2007 Georg Kresse                                
   COPYR  = This file is part of the software VASP. Any use, copying, and all ot
   COPYR  = If you do not have a valid VASP license, you may not use, copy or di
   VRHFIN =Fe:  3pd7s1                                                          
   LEXCH  = PE                                                                  
   EATOM  =  2457.4239 eV,  180.6156 Ry                                         
                                                                                
   TITEL  = PAW_PBE Fe_pv 02Aug2007                                             
   LULTRA =        F    use ultrasoft PP ?                                      
   IUNSCR =        1    unscreen: 0-lin 1-nonlin 2-no                           
   RPACOR =    1.750    partial core radius                                     
   POMASS =   55.847; ZVAL   =   14.000    mass and valenz                      
   RCORE  =    2.200    outmost cutoff radius                                   
   RWIGS  =    2.200; RWIGS  =    1.164    wigner-seitz radius (au A)           
   ENMAX  =  293.238; ENMIN  =  219.928 eV                                      
   ICORE  =        3    local potential                                         
   LCOR   =        T    correct aug charges                                     
   LPAW   =        T    paw PP                                                  
   EAUG   =  578.342                                                            
   DEXC   =    0.000                                                            
   RMAX   =    2.249    core radius for proj-oper                               
   RAUG   =    1.300    factor for augmentation sphere                          
   RDEP   =    2.296    radius for radial grids                                 
   RDEPT  =    1.766    core radius for aug-charge                              
                                                                                
   Atomic configuration                                                         
    8 entries                                                                   
     n  l   j            E        occ.                                          
     1  0  0.50     -6993.8440   2.0000                                         
     2  0  0.50      -814.6047   2.0000                                         
     2  1  1.50      -693.3689   6.0000                                         
     3  0  0.50       -89.4732   2.0000                                         
     3  1  1.50       -55.6373   6.0000                                         
     3  2  2.50        -3.8151   7.0000                                         
     4  0  0.50        -4.2551   1.0000                                         
     4  3  2.50        -1.3606   0.0000                                         
   Description                                                                  
     l       E           TYP  RCUT    TYP  RCUT                                 
     1    -55.6372668     23  2.000                                             
     1     -5.4423304     23  2.000                                             
     2     -3.8151096     23  2.200                                             
     2     -5.1756922     23  2.200                                             
     0     -4.2550951     23  2.200                                             
     0     27.2116520     23  2.200                                             
     3     -1.3605826     23  2.200                                             
  local pseudopotential read in
  partial core-charges read in
  partial kinetic energy density read in
  atomic valenz-charges read in
  non local Contribution for L=           1  read in
    real space projection operators read in
  non local Contribution for L=           1  read in
    real space projection operators read in
  non local Contribution for L=           2  read in
    real space projection operators read in
  non local Contribution for L=           2  read in
    real space projection operators read in
  non local Contribution for L=           0  read in
    real space projection operators read in
  non local Contribution for L=           0  read in
    real space projection operators read in
    PAW grid and wavefunctions read in
 
   number of l-projection  operators is LMAX  =           6
   number of lm-projection operators is LMMAX =          18
 

 ----------------------------------------------------------------------------- 
|                                                                             |
|  ADVICE TO THIS USER RUNNING 'VASP/VAMP'   (HEAR YOUR MASTER'S VOICE ...):  |
|                                                                             |
|      You have a (more or less) 'large supercell' and for larger cells       |
|      it might be more efficient to use real space projection opertators     |
|      So try LREAL= Auto  in the INCAR   file.                               |
|      Mind:          For very  accurate calculation you might also keep the  |
|      reciprocal projection scheme          (i.e. LREAL=.FALSE.)             |
|                                                                             |
 ----------------------------------------------------------------------------- 


 ----------------------------------------------------------------------------- 
|                                                                             |
|  ADVICE TO THIS USER RUNNING 'VASP/VAMP'   (HEAR YOUR MASTER'S VOICE ...):  |
|                                                                             |
|      You enforced a specific xc-type in the INCAR file,                     |
|      a different type was found on the POTCAR file                          |
|          I HOPE YOU KNOW, WHAT YOU ARE  DOING                               |
|                                                                             |
 ----------------------------------------------------------------------------- 

  PAW_PBE S 06Sep2000                   :
 energy of atom  1       EATOM= -276.8230
 kinetic energy error for atom=    0.0007 (will be added to EATOM!!)
   PAW_PBE Cu_pv 06Sep2000              :
 energy of atom  2       EATOM=-4120.1201
 kinetic energy error for atom=    0.0094 (will be added to EATOM!!)
   PAW_PBE Fe_pv 02Aug2007              :
 energy of atom  3       EATOM=-2457.4239
 kinetic energy error for atom=    0.0025 (will be added to EATOM!!)
 
 
 POSCAR: Fe16 Cu16 S32                           
  positions in direct lattice
  No initial velocities read in
 exchange correlation table for  LEXCH =       14
   RHO(1)=    0.500       N(1)  =     2000
   RHO(2)=  100.500       N(2)  =     4000
 


--------------------------------------------------------------------------------------------------------


 ion  position               nearest neighbor table
   1  0.126  0.123  0.125-  41 2.26  37 2.27  61 2.27  49 2.28
   2  0.626  0.123  0.125-  42 2.26  38 2.27  62 2.27  50 2.28
   3  0.126  0.623  0.125-  43 2.26  39 2.27  63 2.27  51 2.28
   4  0.626  0.623  0.125-  44 2.26  40 2.27  64 2.27  52 2.28
   5  0.374  0.373  0.125-  39 2.26  41 2.27  52 2.27  62 2.28
   6  0.874  0.373  0.125-  40 2.26  42 2.27  51 2.27  61 2.28
   7  0.374  0.873  0.125-  37 2.26  43 2.27  50 2.27  64 2.28
   8  0.874  0.873  0.125-  38 2.26  44 2.27  49 2.27  63 2.28
   9  0.125  0.372  0.875-  41 2.26  45 2.26  51 2.27  55 2.27
  10  0.625  0.372  0.875-  42 2.26  46 2.26  52 2.27  56 2.27
  11  0.125  0.872  0.875-  43 2.26  47 2.26  49 2.27  53 2.27
  12  0.625  0.872  0.875-  44 2.26  48 2.26  50 2.27  54 2.27
  13  0.375  0.125  0.875-  41 2.26  46 2.26  50 2.28  53 2.28
  14  0.875  0.125  0.875-  42 2.26  45 2.26  49 2.28  54 2.28
  15  0.375  0.625  0.875-  43 2.26  48 2.26  52 2.28  55 2.28
  16  0.875  0.625  0.875-  44 2.26  47 2.26  51 2.28  56 2.28
  17  0.124  0.123  0.625-  45 2.26  33 2.27  57 2.27  53 2.28
  18  0.624  0.123  0.625-  46 2.26  34 2.27  58 2.27  54 2.28
  19  0.124  0.623  0.625-  47 2.26  35 2.27  59 2.27  55 2.28
  20  0.624  0.623  0.625-  48 2.26  36 2.27  60 2.27  56 2.28
  21  0.376  0.373  0.625-  36 2.26  46 2.27  55 2.27  57 2.28
  22  0.876  0.373  0.625-  35 2.26  45 2.27  56 2.27  58 2.28
  23  0.376  0.873  0.625-  34 2.26  48 2.27  53 2.27  59 2.28
  24  0.876  0.873  0.625-  33 2.26  47 2.27  54 2.27  60 2.28
  25  0.375  0.122  0.375-  34 2.26  37 2.26  57 2.27  62 2.27
  26  0.875  0.122  0.375-  33 2.26  38 2.26  58 2.27  61 2.27
  27  0.375  0.622  0.375-  36 2.26  39 2.26  59 2.27  64 2.27
  28  0.875  0.622  0.375-  35 2.26  40 2.26  60 2.27  63 2.27
  29  0.125  0.375  0.375-  35 2.26  39 2.26  57 2.28  61 2.28
  30  0.625  0.375  0.375-  36 2.26  40 2.26  58 2.28  62 2.28
  31  0.125  0.875  0.375-  33 2.26  37 2.26  59 2.28  63 2.28
  32  0.625  0.875  0.375-  34 2.26  38 2.26  60 2.28  64 2.28
  33  0.999  0.002  0.500-  24 2.26  31 2.26  26 2.26  17 2.27
  34  0.499  0.002  0.500-  23 2.26  32 2.26  25 2.26  18 2.27
  35  0.999  0.502  0.500-  22 2.26  29 2.26  28 2.26  19 2.27
  36  0.499  0.502  0.500-  21 2.26  30 2.26  27 2.26  20 2.27
  37  0.251  0.002  0.250-   7 2.26  31 2.26  25 2.26   1 2.27
  38  0.751  0.002  0.250-   8 2.26  32 2.26  26 2.26   2 2.27
  39  0.251  0.502  0.250-   5 2.26  29 2.26  27 2.26   3 2.27
  40  0.751  0.502  0.250-   6 2.26  30 2.26  28 2.26   4 2.27
  41  0.249  0.252  0.000-   1 2.26  13 2.26   9 2.26   5 2.27
  42  0.749  0.252  0.000-   2 2.26  14 2.26  10 2.26   6 2.27
  43  0.249  0.752  0.000-   3 2.26  15 2.26  11 2.26   7 2.27
  44  0.749  0.752  0.000-   4 2.26  16 2.26  12 2.26   8 2.27
  45  0.001  0.252  0.750-  17 2.26  14 2.26   9 2.26  22 2.27
  46  0.501  0.252  0.750-  18 2.26  13 2.26  10 2.26  21 2.27
  47  0.001  0.752  0.750-  19 2.26  16 2.26  11 2.26  24 2.27
  48  0.501  0.752  0.750-  20 2.26  15 2.26  12 2.26  23 2.27
  49  1.000  0.002  0.000-   8 2.27  11 2.27  14 2.28   1 2.28
  50  0.500  0.002  0.000-   7 2.27  12 2.27  13 2.28   2 2.28
  51  1.000  0.502  0.000-   6 2.27   9 2.27  16 2.28   3 2.28
  52  0.500  0.502  0.000-   5 2.27  10 2.27  15 2.28   4 2.28
  53  0.250  0.002  0.750-  23 2.27  11 2.27  13 2.28  17 2.28
  54  0.750  0.002  0.750-  24 2.27  12 2.27  14 2.28  18 2.28
  55  0.250  0.502  0.750-  21 2.27   9 2.27  15 2.28  19 2.28
  56  0.750  0.502  0.750-  22 2.27  10 2.27  16 2.28  20 2.28
  57  0.250  0.252  0.500-  17 2.27  25 2.27  29 2.28  21 2.28
  58  0.750  0.252  0.500-  18 2.27  26 2.27  30 2.28  22 2.28
  59  0.250  0.752  0.500-  19 2.27  27 2.27  31 2.28  23 2.28
  60  0.750  0.752  0.500-  20 2.27  28 2.27  32 2.28  24 2.28
  61  0.000  0.252  0.250-   1 2.27  26 2.27  29 2.28   6 2.28
  62  0.500  0.252  0.250-   2 2.27  25 2.27  30 2.28   5 2.28
  63  0.000  0.752  0.250-   3 2.27  28 2.27  31 2.28   8 2.28
  64  0.500  0.752  0.250-   4 2.27  27 2.27  32 2.28   7 2.28
 
  LATTYP: Found a simple monoclinic cell.
 ALAT       =    15.0603777898
 B/A-ratio  =     0.6985401792
 C/A-ratio  =     1.5709227534
 COS(beta)  =    -0.9517694126
  
  Lattice vectors:
  
 A1 = ( -10.7007190000,   0.0000000000, -10.5976220000)
 A2 = (   0.0000000000, -10.5202790000,   0.0000000000)
 A3 = (  10.8913890000,   0.0000000000,  21.0026490000)


Analysis of symmetry for initial positions (statically):
=====================================================================
 Subroutine PRICEL returns following result:
 
  LATTYP: Found a base centered monoclinic cell.
 ALAT       =    11.4855383159
 B/A-ratio  =     0.4579793611
 C/A-ratio  =     0.9060762815
 COS(beta)  =    -0.8085493886
  
  Lattice vectors:
  
 A1 = (  -2.5321772500,  -2.6300697500,   5.1543647500)
 A2 = (  -2.5321772500,   2.6300697500,   5.1543647500)
 A3 = (  -0.1906700000,   0.0000000000, -10.4050270000)
 
   8 primitive cells build up your supercell.
 

 Routine SETGRP: Setting up the symmetry group for a 
 simple monoclinic supercell.


 Subroutine GETGRP returns: Found  2 space group operations
 (whereof  1 operations were pure point group operations)
 out of a pool of  4 trial point group operations.


The static configuration has the point symmetry C_1 .
 The point group associated with its full space group is C_2 .


Analysis of symmetry for dynamics (positions and initial velocities):
=====================================================================
 Subroutine PRICEL returns following result:
 
  LATTYP: Found a base centered monoclinic cell.
 ALAT       =    11.4855383159
 B/A-ratio  =     0.4579793611
 C/A-ratio  =     0.9060762815
 COS(beta)  =    -0.8085493886
  
  Lattice vectors:
  
 A1 = (  -2.5321772500,  -2.6300697500,   5.1543647500)
 A2 = (  -2.5321772500,   2.6300697500,   5.1543647500)
 A3 = (  -0.1906700000,   0.0000000000, -10.4050270000)
 
   8 primitive cells build up your supercell.
 

 Routine SETGRP: Setting up the symmetry group for a 
 simple monoclinic supercell.


 Subroutine GETGRP returns: Found  2 space group operations
 (whereof  1 operations were pure point group operations)
 out of a pool of  4 trial point group operations.


The dynamic configuration has the point symmetry C_1 .
 The point group associated with its full space group is C_2 .


Analysis of structural, dynamic, and magnetic symmetry:
=====================================================================
 Subroutine PRICEL returns following result:
 
  LATTYP: Found a base centered monoclinic cell.
 ALAT       =    11.4855383159
 B/A-ratio  =     0.4579793611
 C/A-ratio  =     0.9060762815
 COS(beta)  =    -0.8085493886
  
  Lattice vectors:
  
 A1 = (  -2.5321772500,  -2.6300697500,   5.1543647500)
 A2 = (  -2.5321772500,   2.6300697500,   5.1543647500)
 A3 = (  -0.1906700000,   0.0000000000, -10.4050270000)
 
   8 primitive cells build up your supercell.
 

 Routine SETGRP: Setting up the symmetry group for a 
 simple monoclinic supercell.


 Subroutine GETGRP returns: Found  2 space group operations
 (whereof  1 operations were pure point group operations)
 out of a pool of  4 trial point group operations.


The magnetic configuration has the point symmetry C_1 .
 The point group associated with its full space group is C_2 .


 Subroutine INISYM returns: Found  2 space group operations
 (whereof  1 operations are pure point group operations),
 and found     8 'primitive' translations

 
 
 KPOINTS: Automatic mesh                          

Automatic generation of k-mesh.
Space group operators:
 irot       det(A)        alpha          n_x          n_y          n_z        tau_x        tau_y        tau_z
    1     1.000000     0.000001     1.000000     0.000000     0.000000     0.000000     0.000000     0.000000
    2     1.000000   180.000000     0.000000     1.000000     0.000000    -0.250000    -0.000000    -0.250000
 
 Subroutine IBZKPT returns following result:
 ===========================================
 
 Found      8 irreducible k-points:
 
 Following reciprocal coordinates:
            Coordinates               Weight
  0.000000  0.000000  0.000000      1.000000
  0.500000  0.000000  0.000000      1.000000
  0.000000  0.500000  0.000000      1.000000
  0.500000  0.500000  0.000000      1.000000
 -0.000000  0.000000  0.500000      1.000000
  0.500000  0.000000  0.500000      1.000000
 -0.000000  0.500000  0.500000      1.000000
  0.500000  0.500000  0.500000      1.000000
 
 Following cartesian coordinates:
            Coordinates               Weight
  0.000000  0.000000  0.000000      1.000000
  0.047589  0.000000 -0.000872      1.000000
  0.000000  0.047527  0.000000      1.000000
  0.047589  0.047527 -0.000872      1.000000
 -0.000881  0.000000  0.048070      1.000000
  0.046709  0.000000  0.047198      1.000000
 -0.000881  0.047527  0.048070      1.000000
  0.046709  0.047527  0.047198      1.000000
 
 TETIRR: Found     24 inequivalent tetrahedra from       48
 
 Subroutine IBZKPT_HF returns following result:
 ==============================================
 
 Found      8 k-points in 1st BZ
 the following      8 k-points will be used (e.g. in the exchange kernel)
 Following reciprocal coordinates:   # in IRBZ
  0.000000  0.000000  0.000000    0.12500000   1 t-inv F
  0.500000  0.000000  0.000000    0.12500000   2 t-inv F
  0.000000  0.500000  0.000000    0.12500000   3 t-inv F
  0.500000  0.500000  0.000000    0.12500000   4 t-inv F
 -0.000000  0.000000  0.500000    0.12500000   5 t-inv F
  0.500000  0.000000  0.500000    0.12500000   6 t-inv F
 -0.000000  0.500000  0.500000    0.12500000   7 t-inv F
  0.500000  0.500000  0.500000    0.12500000   8 t-inv F


--------------------------------------------------------------------------------------------------------




 Dimension of arrays:
   k-points           NKPTS =      8   k-points in BZ     NKDIM =      8   number of bands    NBANDS=    512
   number of dos      NEDOS =    301   number of ions     NIONS =     64
   non local maximal  LDIM  =      6   non local SUM 2l+1 LMDIM =     18
   total plane-waves  NPLWV = 829440
   max r-space proj   IRMAX =      1   max aug-charges    IRDMAX=  22918
   dimension x,y,z NGX =    96 NGY =   96 NGZ =   90
   dimension x,y,z NGXF=   192 NGYF=  192 NGZF=  180
   support grid    NGXF=   192 NGYF=  192 NGZF=  180
   ions per type =              32  16  16
   NGX,Y,Z   is equivalent  to a cutoff of  15.18, 15.17, 14.38 a.u.
   NGXF,Y,Z  is equivalent  to a cutoff of  30.37, 30.34, 28.75 a.u.

 SYSTEM =  CuFeS2                                  
 POSCAR =  Fe16 Cu16 S32                           

 Startparameter for this run:
   NWRITE =      2    write-flag & timer
   PREC   = accura    normal or accurate (medium, high low for compatibility)
   ISTART =      0    job   : 0-new  1-cont  2-samecut
   ICHARG =      1    charge: 1-file 2-atom 10-const
   ISPIN  =      2    spin polarized calculation?
   LNONCOLLINEAR =      F non collinear calculations
   LSORBIT =      F    spin-orbit coupling
   INIWAV =      1    electr: 0-lowe 1-rand  2-diag
   LASPH  =      F    aspherical Exc in radial PAW
   METAGGA=      F    non-selfconsistent MetaGGA calc.

 Electronic Relaxation 1
   ENCUT  =  700.0 eV  51.45 Ry    7.17 a.u.  22.68 22.70 22.45*2*pi/ulx,y,z
   ENINI  =  700.0     initial cutoff
   ENAUG  =  758.2 eV  augmentation charge cutoff
   NELM   =    500;   NELMIN=  2; NELMDL=  0     # of ELM steps 
   EDIFF  = 0.1E-07   stopping-criterion for ELM
   LREAL  =      F    real-space projection
   NLSPLINE    = F    spline interpolate recip. space projectors
   LCOMPAT=      F    compatible to vasp.4.4
   GGA_COMPAT  = T    GGA compatible to vasp.4.4-vasp.4.6
   LMAXPAW     = -100 max onsite density
   LMAXMIX     =    4 max onsite mixed and CHGCAR
   VOSKOWN=      0    Vosko Wilk Nusair interpolation
   ROPT   =    0.00000   0.00000   0.00000
 Ionic relaxation
   EDIFFG = -.1E-04   stopping-criterion for IOM
   NSW    =      0    number of steps for IOM
   NBLOCK =      1;   KBLOCK =      1    inner block; outer block 
   IBRION =     -1    ionic relax: 0-MD 1-quasi-New 2-CG
   NFREE  =      0    steps in history (QN), initial steepest desc. (CG)
   ISIF   =      2    stress and relaxation
   IWAVPR =     10    prediction:  0-non 1-charg 2-wave 3-comb
   ISYM   =      2    0-nonsym 1-usesym 2-fastsym
   LCORR  =      T    Harris-Foulkes like correction to forces

   POTIM  = 0.5000    time-step for ionic-motion
   TEIN   =    0.0    initial temperature
   TEBEG  =    0.0;   TEEND  =   0.0 temperature during run
   SMASS  =  -3.00    Nose mass-parameter (am)
   estimated Nose-frequenzy (Omega)   =  0.10E-29 period in steps =****** mass=  -0.253E-26a.u.
   SCALEE = 1.0000    scale energy and forces
   NPACO  =    256;   APACO  = 16.0  distance and # of slots for P.C.
   PSTRESS=    0.0 pullay stress

  Mass of Ions in am
   POMASS =  32.07 63.55 55.85
  Ionic Valenz
   ZVAL   =   6.00 17.00 14.00
  Atomic Wigner-Seitz radii
   RWIGS  =  -1.00 -1.00 -1.00
  virtual crystal weights 
   VCA    =   1.00  1.00  1.00
   NELECT =     688.0000    total number of electrons
   NUPDOWN=      -1.0000    fix difference up-down

 DOS related values:
   EMIN   =  10.00;   EMAX   =-10.00  energy-range for DOS
   EFERMI =   0.00
   ISMEAR =    -5;   SIGMA  =   0.03  broadening in eV -4-tet -1-fermi 0-gaus

 Electronic relaxation 2 (details)
   IALGO  =     38    algorithm
   LDIAG  =      T    sub-space diagonalisation (order eigenvalues)
   LSUBROT=      F    optimize rotation matrix (better conditioning)
   TURBO    =      0    0=normal 1=particle mesh
   IRESTART =      0    0=no restart 2=restart with 2 vectors
   NREBOOT  =      0    no. of reboots
   NMIN     =      0    reboot dimension
   EREF     =   0.00    reference energy to select bands
   IMIX   =      4    mixing-type and parameters
     AMIX     =   0.40;   BMIX     =  1.00
     AMIX_MAG =   1.60;   BMIX_MAG =  1.00
     AMIN     =   0.10
     WC   =   100.;   INIMIX=   1;  MIXPRE=   1;  MAXMIX= -45

 Intra band minimization:
   WEIMIN = 0.0000     energy-eigenvalue tresh-hold
   EBREAK =  0.49E-11  absolut break condition
   DEPER  =   0.30     relativ break condition  

   TIME   =   0.40     timestep for ELM

  volume/ion in A,a.u.               =      17.97       121.27
  Fermi-wavevector in a.u.,A,eV,Ry     =   1.379414  2.606714 25.888922  1.902782
  Thomas-Fermi vector in A             =   2.504385
 
 Write flags
   LWAVE        =      T    write WAVECAR
   LDOWNSAMPLE  =      F    k-point downsampling of WAVECAR
   LCHARG       =      T    write CHGCAR
   LVTOT        =      F    write LOCPOT, total local potential
   LVHAR        =      F    write LOCPOT, Hartree potential only
   LELF         =      F    write electronic localiz. function (ELF)
   LORBIT       =     11    0 simple, 1 ext, 2 COOP (PROOUT), +10 PAW based schemes


 Dipole corrections
   LMONO  =      F    monopole corrections only (constant potential shift)
   LDIPOL =      F    correct potential (dipole corrections)
   IDIPOL =      0    1-x, 2-y, 3-z, 4-all directions 
   EPSILON=  1.0000000 bulk dielectric constant

 LDA+U is selected, type is set to LDAUTYPE =  2
   angular momentum for each species LDAUL =     2    2    2
   U (eV)           for each species LDAUU =   0.0  0.1  4.7
   J (eV)           for each species LDAUJ =   0.0  0.0  0.0
 Exchange correlation treatment:
   GGA     =    PS    GGA type
   LEXCH   =    14    internal setting for exchange type
   VOSKOWN=      0    Vosko Wilk Nusair interpolation
   LHFCALC =     F    Hartree Fock is set to
   LHFONE  =     F    Hartree Fock one center treatment
   AEXX    =    0.0000 exact exchange contribution

 Linear response parameters
   LEPSILON=     F    determine dielectric tensor
   LRPA    =     F    only Hartree local field effects (RPA)
   LNABLA  =     F    use nabla operator in PAW spheres
   LVEL    =     F    velocity operator in full k-point grid
   LINTERFAST=   F  fast interpolation
   KINTER  =     0    interpolate to denser k-point grid
   CSHIFT  =0.1000    complex shift for real part using Kramers Kronig
   OMEGAMAX=  -1.0    maximum frequency
   DEG_THRESHOLD= 0.2000000E-02 threshold for treating states as degnerate
   RTIME   =   -0.100 relaxation time in fs
  (WPLASMAI=    0.000 imaginary part of plasma frequency in eV, 0.658/RTIME)
   DFIELD  = 0.0000000 0.0000000 0.0000000 field for delta impulse in time
 
 Orbital magnetization related:
   ORBITALMAG=     F  switch on orbital magnetization
   LCHIMAG   =     F  perturbation theory with respect to B field
   DQ        =  0.001000  dq finite difference perturbation B field
   LLRAUG    =     F  two centre corrections for induced B field

 PEAD related settings:
   LPEAD      =     T    switch on PEAD
   IPEAD      =     4    finite difference order for dpsi/dk
   LCALCPOL   =     T    calculate macroscopic polarization
   LCALCEPS   =     F    calculate dielectric tensor
   EFIELD_PEAD=    0.0000    0.0000    0.0000
   SKIP_EDOTP =     F
   LRPA       =     F
   SKIP_SCF   =     F


--------------------------------------------------------------------------------------------------------


 Static calculation
 charge density and potential will be updated during run
 spin polarized calculation
 Variant of blocked Davidson
 Davidson routine will perform the subspace rotation
 perform sub-space diagonalisation
    after iterative eigenvector-optimisation
 modified Broyden-mixing scheme, WC =      100.0
 initial mixing is a Kerker type mixing with AMIX =  0.4000 and BMIX =      1.0000
 Hartree-type preconditioning will be used
 using additional bands          168
 reciprocal scheme for non local part
 use partial core corrections
 calculate Harris-corrections to forces 
   (improved forces if not selfconsistent)
 use gradient corrections 
 use of overlap-Matrix (Vanderbilt PP)
 Fermi weights with tetrahedron method with Bloechl corrections


--------------------------------------------------------------------------------------------------------


  energy-cutoff  :      700.00
  volume of cell :     1150.08
      direct lattice vectors                 reciprocal lattice vectors
    10.510049000  0.000000000  0.192595000     0.095178996  0.000000000 -0.001744136
     0.000000000 10.520279000  0.000000000     0.000000000  0.095054513  0.000000000
     0.190670000  0.000000000 10.405027000    -0.001761744  0.000000000  0.096139675

  length of vectors
    10.511813488 10.520279000 10.406773848     0.095194975  0.095054513  0.096155815


 
 k-points in units of 2pi/SCALE and weight: Automatic mesh                          
   0.00000000  0.00000000  0.00000000       0.125
   0.04758950  0.00000000 -0.00087207       0.125
   0.00000000  0.04752726  0.00000000       0.125
   0.04758950  0.04752726 -0.00087207       0.125
  -0.00088087  0.00000000  0.04806984       0.125
   0.04670863  0.00000000  0.04719777       0.125
  -0.00088087  0.04752726  0.04806984       0.125
   0.04670863  0.04752726  0.04719777       0.125
 
 k-points in reciprocal lattice and weights: Automatic mesh                          
   0.00000000  0.00000000  0.00000000       0.125
   0.50000000  0.00000000  0.00000000       0.125
   0.00000000  0.50000000  0.00000000       0.125
   0.50000000  0.50000000  0.00000000       0.125
  -0.00000000  0.00000000  0.50000000       0.125
   0.50000000  0.00000000  0.50000000       0.125
  -0.00000000  0.50000000  0.50000000       0.125
   0.50000000  0.50000000  0.50000000       0.125
 
 position of ions in fractional coordinates (direct lattice) 
   0.12626000  0.12264900  0.12534800
   0.62626000  0.12264900  0.12534800
   0.12626000  0.62264900  0.12534800
   0.62626000  0.62264900  0.12534800
   0.37374000  0.37264900  0.12465200
   0.87374000  0.37264900  0.12465200
   0.37374000  0.87264900  0.12465200
   0.87374000  0.87264900  0.12465200
   0.12500000  0.37249400  0.87500000
   0.62500000  0.37249400  0.87500000
   0.12500000  0.87249400  0.87500000
   0.62500000  0.87249400  0.87500000
   0.37500000  0.12453100  0.87500000
   0.87500000  0.12453100  0.87500000
   0.37500000  0.62453100  0.87500000
   0.87500000  0.62453100  0.87500000
   0.12374000  0.12264900  0.62465200
   0.62374000  0.12264900  0.62465200
   0.12374000  0.62264900  0.62465200
   0.62374000  0.62264900  0.62465200
   0.37626000  0.37264900  0.62534800
   0.87626000  0.37264900  0.62534800
   0.37626000  0.87264900  0.62534800
   0.87626000  0.87264900  0.62534800
   0.37500000  0.12249400  0.37500000
   0.87500000  0.12249400  0.37500000
   0.37500000  0.62249400  0.37500000
   0.87500000  0.62249400  0.37500000
   0.12500000  0.37453100  0.37500000
   0.62500000  0.37453100  0.37500000
   0.12500000  0.87453100  0.37500000
   0.62500000  0.87453100  0.37500000
   0.99914800  0.00194600  0.50000400
   0.49914800  0.00194600  0.50000400
   0.99914800  0.50194600  0.50000400
   0.49914800  0.50194600  0.50000400
   0.25085200  0.00194600  0.24999600
   0.75085200  0.00194600  0.24999600
   0.25085200  0.50194600  0.24999600
   0.75085200  0.50194600  0.24999600
   0.24914800  0.25194600  0.00000400
   0.74914800  0.25194600  0.00000400
   0.24914800  0.75194600  0.00000400
   0.74914800  0.75194600  0.00000400
   0.00085200  0.25194600  0.74999600
   0.50085200  0.25194600  0.74999600
   0.00085200  0.75194600  0.74999600
   0.50085200  0.75194600  0.74999600
   0.99950500  0.00189300  0.00028100
   0.49950500  0.00189300  0.00028100
   0.99950500  0.50189300  0.00028100
   0.49950500  0.50189300  0.00028100
   0.25049500  0.00189300  0.74971900
   0.75049500  0.00189300  0.74971900
   0.25049500  0.50189300  0.74971900
   0.75049500  0.50189300  0.74971900
   0.24950500  0.25189300  0.50028100
   0.74950500  0.25189300  0.50028100
   0.24950500  0.75189300  0.50028100
   0.74950500  0.75189300  0.50028100
   0.00049500  0.25189300  0.24971900
   0.50049500  0.25189300  0.24971900
   0.00049500  0.75189300  0.24971900
   0.50049500  0.75189300  0.24971900
 
 position of ions in cartesian coordinates  (Angst):
   1.35089889  1.29030170  1.32856637
   6.60592339  1.29030170  1.42486387
   1.35089889  6.55044120  1.32856637
   6.60592339  6.55044120  1.42486387
   3.95179311  3.92037145  1.36898788
   9.20681761  3.92037145  1.46528538
   3.95179311  9.18051095  1.36898788
   9.20681761  9.18051095  1.46528538
   1.48059238  3.91874081  9.12847300
   6.73561688  3.91874081  9.22477050
   1.48059238  9.17888031  9.12847300
   6.73561688  9.17888031  9.22477050
   4.10810463  1.31010086  9.17662175
   9.36312913  1.31010086  9.27291925
   4.10810463  6.57024036  9.17662175
   9.36312913  6.57024036  9.27291925
   1.41961586  1.29030170  6.52335263
   6.67464036  1.29030170  6.61965013
   1.41961586  6.55044120  6.52335263
   6.67464036  6.55044120  6.61965013
   4.07374614  3.92037145  6.57922862
   9.32877064  3.92037145  6.67552612
   4.07374614  9.18051095  6.57922862
   9.32877064  9.18051095  6.67552612
   4.01276962  1.28867106  3.97410825
   9.26779413  1.28867106  4.07040575
   4.01276962  6.54881056  3.97410825
   9.26779413  6.54881056  4.07040575
   1.38525738  3.94017061  3.92595950
   6.64028188  3.94017061  4.02225700
   1.38525738  9.20031011  3.92595950
   6.64028188  9.20031011  4.02225700
  10.59643020  0.02047246  5.39498603
   5.34140570  0.02047246  5.29868853
  10.59643020  5.28061196  5.39498603
   5.34140570  5.28061196  5.29868853
   2.68413355  0.02047246  2.64952797
   7.93915805  0.02047246  2.74582547
   2.68413355  5.28061196  2.64952797
   7.93915805  5.28061196  2.74582547
   2.61855845  2.65054221  0.04802628
   7.87358295  2.65054221  0.14432378
   2.61855845  7.91068171  0.04802628
   7.87358295  7.91068171  0.14432378
   0.15195630  2.65054221  7.80389272
   5.40698080  2.65054221  7.90019022
   0.15195630  7.91068171  7.80389272
   5.40698080  7.91068171  7.90019022
  10.50490010  0.01991489  0.19542348
   5.24987560  0.01991489  0.09912598
  10.50490010  5.28005439  0.19542348
   5.24987560  5.28005439  0.09912598
   2.77566365  0.01991489  7.84909052
   8.03068815  0.01991489  7.94538802
   2.77566365  5.28005439  7.84909052
   8.03068815  5.28005439  7.94538802
   2.71769835  2.64998464  5.25349073
   7.97272285  2.64998464  5.34978823
   2.71769835  7.91012414  5.25349073
   7.97272285  7.91012414  5.34978823
   0.05281640  2.64998464  2.59842827
   5.30784090  2.64998464  2.69472577
   0.05281640  7.91012414  2.59842827
   5.30784090  7.91012414  2.69472577
 


--------------------------------------------------------------------------------------------------------


 k-point  1 :   0.0000 0.0000 0.0000  plane waves:   48413
 k-point  2 :   0.5000 0.0000 0.0000  plane waves:   48388
 k-point  3 :   0.0000 0.5000 0.0000  plane waves:   48418
 k-point  4 :   0.5000 0.5000 0.0000  plane waves:   48376
 k-point  5 :  -0.0000 0.0000 0.5000  plane waves:   48352
 k-point  6 :   0.5000 0.0000 0.5000  plane waves:   48392
 k-point  7 :  -0.0000 0.5000 0.5000  plane waves:   48324
 k-point  8 :   0.5000 0.5000 0.5000  plane waves:   48280

 maximum and minimum number of plane-waves per node :     48418    48280

 maximum number of plane-waves:     48418
 maximum index in each direction: 
   IXMAX=   22   IYMAX=   22   IZMAX=   22
   IXMIN=  -23   IYMIN=  -23   IZMIN=  -22


 serial   3D FFT for wavefunctions
 parallel 3D FFT for charge:
    minimum data exchange during FFTs selected (reduces bandwidth)


 total amount of memory used by VASP MPI-rank0   349631. kBytes
=======================================================================

   base      :      30000. kBytes
   nonl-proj :     217907. kBytes
   fftplans  :       4588. kBytes
   grid      :      69719. kBytes
   one-center:       1990. kBytes
   wavefun   :      25427. kBytes
 
     INWAV:  cpu time    0.0000: real time    0.0000
 Broyden mixing: mesh for mixing (old mesh)
   NGX = 45   NGY = 45   NGZ = 45
  (NGX  =192   NGY  =192   NGZ  =180)
  gives a total of  91125 points

 initial charge density was supplied:
 number of electron     687.9999924 magnetization       0.0000000
 keeping initial charge density in first step


--------------------------------------------------------------------------------------------------------


 Maximum index for augmentation-charges          897 (set IRDMAX)


--------------------------------------------------------------------------------------------------------


 First call to EWALD:  gamma=   0.169
 Maximum number of real-space cells 3x 3x 3
 Maximum number of reciprocal cells 3x 3x 3

    FEWALD:  cpu time    0.0028: real time    0.0028


--------------------------------------- Iteration      1(   1)  ---------------------------------------


    POTLOK:  cpu time    0.3228: real time    0.3654
    SETDIJ:  cpu time    0.0144: real time    0.0145
     EDDAV:  cpu time   84.5819: real time   85.2840
 BZINTS: Fermi energy: 14.747499;688.000000 electrons
         Band energy:***********;  BLOECHL correction: -0.027229
       DOS:  cpu time    0.0409: real time    0.0411
    --------------------------------------------
      LOOP:  cpu time   84.9601: real time   85.7050

 eigenvalue-minimisations  : 16384
 total energy-change (2. order) : 0.6022372E+04  (-0.5183510E+05)
 number of electron     687.9999924 magnetization       0.0000000
 augmentation part      687.9999924 magnetization       0.0000000

 Free energy of the ion-electron system (eV)
  ---------------------------------------------------
  alpha Z        PSCENC =      2357.35117396
  Ewald energy   TEWEN  =    -62483.57977224
  -Hartree energ DENC   =    -42773.27030652
  -exchange      EXHF   =         0.00000000
  -V(xc)+E(xc)   XCENC  =      3281.81122308
  PAW double counting   =    112137.10810081  -115828.64214528
  entropy T*S    EENTRO =         0.00000000
  eigenvalues    EBANDS =     -4688.47148968
  atomic energy  EATOM  =    114020.06510763
  Solvation  Ediel_sol  =         0.00000000
  ---------------------------------------------------
  free energy    TOTEN  =      6022.37189175 eV

  energy without entropy =     6022.37189175  energy(sigma->0) =     6022.37189175


--------------------------------------------------------------------------------------------------------




--------------------------------------- Iteration      1(   2)  ---------------------------------------


     EDDAV:  cpu time  107.1182: real time  107.9263
 BZINTS: Fermi energy:  5.219356;688.000000 electrons
         Band energy:***********;  BLOECHL correction: -0.014196
       DOS:  cpu time    0.0326: real time    0.0327
    --------------------------------------------
      LOOP:  cpu time  107.1507: real time  107.9590

 eigenvalue-minimisations  : 18944
 total energy-change (2. order) :-0.6141522E+04  (-0.6034281E+04)
 number of electron     687.9999924 magnetization       0.0000000
 augmentation part      687.9999924 magnetization       0.0000000

 Free energy of the ion-electron system (eV)
  ---------------------------------------------------
  alpha Z        PSCENC =      2357.35117396
  Ewald energy   TEWEN  =    -62483.57977224
  -Hartree energ DENC   =    -42773.27030652
  -exchange      EXHF   =         0.00000000
  -V(xc)+E(xc)   XCENC  =      3281.81122308
  PAW double counting   =    112137.10810081  -115828.64214528
  entropy T*S    EENTRO =         0.00000000
  eigenvalues    EBANDS =    -10829.99341495
  atomic energy  EATOM  =    114020.06510763
  Solvation  Ediel_sol  =         0.00000000
  ---------------------------------------------------
  free energy    TOTEN  =      -119.15003352 eV

  energy without entropy =     -119.15003352  energy(sigma->0) =     -119.15003352


--------------------------------------------------------------------------------------------------------




--------------------------------------- Iteration      1(   3)  ---------------------------------------


     EDDAV:  cpu time  145.8062: real time  146.8391
 BZINTS: Fermi energy:  4.790862;688.000000 electrons
         Band energy:***********;  BLOECHL correction:  0.000000
       DOS:  cpu time    0.0059: real time    0.0059
    --------------------------------------------
      LOOP:  cpu time  145.8120: real time  146.8450

 eigenvalue-minimisations  : 22016
 total energy-change (2. order) :-0.2391569E+03  (-0.2385157E+03)
 number of electron     687.9999924 magnetization       0.0000000
 augmentation part      687.9999924 magnetization       0.0000000

 Free energy of the ion-electron system (eV)
  ---------------------------------------------------
  alpha Z        PSCENC =      2357.35117396
  Ewald energy   TEWEN  =    -62483.57977224
  -Hartree energ DENC   =    -42773.27030652
  -exchange      EXHF   =         0.00000000
  -V(xc)+E(xc)   XCENC  =      3281.81122308
  PAW double counting   =    112137.10810081  -115828.64214528
  entropy T*S    EENTRO =         0.00000000
  eigenvalues    EBANDS =    -11069.15030736
  atomic energy  EATOM  =    114020.06510763
  Solvation  Ediel_sol  =         0.00000000
  ---------------------------------------------------
  free energy    TOTEN  =      -358.30692594 eV

  energy without entropy =     -358.30692594  energy(sigma->0) =     -358.30692594


--------------------------------------------------------------------------------------------------------




--------------------------------------- Iteration      1(   4)  ---------------------------------------


     EDDAV:  cpu time  144.3825: real time  145.3979
 BZINTS: Fermi energy:  4.835562;688.000000 electrons
         Band energy:***********;  BLOECHL correction:  0.000000
       DOS:  cpu time    0.0067: real time    0.0067
    --------------------------------------------
      LOOP:  cpu time  144.3891: real time  145.4046

 eigenvalue-minimisations  : 21248
 total energy-change (2. order) :-0.3327382E+01  (-0.3327255E+01)
 number of electron     687.9999924 magnetization       0.0000000
 augmentation part      687.9999924 magnetization       0.0000000

 Free energy of the ion-electron system (eV)
  ---------------------------------------------------
  alpha Z        PSCENC =      2357.35117396
  Ewald energy   TEWEN  =    -62483.57977224
  -Hartree energ DENC   =    -42773.27030652
  -exchange      EXHF   =         0.00000000
  -V(xc)+E(xc)   XCENC  =      3281.81122308
  PAW double counting   =    112137.10810081  -115828.64214528
  entropy T*S    EENTRO =         0.00000000
  eigenvalues    EBANDS =    -11072.47768960
  atomic energy  EATOM  =    114020.06510763
  Solvation  Ediel_sol  =         0.00000000
  ---------------------------------------------------
  free energy    TOTEN  =      -361.63430818 eV

  energy without entropy =     -361.63430818  energy(sigma->0) =     -361.63430818


--------------------------------------------------------------------------------------------------------




--------------------------------------- Iteration      1(   5)  ---------------------------------------


     EDDAV:  cpu time  133.0965: real time  134.0536
 BZINTS: Fermi energy:  4.819435;688.000000 electrons
         Band energy:***********;  BLOECHL correction:  0.000000
       DOS:  cpu time    0.0058: real time    0.0059
    CHARGE:  cpu time    1.4491: real time    1.4597
    MIXING:  cpu time    0.0026: real time    0.0026
    --------------------------------------------
      LOOP:  cpu time  134.5540: real time  135.5218

 eigenvalue-minimisations  : 20480
 total energy-change (2. order) :-0.1064541E+00  (-0.1064537E+00)
 number of electron     688.0000225 magnetization       0.0000000
 augmentation part      284.8345524 magnetization       0.0000000

 Broyden mixing:
  rms(total) = 0.44795E+01    rms(broyden)= 0.44789E+01
  rms(prec ) = 0.50337E+01
  weight for this iteration     100.00

 Free energy of the ion-electron system (eV)
  ---------------------------------------------------
  alpha Z        PSCENC =      2357.35117396
  Ewald energy   TEWEN  =    -62483.57977224
  -Hartree energ DENC   =    -42773.27030652
  -exchange      EXHF   =         0.00000000
  -V(xc)+E(xc)   XCENC  =      3281.81122308
  PAW double counting   =    112137.10810081  -115828.64214528
  entropy T*S    EENTRO =         0.00000000
  eigenvalues    EBANDS =    -11072.58414366
  atomic energy  EATOM  =    114020.06510763
  Solvation  Ediel_sol  =         0.00000000
  ---------------------------------------------------
  free energy    TOTEN  =      -361.74076223 eV

  energy without entropy =     -361.74076223  energy(sigma->0) =     -361.74076223


--------------------------------------------------------------------------------------------------------




--------------------------------------- Iteration      1(   6)  ---------------------------------------


    POTLOK:  cpu time    0.1303: real time    0.1324
    SETDIJ:  cpu time    0.0128: real time    0.0131
     EDDAV:  cpu time  181.4890: real time  182.7444
 BZINTS: Fermi energy:  4.967303;688.000000 electrons
         Band energy:***********;  BLOECHL correction:  0.000000
       DOS:  cpu time    0.0059: real time    0.0059
    CHARGE:  cpu time    1.3986: real time    1.4092
    MIXING:  cpu time    0.0025: real time    0.0178
    --------------------------------------------
      LOOP:  cpu time  183.0392: real time  184.3228

 eigenvalue-minimisations  : 26112
 total energy-change (2. order) : 0.2538323E+02  (-0.2928809E+01)
 number of electron     688.0000222 magnetization       0.0000000
 augmentation part      280.5077192 magnetization       0.0000000

 Broyden mixing:
  rms(total) = 0.25244E+01    rms(broyden)= 0.25244E+01
  rms(prec ) = 0.28252E+01
  weight for this iteration     100.00

 eigenvalues of (default mixing * dielectric matrix)
  average eigenvalue GAMMA=   0.7730
  0.7730

 Free energy of the ion-electron system (eV)
  ---------------------------------------------------
  alpha Z        PSCENC =      2357.35117396
  Ewald energy   TEWEN  =    -62483.57977224
  -Hartree energ DENC   =    -43015.40543016
  -exchange      EXHF   =         0.00000000
  -V(xc)+E(xc)   XCENC  =      3287.43722128
  PAW double counting   =    114835.19046814  -118557.83275013
  entropy T*S    EENTRO =         0.00000000
  eigenvalues    EBANDS =    -10779.58355426
  atomic energy  EATOM  =    114020.06510763
  Solvation  Ediel_sol  =         0.00000000
  ---------------------------------------------------
  free energy    TOTEN  =      -336.35753580 eV

  energy without entropy =     -336.35753580  energy(sigma->0) =     -336.35753580


--------------------------------------------------------------------------------------------------------




--------------------------------------- Iteration      1(   7)  ---------------------------------------


    POTLOK:  cpu time    0.1309: real time    0.1320
    SETDIJ:  cpu time    0.0130: real time    0.0131
     EDDAV:  cpu time  137.7473: real time  138.7275
 BZINTS: Fermi energy:  4.949290;688.000000 electrons
         Band energy:***********;  BLOECHL correction:  0.000000
       DOS:  cpu time    0.0065: real time    0.0065
    CHARGE:  cpu time    1.3980: real time    1.4078
    MIXING:  cpu time    0.0016: real time    0.0027
    --------------------------------------------
      LOOP:  cpu time  139.2973: real time  140.2895

 eigenvalue-minimisations  : 21248
 total energy-change (2. order) : 0.6916285E+01  (-0.1994993E+01)
 number of electron     688.0000224 magnetization       0.0000000
 augmentation part      283.3260865 magnetization       0.0000000

 Broyden mixing:
  rms(total) = 0.21392E+01    rms(broyden)= 0.21391E+01
  rms(prec ) = 0.22712E+01
  weight for this iteration     100.00

 eigenvalues of (default mixing * dielectric matrix)
  average eigenvalue GAMMA=   0.8757
  1.2872  0.4642

 Free energy of the ion-electron system (eV)
  ---------------------------------------------------
  alpha Z        PSCENC =      2357.35117396
  Ewald energy   TEWEN  =    -62483.57977224
  -Hartree energ DENC   =    -42881.47686496
  -exchange      EXHF   =         0.00000000
  -V(xc)+E(xc)   XCENC  =      3285.99956433
  PAW double counting   =    114253.18551333  -117938.04699904
  entropy T*S    EENTRO =         0.00000000
  eigenvalues    EBANDS =    -10942.93897333
  atomic energy  EATOM  =    114020.06510763
  Solvation  Ediel_sol  =         0.00000000
  ---------------------------------------------------
  free energy    TOTEN  =      -329.44125033 eV

  energy without entropy =     -329.44125033  energy(sigma->0) =     -329.44125033


--------------------------------------------------------------------------------------------------------




--------------------------------------- Iteration      1(   8)  ---------------------------------------


    POTLOK:  cpu time    0.1270: real time    0.1318
    SETDIJ:  cpu time    0.0129: real time    0.0129
     EDDAV:  cpu time  152.9496: real time  154.0184
 BZINTS: Fermi energy:  4.936341;688.000000 electrons
         Band energy:***********;  BLOECHL correction:  0.000000
       DOS:  cpu time    0.0064: real time    0.0064
    CHARGE:  cpu time    1.4514: real time    1.4624
    MIXING:  cpu time    0.0019: real time    0.0019
    --------------------------------------------
      LOOP:  cpu time  154.5491: real time  155.6339

 eigenvalue-minimisations  : 22528
 total energy-change (2. order) : 0.1334309E+01  (-0.1023935E+01)
 number of electron     688.0000225 magnetization       0.0000000
 augmentation part      282.9758376 magnetization       0.0000000

 Broyden mixing:
  rms(total) = 0.81184E+00    rms(broyden)= 0.81182E+00
  rms(prec ) = 0.88564E+00
  weight for this iteration     100.00

 eigenvalues of (default mixing * dielectric matrix)
  average eigenvalue GAMMA=   1.0123
  1.8753  0.7009  0.4608

 Free energy of the ion-electron system (eV)
  ---------------------------------------------------
  alpha Z        PSCENC =      2357.35117396
  Ewald energy   TEWEN  =    -62483.57977224
  -Hartree energ DENC   =    -42889.86626584
  -exchange      EXHF   =         0.00000000
  -V(xc)+E(xc)   XCENC  =      3285.04978596
  PAW double counting   =    113641.34316254  -117331.16342579
  entropy T*S    EENTRO =         0.00000000
  eigenvalues    EBANDS =    -10927.30670726
  atomic energy  EATOM  =    114020.06510763
  Solvation  Ediel_sol  =         0.00000000
  ---------------------------------------------------
  free energy    TOTEN  =      -328.10694105 eV

  energy without entropy =     -328.10694105  energy(sigma->0) =     -328.10694105


--------------------------------------------------------------------------------------------------------




--------------------------------------- Iteration      1(   9)  ---------------------------------------


    POTLOK:  cpu time    0.1472: real time    0.1483
    SETDIJ:  cpu time    0.0165: real time    0.0166
     EDDAV:  cpu time  150.1464: real time  151.1960
 BZINTS: Fermi energy:  5.004498;688.000000 electrons
         Band energy:***********;  BLOECHL correction:  0.000000
       DOS:  cpu time    0.0063: real time    0.0063
    CHARGE:  cpu time    1.3955: real time    1.4053
    MIXING:  cpu time    0.0016: real time    0.0016
    --------------------------------------------
      LOOP:  cpu time  151.7135: real time  152.7741

 eigenvalue-minimisations  : 21760
 total energy-change (2. order) : 0.1131181E+00  (-0.4408750E+00)
 number of electron     688.0000224 magnetization       0.0000000
 augmentation part      282.1206356 magnetization       0.0000000

 Broyden mixing:
  rms(total) = 0.53461E+00    rms(broyden)= 0.53460E+00
  rms(prec ) = 0.61228E+00
  weight for this iteration     100.00

 eigenvalues of (default mixing * dielectric matrix)
  average eigenvalue GAMMA=   0.9267
  1.8692  0.8182  0.6107  0.4085

 Free energy of the ion-electron system (eV)
  ---------------------------------------------------
  alpha Z        PSCENC =      2357.35117396
  Ewald energy   TEWEN  =    -62483.57977224
  -Hartree energ DENC   =    -42965.44674704
  -exchange      EXHF   =         0.00000000
  -V(xc)+E(xc)   XCENC  =      3287.44761145
  PAW double counting   =    113320.03549457  -117017.73011565
  entropy T*S    EENTRO =         0.00000000
  eigenvalues    EBANDS =    -10846.13657562
  atomic energy  EATOM  =    114020.06510763
  Solvation  Ediel_sol  =         0.00000000
  ---------------------------------------------------
  free energy    TOTEN  =      -327.99382296 eV

  energy without entropy =     -327.99382296  energy(sigma->0) =     -327.99382296


--------------------------------------------------------------------------------------------------------




--------------------------------------- Iteration      1(  10)  ---------------------------------------


    POTLOK:  cpu time    0.1295: real time    0.1311
    SETDIJ:  cpu time    0.0129: real time    0.0132
     EDDAV:  cpu time  159.2270: real time  160.3324
 BZINTS: Fermi energy:  4.962758;688.000000 electrons
         Band energy:***********;  BLOECHL correction:  0.000000
       DOS:  cpu time    0.0064: real time    0.0064
    CHARGE:  cpu time    1.3930: real time    1.4035
    MIXING:  cpu time    0.0016: real time    0.0016
    --------------------------------------------
      LOOP:  cpu time  160.7704: real time  161.8882

 eigenvalue-minimisations  : 22784
 total energy-change (2. order) : 0.3106345E-01  (-0.2563988E+00)
 number of electron     688.0000225 magnetization       0.0000000
 augmentation part      282.0410834 magnetization       0.0000000

 Broyden mixing:
  rms(total) = 0.36809E+00    rms(broyden)= 0.36808E+00
  rms(prec ) = 0.42299E+00
  weight for this iteration     100.00

 eigenvalues of (default mixing * dielectric matrix)
  average eigenvalue GAMMA=   0.9867
  1.7168  1.7168  0.6445  0.5403  0.3153

 Free energy of the ion-electron system (eV)
  ---------------------------------------------------
  alpha Z        PSCENC =      2357.35117396
  Ewald energy   TEWEN  =    -62483.57977224
  -Hartree energ DENC   =    -42945.17687448
  -exchange      EXHF   =         0.00000000
  -V(xc)+E(xc)   XCENC  =      3286.32028012
  PAW double counting   =    113026.89984950  -116721.98455903
  entropy T*S    EENTRO =         0.00000000
  eigenvalues    EBANDS =    -10867.85796495
  atomic energy  EATOM  =    114020.06510763
  Solvation  Ediel_sol  =         0.00000000
  ---------------------------------------------------
  free energy    TOTEN  =      -327.96275951 eV

  energy without entropy =     -327.96275951  energy(sigma->0) =     -327.96275951


--------------------------------------------------------------------------------------------------------




--------------------------------------- Iteration      1(  11)  ---------------------------------------


    POTLOK:  cpu time    0.1302: real time    0.1311
    SETDIJ:  cpu time    0.0129: real time    0.0130
     EDDAV:  cpu time  140.4866: real time  141.4865
 BZINTS: Fermi energy:  4.968456;688.000000 electrons
         Band energy:***********;  BLOECHL correction:  0.000000
       DOS:  cpu time    0.0065: real time    0.0065
    CHARGE:  cpu time    1.3959: real time    1.4062
    MIXING:  cpu time    0.0019: real time    0.0113
    --------------------------------------------
      LOOP:  cpu time  142.0340: real time  143.0547

 eigenvalue-minimisations  : 21760
 total energy-change (2. order) : 0.1050991E-01  (-0.3798996E-01)
 number of electron     688.0000225 magnetization      -0.0000000
 augmentation part      282.2481649 magnetization      -0.0000000

 Broyden mixing:
  rms(total) = 0.12636E+00    rms(broyden)= 0.12636E+00
  rms(prec ) = 0.13438E+00
  weight for this iteration     100.00

 eigenvalues of (default mixing * dielectric matrix)
  average eigenvalue GAMMA=   1.0977
  2.1027  2.1027  0.8061  0.6221  0.6221  0.3302

 Free energy of the ion-electron system (eV)
  ---------------------------------------------------
  alpha Z        PSCENC =      2357.35117396
  Ewald energy   TEWEN  =    -62483.57977224
  -Hartree energ DENC   =    -42939.41355050
  -exchange      EXHF   =         0.00000000
  -V(xc)+E(xc)   XCENC  =      3286.43176789
  PAW double counting   =    112623.04395742  -116315.95798332
  entropy T*S    EENTRO =         0.00000000
  eigenvalues    EBANDS =    -10875.89295043
  atomic energy  EATOM  =    114020.06510763
  Solvation  Ediel_sol  =         0.00000000
  ---------------------------------------------------
  free energy    TOTEN  =      -327.95224960 eV

  energy without entropy =     -327.95224960  energy(sigma->0) =     -327.95224960


--------------------------------------------------------------------------------------------------------




--------------------------------------- Iteration      1(  12)  ---------------------------------------


    POTLOK:  cpu time    0.1301: real time    0.1312
    SETDIJ:  cpu time    0.0129: real time    0.0129
     EDDAV:  cpu time  188.5211: real time  189.7966
 BZINTS: Fermi energy:  4.973154;688.000000 electrons
         Band energy:***********;  BLOECHL correction:  0.000000
       DOS:  cpu time    0.0064: real time    0.0064
    CHARGE:  cpu time    1.3927: real time    1.4027
    MIXING:  cpu time    0.0017: real time    0.0017
    --------------------------------------------
      LOOP:  cpu time  190.0649: real time  191.3516

 eigenvalue-minimisations  : 26112
 total energy-change (2. order) :-0.2000192E-01  (-0.1030422E-01)
 number of electron     688.0000225 magnetization       0.0000000
 augmentation part      282.2202285 magnetization       0.0000000

 Broyden mixing:
  rms(total) = 0.59562E-01    rms(broyden)= 0.59557E-01
  rms(prec ) = 0.66810E-01
  weight for this iteration     100.00

 eigenvalues of (default mixing * dielectric matrix)
  average eigenvalue GAMMA=   1.1259
  2.2671  2.2671  1.0730  0.6913  0.6252  0.6252  0.3323

 Free energy of the ion-electron system (eV)
  ---------------------------------------------------
  alpha Z        PSCENC =      2357.35117396
  Ewald energy   TEWEN  =    -62483.57977224
  -Hartree energ DENC   =    -42945.01379680
  -exchange      EXHF   =         0.00000000
  -V(xc)+E(xc)   XCENC  =      3286.57735009
  PAW double counting   =    112393.98225662  -116088.04762973
  entropy T*S    EENTRO =         0.00000000
  eigenvalues    EBANDS =    -10869.30694103
  atomic energy  EATOM  =    114020.06510763
  Solvation  Ediel_sol  =         0.00000000
  ---------------------------------------------------
  free energy    TOTEN  =      -327.97225151 eV

  energy without entropy =     -327.97225151  energy(sigma->0) =     -327.97225151


--------------------------------------------------------------------------------------------------------




--------------------------------------- Iteration      1(  13)  ---------------------------------------


    POTLOK:  cpu time    0.1305: real time    0.1314
    SETDIJ:  cpu time    0.0128: real time    0.0128
     EDDAV:  cpu time  111.3030: real time  112.1141
 BZINTS: Fermi energy:  4.971110;688.000000 electrons
         Band energy:***********;  BLOECHL correction:  0.000000
       DOS:  cpu time    0.0064: real time    0.0064
    CHARGE:  cpu time    1.3933: real time    1.4034
    MIXING:  cpu time    0.0019: real time    0.0020
    --------------------------------------------
      LOOP:  cpu time  112.8479: real time  113.6702

 eigenvalue-minimisations  : 18432
 total energy-change (2. order) :-0.4331734E-02  (-0.2050070E-02)
 number of electron     688.0000225 magnetization       0.0000000
 augmentation part      282.2256118 magnetization       0.0000000

 Broyden mixing:
  rms(total) = 0.25196E-01    rms(broyden)= 0.25194E-01
  rms(prec ) = 0.26888E-01
  weight for this iteration     100.00

 eigenvalues of (default mixing * dielectric matrix)
  average eigenvalue GAMMA=   1.1239
  2.3031  2.3031  1.2088  0.9455  0.6741  0.6121  0.6121  0.3325

 Free energy of the ion-electron system (eV)
  ---------------------------------------------------
  alpha Z        PSCENC =      2357.35117396
  Ewald energy   TEWEN  =    -62483.57977224
  -Hartree energ DENC   =    -42943.23098104
  -exchange      EXHF   =         0.00000000
  -V(xc)+E(xc)   XCENC  =      3286.52352425
  PAW double counting   =    112308.91258786  -116002.56616599
  entropy T*S    EENTRO =         0.00000000
  eigenvalues    EBANDS =    -10871.45205767
  atomic energy  EATOM  =    114020.06510763
  Solvation  Ediel_sol  =         0.00000000
  ---------------------------------------------------
  free energy    TOTEN  =      -327.97658325 eV

  energy without entropy =     -327.97658325  energy(sigma->0) =     -327.97658325


--------------------------------------------------------------------------------------------------------




--------------------------------------- Iteration      1(  14)  ---------------------------------------


    POTLOK:  cpu time    0.1258: real time    0.1307
    SETDIJ:  cpu time    0.0129: real time    0.0130
     EDDAV:  cpu time  156.8669: real time  157.9415
 BZINTS: Fermi energy:  4.971498;688.000000 electrons
         Band energy:***********;  BLOECHL correction:  0.000000
       DOS:  cpu time    0.0064: real time    0.0065
    CHARGE:  cpu time    1.7335: real time    1.7444
    MIXING:  cpu time    0.0020: real time    0.0021
    --------------------------------------------
      LOOP:  cpu time  158.7475: real time  159.8382

 eigenvalue-minimisations  : 22016
 total energy-change (2. order) :-0.1774803E-02  (-0.4343423E-03)
 number of electron     688.0000225 magnetization      -0.0000000
 augmentation part      282.2234765 magnetization      -0.0000000

 Broyden mixing:
  rms(total) = 0.15500E-01    rms(broyden)= 0.15499E-01
  rms(prec ) = 0.16256E-01
  weight for this iteration     100.00

 eigenvalues of (default mixing * dielectric matrix)
  average eigenvalue GAMMA=   1.1817
  2.4180  2.4180  1.4357  1.4357  0.3325  0.6143  0.6143  0.7278  0.6391

 Free energy of the ion-electron system (eV)
  ---------------------------------------------------
  alpha Z        PSCENC =      2357.35117396
  Ewald energy   TEWEN  =    -62483.57977224
  -Hartree energ DENC   =    -42943.80435646
  -exchange      EXHF   =         0.00000000
  -V(xc)+E(xc)   XCENC  =      3286.54487173
  PAW double counting   =    112285.78926806  -115979.68098608
  entropy T*S    EENTRO =         0.00000000
  eigenvalues    EBANDS =    -10870.66366464
  atomic energy  EATOM  =    114020.06510763
  Solvation  Ediel_sol  =         0.00000000
  ---------------------------------------------------
  free energy    TOTEN  =      -327.97835805 eV

  energy without entropy =     -327.97835805  energy(sigma->0) =     -327.97835805


--------------------------------------------------------------------------------------------------------




--------------------------------------- Iteration      1(  15)  ---------------------------------------


    POTLOK:  cpu time    0.1440: real time    0.1461
    SETDIJ:  cpu time    0.0164: real time    0.0165
     EDDAV:  cpu time  164.1903: real time  165.3191
 BZINTS: Fermi energy:  4.971668;688.000000 electrons
         Band energy:***********;  BLOECHL correction:  0.000000
       DOS:  cpu time    0.0065: real time    0.0065
    CHARGE:  cpu time    1.3977: real time    1.4075
    MIXING:  cpu time    0.0019: real time    0.0019
    --------------------------------------------
      LOOP:  cpu time  165.7567: real time  166.8975

 eigenvalue-minimisations  : 23808
 total energy-change (2. order) :-0.1027228E-02  (-0.2543485E-03)
 number of electron     688.0000225 magnetization      -0.0000000
 augmentation part      282.2187912 magnetization      -0.0000000

 Broyden mixing:
  rms(total) = 0.84642E-02    rms(broyden)= 0.84632E-02
  rms(prec ) = 0.89812E-02
  weight for this iteration     100.00

 eigenvalues of (default mixing * dielectric matrix)
  average eigenvalue GAMMA=   1.2158
  2.8748  2.2322  1.8897  1.1407  1.1407  0.3325  0.6111  0.6111  0.7023  0.6229

 Free energy of the ion-electron system (eV)
  ---------------------------------------------------
  alpha Z        PSCENC =      2357.35117396
  Ewald energy   TEWEN  =    -62483.57977224
  -Hartree energ DENC   =    -42944.06206403
  -exchange      EXHF   =         0.00000000
  -V(xc)+E(xc)   XCENC  =      3286.54698184
  PAW double counting   =    112274.34090911  -115968.22471457
  entropy T*S    EENTRO =         0.00000000
  eigenvalues    EBANDS =    -10870.41700698
  atomic energy  EATOM  =    114020.06510763
  Solvation  Ediel_sol  =         0.00000000
  ---------------------------------------------------
  free energy    TOTEN  =      -327.97938528 eV

  energy without entropy =     -327.97938528  energy(sigma->0) =     -327.97938528


--------------------------------------------------------------------------------------------------------




--------------------------------------- Iteration      1(  16)  ---------------------------------------


    POTLOK:  cpu time    0.1299: real time    0.1325
    SETDIJ:  cpu time    0.0129: real time    0.0129
     EDDAV:  cpu time  141.1436: real time  142.1307
 BZINTS: Fermi energy:  4.971683;688.000000 electrons
         Band energy:***********;  BLOECHL correction:  0.000000
       DOS:  cpu time    0.0064: real time    0.0064
    CHARGE:  cpu time    1.3934: real time    1.4031
    MIXING:  cpu time    0.0022: real time    0.0029
    --------------------------------------------
      LOOP:  cpu time  142.6883: real time  143.6885

 eigenvalue-minimisations  : 20736
 total energy-change (2. order) :-0.4222288E-03  (-0.1317691E-03)
 number of electron     688.0000225 magnetization       0.0000000
 augmentation part      282.2248839 magnetization       0.0000000

 Broyden mixing:
  rms(total) = 0.56272E-02    rms(broyden)= 0.56264E-02
  rms(prec ) = 0.60944E-02
  weight for this iteration     100.00

 eigenvalues of (default mixing * dielectric matrix)
  average eigenvalue GAMMA=   1.2806
  3.3178  2.1532  2.1532  1.3788  1.3788  0.3325  0.8302  0.6086  0.6086  0.7080
  0.6169

 Free energy of the ion-electron system (eV)
  ---------------------------------------------------
  alpha Z        PSCENC =      2357.35117396
  Ewald energy   TEWEN  =    -62483.57977224
  -Hartree energ DENC   =    -42943.86609776
  -exchange      EXHF   =         0.00000000
  -V(xc)+E(xc)   XCENC  =      3286.54607814
  PAW double counting   =    112269.59961199  -115963.43991144
  entropy T*S    EENTRO =         0.00000000
  eigenvalues    EBANDS =    -10870.65599777
  atomic energy  EATOM  =    114020.06510763
  Solvation  Ediel_sol  =         0.00000000
  ---------------------------------------------------
  free energy    TOTEN  =      -327.97980751 eV

  energy without entropy =     -327.97980751  energy(sigma->0) =     -327.97980751


--------------------------------------------------------------------------------------------------------




--------------------------------------- Iteration      1(  17)  ---------------------------------------


    POTLOK:  cpu time    0.1282: real time    0.1335
    SETDIJ:  cpu time    0.0128: real time    0.0128
     EDDAV:  cpu time  129.6425: real time  130.5702
 BZINTS: Fermi energy:  4.971546;688.000000 electrons
         Band energy:***********;  BLOECHL correction:  0.000000
       DOS:  cpu time    0.0064: real time    0.0065
    CHARGE:  cpu time    1.3910: real time    1.4012
    MIXING:  cpu time    0.0022: real time    0.0022
    --------------------------------------------
      LOOP:  cpu time  131.1832: real time  132.1264

 eigenvalue-minimisations  : 19968
 total energy-change (2. order) :-0.1754371E-03  (-0.9361920E-04)
 number of electron     688.0000225 magnetization       0.0000000
 augmentation part      282.2220127 magnetization       0.0000000

 Broyden mixing:
  rms(total) = 0.28049E-02    rms(broyden)= 0.28039E-02
  rms(prec ) = 0.30059E-02
  weight for this iteration     100.00

 eigenvalues of (default mixing * dielectric matrix)
  average eigenvalue GAMMA=   1.3743
  4.1892  2.3564  2.3564  1.4996  1.4996  1.0213  0.3325  0.6087  0.6087  0.7189
  0.6924  0.6078

 Free energy of the ion-electron system (eV)
  ---------------------------------------------------
  alpha Z        PSCENC =      2357.35117396
  Ewald energy   TEWEN  =    -62483.57977224
  -Hartree energ DENC   =    -42943.93520687
  -exchange      EXHF   =         0.00000000
  -V(xc)+E(xc)   XCENC  =      3286.54579287
  PAW double counting   =    112274.88751163  -115968.73037230
  entropy T*S    EENTRO =         0.00000000
  eigenvalues    EBANDS =    -10870.58421762
  atomic energy  EATOM  =    114020.06510763
  Solvation  Ediel_sol  =         0.00000000
  ---------------------------------------------------
  free energy    TOTEN  =      -327.97998294 eV

  energy without entropy =     -327.97998294  energy(sigma->0) =     -327.97998294


--------------------------------------------------------------------------------------------------------




--------------------------------------- Iteration      1(  18)  ---------------------------------------


    POTLOK:  cpu time    0.1281: real time    0.1321
    SETDIJ:  cpu time    0.0129: real time    0.0129
     EDDAV:  cpu time  141.5610: real time  142.5410
 BZINTS: Fermi energy:  4.971503;688.000000 electrons
         Band energy:***********;  BLOECHL correction:  0.000000
       DOS:  cpu time    0.0065: real time    0.0065
    CHARGE:  cpu time    1.3937: real time    1.4037
    MIXING:  cpu time    0.0021: real time    0.0021
    --------------------------------------------
      LOOP:  cpu time  143.1042: real time  144.0983

 eigenvalue-minimisations  : 20736
 total energy-change (2. order) :-0.3510776E-04  (-0.2649359E-04)
 number of electron     688.0000225 magnetization       0.0000000
 augmentation part      282.2227845 magnetization       0.0000000

 Broyden mixing:
  rms(total) = 0.14499E-02    rms(broyden)= 0.14492E-02
  rms(prec ) = 0.15965E-02
  weight for this iteration     100.00

 eigenvalues of (default mixing * dielectric matrix)
  average eigenvalue GAMMA=   1.3519
  4.2754  2.4077  2.4077  1.7234  1.1930  1.1930  0.3325  0.8578  0.6068  0.6068
  0.7263  0.6385  0.6066

 Free energy of the ion-electron system (eV)
  ---------------------------------------------------
  alpha Z        PSCENC =      2357.35117396
  Ewald energy   TEWEN  =    -62483.57977224
  -Hartree energ DENC   =    -42943.88943965
  -exchange      EXHF   =         0.00000000
  -V(xc)+E(xc)   XCENC  =      3286.54413329
  PAW double counting   =    112279.13007968  -115972.96197603
  entropy T*S    EENTRO =         0.00000000
  eigenvalues    EBANDS =    -10870.63932469
  atomic energy  EATOM  =    114020.06510763
  Solvation  Ediel_sol  =         0.00000000
  ---------------------------------------------------
  free energy    TOTEN  =      -327.98001805 eV

  energy without entropy =     -327.98001805  energy(sigma->0) =     -327.98001805


--------------------------------------------------------------------------------------------------------




--------------------------------------- Iteration      1(  19)  ---------------------------------------


    POTLOK:  cpu time    0.1278: real time    0.1321
    SETDIJ:  cpu time    0.0129: real time    0.0130
     EDDAV:  cpu time  120.4970: real time  121.3596
 BZINTS: Fermi energy:  4.971533;688.000000 electrons
         Band energy:***********;  BLOECHL correction:  0.000000
       DOS:  cpu time    0.0064: real time    0.0065
    CHARGE:  cpu time    1.3993: real time    1.4089
    MIXING:  cpu time    0.0031: real time    0.0031
    --------------------------------------------
      LOOP:  cpu time  122.0465: real time  122.9231

 eigenvalue-minimisations  : 18944
 total energy-change (2. order) :-0.2093453E-05  (-0.9910204E-06)
 number of electron     688.0000225 magnetization       0.0000000
 augmentation part      282.2226716 magnetization       0.0000000

 Broyden mixing:
[...]
   -.417E+02 0.133E+02 -.940E+00   0.426E+02 -.134E+02 0.950E+00   -.858E+00 0.809E-01 -.112E-01   -.656E-05 0.945E-05 -.286E-05
   -.417E+02 0.133E+02 -.940E+00   0.426E+02 -.134E+02 0.950E+00   -.858E+00 0.809E-01 -.112E-01   -.659E-05 0.945E-05 -.286E-05
   -.417E+02 0.133E+02 -.940E+00   0.426E+02 -.134E+02 0.950E+00   -.858E+00 0.809E-01 -.112E-01   -.656E-05 0.943E-05 -.286E-05
   -.417E+02 0.133E+02 -.940E+00   0.426E+02 -.134E+02 0.950E+00   -.858E+00 0.809E-01 -.112E-01   -.659E-05 0.943E-05 -.286E-05
   0.417E+02 0.133E+02 0.940E+00   -.426E+02 -.134E+02 -.950E+00   0.858E+00 0.809E-01 0.112E-01   0.657E-05 0.944E-05 0.286E-05
   0.417E+02 0.133E+02 0.940E+00   -.426E+02 -.134E+02 -.950E+00   0.858E+00 0.809E-01 0.112E-01   0.657E-05 0.944E-05 0.286E-05
   0.417E+02 0.133E+02 0.940E+00   -.426E+02 -.134E+02 -.950E+00   0.858E+00 0.809E-01 0.112E-01   0.657E-05 0.944E-05 0.286E-05
   0.417E+02 0.133E+02 0.940E+00   -.426E+02 -.134E+02 -.950E+00   0.858E+00 0.809E-01 0.112E-01   0.657E-05 0.944E-05 0.286E-05
   0.347E-07 -.330E+02 0.243E-07   -.213E-13 0.338E+02 -.103E-12   -.572E-26 -.793E+00 -.646E-25   -.220E-10 0.414E-05 -.714E-09
   0.347E-07 -.330E+02 0.243E-07   0.888E-14 0.338E+02 -.977E-13   -.134E-24 -.793E+00 0.310E-24   0.145E-10 0.414E-05 0.716E-09
   0.347E-07 -.330E+02 0.243E-07   -.284E-13 0.338E+02 -.128E-12   0.297E-24 -.793E+00 0.258E-25   -.219E-10 0.411E-05 -.714E-09
   0.347E-07 -.330E+02 0.243E-07   0.142E-13 0.338E+02 -.149E-12   -.118E-24 -.793E+00 -.155E-24   0.145E-10 0.411E-05 0.716E-09
   -.296E-08 0.519E+02 0.124E-06   0.728E-13 -.528E+02 0.888E-15   -.123E-24 0.937E+00 0.517E-24   0.129E-07 0.238E-04 -.234E-09
   -.296E-08 0.519E+02 0.124E-06   0.604E-13 -.528E+02 0.355E-14   -.284E-24 0.937E+00 -.931E-24   -.129E-07 0.238E-04 0.236E-09
   -.296E-08 0.519E+02 0.124E-06   0.426E-13 -.528E+02 -.604E-13   -.607E-24 0.937E+00 0.103E-23   0.129E-07 0.238E-04 -.234E-09
   -.296E-08 0.519E+02 0.124E-06   0.568E-13 -.528E+02 0.000E+00   0.679E-24 0.937E+00 -.103E-23   -.129E-07 0.238E-04 0.236E-09
   0.234E+01 -.123E+02 0.130E+01   -.231E+01 0.118E+02 -.132E+01   -.255E-01 0.492E+00 0.205E-01   0.968E-05 0.357E-04 0.184E-05
   0.234E+01 -.123E+02 0.130E+01   -.231E+01 0.118E+02 -.132E+01   -.255E-01 0.492E+00 0.205E-01   0.963E-05 0.357E-04 0.184E-05
   0.234E+01 -.123E+02 0.130E+01   -.231E+01 0.118E+02 -.132E+01   -.255E-01 0.492E+00 0.205E-01   0.968E-05 0.357E-04 0.184E-05
   0.234E+01 -.123E+02 0.130E+01   -.231E+01 0.118E+02 -.132E+01   -.255E-01 0.492E+00 0.205E-01   0.963E-05 0.357E-04 0.184E-05
   -.234E+01 -.123E+02 -.130E+01   0.231E+01 0.118E+02 0.132E+01   0.255E-01 0.492E+00 -.205E-01   -.962E-05 0.357E-04 -.184E-05
   -.234E+01 -.123E+02 -.130E+01   0.231E+01 0.118E+02 0.132E+01   0.255E-01 0.492E+00 -.205E-01   -.968E-05 0.357E-04 -.184E-05
   -.234E+01 -.123E+02 -.130E+01   0.231E+01 0.118E+02 0.132E+01   0.255E-01 0.492E+00 -.205E-01   -.962E-05 0.357E-04 -.184E-05
   -.234E+01 -.123E+02 -.130E+01   0.231E+01 0.118E+02 0.132E+01   0.255E-01 0.492E+00 -.205E-01   -.968E-05 0.357E-04 -.184E-05
   0.234E+01 -.123E+02 0.130E+01   -.231E+01 0.118E+02 -.132E+01   -.255E-01 0.492E+00 0.205E-01   0.968E-05 0.357E-04 0.184E-05
   0.234E+01 -.123E+02 0.130E+01   -.231E+01 0.118E+02 -.132E+01   -.255E-01 0.492E+00 0.205E-01   0.962E-05 0.357E-04 0.184E-05
   0.234E+01 -.123E+02 0.130E+01   -.231E+01 0.118E+02 -.132E+01   -.255E-01 0.492E+00 0.205E-01   0.968E-05 0.357E-04 0.184E-05
   0.234E+01 -.123E+02 0.130E+01   -.231E+01 0.118E+02 -.132E+01   -.255E-01 0.492E+00 0.205E-01   0.962E-05 0.357E-04 0.184E-05
   -.234E+01 -.123E+02 -.130E+01   0.231E+01 0.118E+02 0.132E+01   0.255E-01 0.492E+00 -.205E-01   -.963E-05 0.357E-04 -.184E-05
   -.234E+01 -.123E+02 -.130E+01   0.231E+01 0.118E+02 0.132E+01   0.255E-01 0.492E+00 -.205E-01   -.968E-05 0.357E-04 -.184E-05
   -.234E+01 -.123E+02 -.130E+01   0.231E+01 0.118E+02 0.132E+01   0.255E-01 0.492E+00 -.205E-01   -.963E-05 0.357E-04 -.184E-05
   -.234E+01 -.123E+02 -.130E+01   0.231E+01 0.118E+02 0.132E+01   0.255E-01 0.492E+00 -.205E-01   -.968E-05 0.357E-04 -.184E-05
   -.323E+01 -.118E+02 0.140E+01   0.318E+01 0.112E+02 -.144E+01   0.598E-01 0.645E+00 0.237E-01   0.359E-05 0.157E-04 0.851E-05
   -.323E+01 -.118E+02 0.140E+01   0.318E+01 0.112E+02 -.144E+01   0.598E-01 0.645E+00 0.237E-01   0.355E-05 0.157E-04 0.851E-05
   -.323E+01 -.118E+02 0.140E+01   0.318E+01 0.112E+02 -.144E+01   0.598E-01 0.645E+00 0.237E-01   0.359E-05 0.156E-04 0.850E-05
   -.323E+01 -.118E+02 0.140E+01   0.318E+01 0.112E+02 -.144E+01   0.598E-01 0.645E+00 0.237E-01   0.355E-05 0.156E-04 0.851E-05
   0.323E+01 -.118E+02 -.140E+01   -.318E+01 0.112E+02 0.144E+01   -.598E-01 0.645E+00 -.237E-01   -.355E-05 0.157E-04 -.851E-05
   0.323E+01 -.118E+02 -.140E+01   -.318E+01 0.112E+02 0.144E+01   -.598E-01 0.645E+00 -.237E-01   -.359E-05 0.157E-04 -.851E-05
   0.323E+01 -.118E+02 -.140E+01   -.318E+01 0.112E+02 0.144E+01   -.598E-01 0.645E+00 -.237E-01   -.355E-05 0.156E-04 -.850E-05
   0.323E+01 -.118E+02 -.140E+01   -.318E+01 0.112E+02 0.144E+01   -.598E-01 0.645E+00 -.237E-01   -.359E-05 0.156E-04 -.850E-05
   -.323E+01 -.118E+02 0.140E+01   0.318E+01 0.112E+02 -.144E+01   0.598E-01 0.645E+00 0.237E-01   0.359E-05 0.157E-04 0.850E-05
   -.323E+01 -.118E+02 0.140E+01   0.318E+01 0.112E+02 -.144E+01   0.598E-01 0.645E+00 0.237E-01   0.355E-05 0.157E-04 0.851E-05
   -.323E+01 -.118E+02 0.140E+01   0.318E+01 0.112E+02 -.144E+01   0.598E-01 0.645E+00 0.237E-01   0.359E-05 0.156E-04 0.850E-05
   -.323E+01 -.118E+02 0.140E+01   0.318E+01 0.112E+02 -.144E+01   0.598E-01 0.645E+00 0.237E-01   0.355E-05 0.156E-04 0.851E-05
   0.323E+01 -.118E+02 -.140E+01   -.318E+01 0.112E+02 0.144E+01   -.598E-01 0.645E+00 -.237E-01   -.355E-05 0.157E-04 -.851E-05
   0.323E+01 -.118E+02 -.140E+01   -.318E+01 0.112E+02 0.144E+01   -.598E-01 0.645E+00 -.237E-01   -.359E-05 0.157E-04 -.851E-05
   0.323E+01 -.118E+02 -.140E+01   -.318E+01 0.112E+02 0.144E+01   -.598E-01 0.645E+00 -.237E-01   -.355E-05 0.156E-04 -.850E-05
   0.323E+01 -.118E+02 -.140E+01   -.318E+01 0.112E+02 0.144E+01   -.598E-01 0.645E+00 -.237E-01   -.359E-05 0.156E-04 -.851E-05
 -----------------------------------------------------------------------------------------------
   0.409E-06 -.207E+02 0.242E-03   0.707E-12 -.888E-13 -.403E-12   0.314E-14 0.206E+02 0.278E-16   0.207E-11 0.120E-02 0.599E-11
 
 
 POSITION                                       TOTAL-FORCE (eV/Angst)
 -----------------------------------------------------------------------------------
      1.35090      1.29030      1.32857         0.000602     -0.006496      0.001519
      6.60592      1.29030      1.42486         0.000602     -0.006496      0.001519
      1.35090      6.55044      1.32857         0.000602     -0.006496      0.001519
      6.60592      6.55044      1.42486         0.000602     -0.006496      0.001519
      3.95179      3.92037      1.36899        -0.000602     -0.006496     -0.001519
      9.20682      3.92037      1.46529        -0.000602     -0.006496     -0.001519
      3.95179      9.18051      1.36899        -0.000602     -0.006496     -0.001519
      9.20682      9.18051      1.46529        -0.000602     -0.006496     -0.001519
      1.48059      3.91874      9.12847        -0.000000     -0.005815      0.000000
      6.73562      3.91874      9.22477        -0.000000     -0.005815      0.000000
      1.48059      9.17888      9.12847        -0.000000     -0.005815      0.000000
      6.73562      9.17888      9.22477        -0.000000     -0.005815      0.000000
      4.10810      1.31010      9.17662        -0.000000     -0.001438      0.000000
      9.36313      1.31010      9.27292        -0.000000     -0.001438      0.000000
      4.10810      6.57024      9.17662        -0.000000     -0.001438      0.000000
      9.36313      6.57024      9.27292        -0.000000     -0.001438      0.000000
      1.41962      1.29030      6.52335        -0.000602     -0.006496     -0.001519
      6.67464      1.29030      6.61965        -0.000602     -0.006496     -0.001519
      1.41962      6.55044      6.52335        -0.000602     -0.006496     -0.001519
      6.67464      6.55044      6.61965        -0.000602     -0.006496     -0.001519
      4.07375      3.92037      6.57923         0.000602     -0.006496      0.001519
      9.32877      3.92037      6.67553         0.000602     -0.006496      0.001519
      4.07375      9.18051      6.57923         0.000602     -0.006496      0.001519
      9.32877      9.18051      6.67553         0.000602     -0.006496      0.001519
      4.01277      1.28867      3.97411        -0.000000     -0.005815      0.000000
      9.26779      1.28867      4.07041        -0.000000     -0.005815      0.000000
      4.01277      6.54881      3.97411        -0.000000     -0.005815      0.000000
      9.26779      6.54881      4.07041        -0.000000     -0.005815      0.000000
      1.38526      3.94017      3.92596        -0.000000     -0.001438      0.000000
      6.64028      3.94017      4.02226        -0.000000     -0.001438      0.000000
      1.38526      9.20031      3.92596        -0.000000     -0.001438      0.000000
      6.64028      9.20031      4.02226        -0.000000     -0.001438      0.000000
     10.59643      0.02047      5.39499         0.003333      0.004732     -0.006575
      5.34141      0.02047      5.29869         0.003333      0.004732     -0.006575
     10.59643      5.28061      5.39499         0.003333      0.004732     -0.006575
      5.34141      5.28061      5.29869         0.003333      0.004732     -0.006575
      2.68413      0.02047      2.64953        -0.003333      0.004732      0.006575
      7.93916      0.02047      2.74583        -0.003333      0.004732      0.006575
      2.68413      5.28061      2.64953        -0.003333      0.004732      0.006575
      7.93916      5.28061      2.74583        -0.003333      0.004732      0.006575
      2.61856      2.65054      0.04803         0.003333      0.004732     -0.006575
      7.87358      2.65054      0.14432         0.003333      0.004732     -0.006575
      2.61856      7.91068      0.04803         0.003333      0.004732     -0.006575
      7.87358      7.91068      0.14432         0.003333      0.004732     -0.006575
      0.15196      2.65054      7.80389        -0.003333      0.004732      0.006575
      5.40698      2.65054      7.90019        -0.003333      0.004732      0.006575
      0.15196      7.91068      7.80389        -0.003333      0.004732      0.006575
      5.40698      7.91068      7.90019        -0.003333      0.004732      0.006575
     10.50490      0.01991      0.19542         0.004132      0.005390     -0.013537
      5.24988      0.01991      0.09913         0.004132      0.005390     -0.013537
     10.50490      5.28005      0.19542         0.004132      0.005390     -0.013537
      5.24988      5.28005      0.09913         0.004132      0.005390     -0.013537
      2.77566      0.01991      7.84909        -0.004132      0.005390      0.013537
      8.03069      0.01991      7.94539        -0.004132      0.005390      0.013537
      2.77566      5.28005      7.84909        -0.004132      0.005390      0.013537
      8.03069      5.28005      7.94539        -0.004132      0.005390      0.013537
      2.71770      2.64998      5.25349         0.004132      0.005390     -0.013537
      7.97272      2.64998      5.34979         0.004132      0.005390     -0.013537
      2.71770      7.91012      5.25349         0.004132      0.005390     -0.013537
      7.97272      7.91012      5.34979         0.004132      0.005390     -0.013537
      0.05282      2.64998      2.59843        -0.004132      0.005390      0.013537
      5.30784      2.64998      2.69473        -0.004132      0.005390      0.013537
      0.05282      7.91012      2.59843        -0.004132      0.005390      0.013537
      5.30784      7.91012      2.69473        -0.004132      0.005390      0.013537
 -----------------------------------------------------------------------------------
    total drift:                                0.000000     -0.019431      0.000242


--------------------------------------------------------------------------------------------------------



  FREE ENERGIE OF THE ION-ELECTRON SYSTEM (eV)
  ---------------------------------------------------
  free  energy   TOTEN  =      -327.98002207 eV

  energy  without entropy=     -327.98002207  energy(sigma->0) =     -327.98002207
 


--------------------------------------------------------------------------------------------------------


    POTLOK:  cpu time    0.1426: real time    0.1434


--------------------------------------------------------------------------------------------------------


 writing wavefunctions
     LOOP+:  cpu time 3750.4432: real time 3777.0389
    4ORBIT:  cpu time    0.0000: real time    0.0000
 


 total charge     
 
# of ion       s       p       d       tot
------------------------------------------
    1        1.314   2.410   0.000   3.724
    2        1.314   2.410   0.000   3.724
    3        1.314   2.410   0.000   3.724
    4        1.314   2.410   0.000   3.724
    5        1.314   2.410   0.000   3.724
    6        1.314   2.410   0.000   3.724
    7        1.314   2.410   0.000   3.724
    8        1.314   2.410   0.000   3.724
    9        1.314   2.408   0.000   3.722
   10        1.314   2.408   0.000   3.722
   11        1.314   2.408   0.000   3.722
   12        1.314   2.408   0.000   3.722
   13        1.313   2.412   0.000   3.724
   14        1.313   2.412   0.000   3.724
   15        1.313   2.412   0.000   3.724
   16        1.313   2.412   0.000   3.724
   17        1.314   2.410   0.000   3.724
   18        1.314   2.410   0.000   3.724
   19        1.314   2.410   0.000   3.724
   20        1.314   2.410   0.000   3.724
   21        1.314   2.410   0.000   3.724
   22        1.314   2.410   0.000   3.724
   23        1.314   2.410   0.000   3.724
   24        1.314   2.410   0.000   3.724
   25        1.314   2.408   0.000   3.722
   26        1.314   2.408   0.000   3.722
   27        1.314   2.408   0.000   3.722
   28        1.314   2.408   0.000   3.722
   29        1.313   2.412   0.000   3.724
   30        1.313   2.412   0.000   3.724
   31        1.313   2.412   0.000   3.724
   32        1.313   2.412   0.000   3.724
   33        0.260   6.202   8.917  15.378
   34        0.260   6.202   8.917  15.378
   35        0.260   6.202   8.917  15.378
   36        0.260   6.202   8.917  15.378
   37        0.260   6.202   8.917  15.378
   38        0.260   6.202   8.917  15.378
   39        0.260   6.202   8.917  15.378
   40        0.260   6.202   8.917  15.378
   41        0.260   6.202   8.917  15.378
   42        0.260   6.202   8.917  15.378
   43        0.260   6.202   8.917  15.378
   44        0.260   6.202   8.917  15.378
   45        0.260   6.202   8.917  15.378
   46        0.260   6.202   8.917  15.378
   47        0.260   6.202   8.917  15.378
   48        0.260   6.202   8.917  15.378
   49        0.350   6.351   5.820  12.521
   50        0.350   6.351   5.820  12.521
   51        0.350   6.351   5.820  12.521
   52        0.350   6.351   5.820  12.521
   53        0.350   6.351   5.820  12.521
   54        0.350   6.351   5.820  12.521
   55        0.350   6.351   5.820  12.521
   56        0.350   6.351   5.820  12.521
   57        0.350   6.351   5.820  12.521
   58        0.350   6.351   5.820  12.521
   59        0.350   6.351   5.820  12.521
   60        0.350   6.351   5.820  12.521
   61        0.350   6.351   5.820  12.521
   62        0.350   6.351   5.820  12.521
   63        0.350   6.351   5.820  12.521
   64        0.350   6.351   5.820  12.521
--------------------------------------------------
tot         51.789 277.965 235.793 565.547
 


 magnetization (x)
 
# of ion       s       p       d       tot
------------------------------------------
    1       -0.000  -0.009   0.000  -0.009
    2       -0.000  -0.009   0.000  -0.009
    3       -0.000  -0.009   0.000  -0.009
    4       -0.000  -0.009   0.000  -0.009
    5        0.000   0.009   0.000   0.009
    6        0.000   0.009   0.000   0.009
    7        0.000   0.009   0.000   0.009
    8        0.000   0.009   0.000   0.009
    9       -0.000   0.000   0.000   0.000
   10       -0.000  -0.000   0.000  -0.000
   11       -0.000   0.000   0.000   0.000
   12       -0.000  -0.000   0.000  -0.000
   13        0.000  -0.000   0.000   0.000
   14        0.000  -0.000   0.000   0.000
   15        0.000  -0.000   0.000  -0.000
   16        0.000  -0.000   0.000   0.000
   17        0.000   0.009   0.000   0.009
   18        0.000   0.009   0.000   0.009
   19        0.000   0.009   0.000   0.009
   20        0.000   0.009   0.000   0.009
   21       -0.000  -0.009   0.000  -0.009
   22       -0.000  -0.009   0.000  -0.009
   23       -0.000  -0.009   0.000  -0.009
   24       -0.000  -0.009   0.000  -0.009
   25       -0.000  -0.000   0.000  -0.000
   26       -0.000  -0.000   0.000  -0.000
   27       -0.000  -0.000   0.000  -0.000
   28       -0.000  -0.000   0.000  -0.000
   29        0.000  -0.000   0.000  -0.000
   30        0.000  -0.000   0.000   0.000
   31        0.000  -0.000   0.000  -0.000
   32        0.000  -0.000   0.000   0.000
   33        0.000   0.001  -0.001  -0.000
   34        0.000   0.001  -0.001  -0.000
   35        0.000   0.001  -0.001  -0.000
   36        0.000   0.001  -0.001  -0.000
   37       -0.000  -0.001   0.001   0.000
   38       -0.000  -0.001   0.001   0.000
   39       -0.000  -0.001   0.001   0.000
   40       -0.000  -0.001   0.001   0.000
   41        0.000   0.001  -0.001  -0.000
   42        0.000   0.001  -0.001  -0.000
   43        0.000   0.001  -0.001  -0.000
   44        0.000   0.001  -0.001  -0.000
   45       -0.000  -0.001   0.001   0.000
   46       -0.000  -0.001   0.001   0.000
   47       -0.000  -0.001   0.001   0.000
   48       -0.000  -0.001   0.001   0.000
   49        0.020   0.054   3.670   3.743
   50        0.020   0.054   3.670   3.743
   51        0.020   0.054   3.670   3.743
   52        0.020   0.054   3.670   3.743
   53       -0.020  -0.054  -3.670  -3.743
   54       -0.020  -0.054  -3.670  -3.743
   55       -0.020  -0.054  -3.670  -3.743
   56       -0.020  -0.054  -3.670  -3.743
   57        0.020   0.054   3.670   3.743
   58        0.020   0.054   3.670   3.743
   59        0.020   0.054   3.670   3.743
   60        0.020   0.054   3.670   3.743
   61       -0.020  -0.054  -3.670  -3.743
   62       -0.020  -0.054  -3.670  -3.743
   63       -0.020  -0.054  -3.670  -3.743
   64       -0.020  -0.054  -3.670  -3.743
--------------------------------------------------
tot          0.000  -0.000  -0.000  -0.000
 
 BZINTS: Fermi energy:  4.971529;688.000000 electrons
         Band energy:***********;  BLOECHL correction:  0.000000

 total amount of memory used by VASP MPI-rank0   349631. kBytes
=======================================================================

   base      :      30000. kBytes
   nonl-proj :     217907. kBytes
   fftplans  :       4588. kBytes
   grid      :      69719. kBytes
   one-center:       1990. kBytes
   wavefun   :      25427. kBytes
 
  
  
 General timing and accounting informations for this job:
 ========================================================
  
                  Total CPU time used (sec):     3809.449
                            User time (sec):     3797.956
                          System time (sec):       11.493
                         Elapsed time (sec):     3837.438
  
                   Maximum memory used (kb):      706616.
                   Average memory used (kb):           0.
  
                          Minor page faults:       679350
                          Major page faults:         5826
                 Voluntary context switches:         7366
