       N       E                     dE             d eps       ncg     rms          rms(c)
DAV:   1     0.619378333919E+04    0.61938E+04   -0.50368E+05 12288   0.194E+03
DAV:   2    -0.857456815951E+02   -0.62795E+04   -0.61485E+04 12800   0.440E+02
DAV:   3    -0.371953772623E+03   -0.28621E+03   -0.28486E+03 17920   0.102E+02
DAV:   4    -0.375898307619E+03   -0.39445E+01   -0.39443E+01 13312   0.123E+01
DAV:   5    -0.376002049676E+03   -0.10374E+00   -0.10374E+00 17408   0.202E+00    0.751E+01
DAV:   6    -0.334505308203E+03    0.41497E+02   -0.59120E+02 12288   0.814E+01    0.100E+02
DAV:   7    -0.329277499742E+03    0.52278E+01   -0.11373E+02 12288   0.274E+01    0.437E+01
DAV:   8    -0.329309001538E+03   -0.31502E-01   -0.36825E+01 14336   0.210E+01    0.326E+01
DAV:   9    -0.331089806865E+03   -0.17808E+01   -0.10282E+02 15360   0.243E+01    0.235E+01
DAV:  10    -0.327417426645E+03    0.36724E+01   -0.21417E+01 16128   0.157E+01    0.275E+00
DAV:  11    -0.327542314625E+03   -0.12489E+00   -0.12713E+00 17152   0.186E+00    0.356E+00
DAV:  12    -0.327531479843E+03    0.10835E-01   -0.49968E-01 15616   0.181E+00    0.133E+00
DAV:  13    -0.327537962815E+03   -0.64830E-02   -0.49890E-02 15872   0.399E-01    0.904E-01
DAV:  14    -0.327549148356E+03   -0.11186E-01   -0.62277E-02 16384   0.390E-01    0.421E-01
DAV:  15    -0.327548856819E+03    0.29154E-03   -0.55991E-03 13824   0.189E-01    0.182E-01
DAV:  16    -0.327549052220E+03   -0.19540E-03   -0.48907E-04 16896   0.313E-02    0.130E-01
DAV:  17    -0.327549693951E+03   -0.64173E-03   -0.29940E-03 14848   0.644E-02    0.848E-02
DAV:  18    -0.327549765794E+03   -0.71843E-04   -0.23018E-04 14848   0.230E-02    0.530E-02
DAV:  19    -0.327549770496E+03   -0.47015E-05   -0.58662E-05 17408   0.126E-02    0.326E-02
DAV:  20    -0.327549776384E+03   -0.58877E-05   -0.30617E-05 13824   0.605E-03    0.243E-02
DAV:  21    -0.327549776871E+03   -0.48704E-06   -0.35580E-05 17408   0.944E-03    0.158E-02
DAV:  22    -0.327549777355E+03   -0.48474E-06   -0.22866E-06 12288   0.310E-03    0.128E-02
DAV:  23    -0.327549777711E+03   -0.35555E-06   -0.43997E-07 17408   0.963E-04    0.668E-03
DAV:  24    -0.327549777586E+03    0.12491E-06   -0.10158E-06 15104   0.199E-03    0.177E-03
DAV:  25    -0.327549777559E+03    0.27489E-07   -0.22663E-07 16384   0.791E-04    0.135E-03
DAV:  26    -0.327549777555E+03    0.39145E-08   -0.19880E-08 10496   0.237E-04
   1 F= -.32754978E+03 E0= -.32754978E+03  d E =0.000000E+00  mag=     0.0000
