       N       E                     dE             d eps       ncg     rms          rms(c)
DAV:   1    -0.298470159031E+03   -0.29847E+03   -0.17592E+03 18944   0.243E+02    0.416E+01
DAV:   2    -0.327698627843E+03   -0.29228E+02   -0.29304E+02 14080   0.272E+01    0.169E+01
DAV:   3    -0.328016880358E+03   -0.31825E+00   -0.53071E+00 18688   0.496E+00    0.127E+01
DAV:   4    -0.327996533399E+03    0.20347E-01   -0.62618E-01 14848   0.221E+00    0.106E+01
DAV:   5    -0.327996485950E+03    0.47449E-04   -0.40762E-02 14848   0.600E-01    0.914E+00
DAV:   6    -0.327996116304E+03    0.36965E-03   -0.40060E-03 15616   0.166E-01    0.727E+00
DAV:   7    -0.327993886342E+03    0.22300E-02   -0.74893E-03 15872   0.260E-01    0.158E+00
DAV:   8    -0.327993901103E+03   -0.14761E-04   -0.34356E-04 14848   0.406E-02    0.102E+00
DAV:   9    -0.327993888363E+03    0.12740E-04   -0.19899E-05 19200   0.964E-03    0.922E-01
DAV:  10    -0.327993843776E+03    0.44587E-04   -0.43930E-04 13824   0.450E-02    0.178E-02
DAV:  11    -0.327993845586E+03   -0.18101E-05   -0.11754E-05 14592   0.597E-03    0.196E-02
DAV:  12    -0.327993846355E+03   -0.76870E-06   -0.12022E-06 16896   0.161E-03    0.378E-02
DAV:  13    -0.327993847311E+03   -0.95616E-06   -0.20838E-06 16896   0.164E-03    0.438E-02
DAV:  14    -0.327993847720E+03   -0.40923E-06   -0.21885E-07 12800   0.967E-04    0.176E-02
DAV:  15    -0.327993848010E+03   -0.28926E-06   -0.30490E-07 17408   0.530E-04    0.621E-03
DAV:  16    -0.327993848088E+03   -0.78144E-07   -0.15995E-07 13568   0.396E-04    0.137E-03
DAV:  17    -0.327993848087E+03    0.11059E-08   -0.18053E-08 12800   0.210E-04
   1 F= -.32799385E+03 E0= -.32799385E+03  d E =0.000000E+00  mag=     0.0000
