 vasp.5.4.4.18Apr17-6-g9f103f2a35 (build Oct 30 2023 17:30:16) complex          
  
 executed on             LinuxIFC date 2024.06.29  00:30:40
 running on  256 total cores
 distrk:  each k-point on  256 cores,    1 groups
 distr:  one band on NCORES_PER_BAND=   1 cores,  256 groups


--------------------------------------------------------------------------------------------------------


 INCAR:
 POTCAR:    PAW_PBE S 06Sep2000                   
 POTCAR:     PAW_PBE Cu_pv 06Sep2000              
 POTCAR:     PAW_PBE Fe_pv 02Aug2007              

 ----------------------------------------------------------------------------- 
|                                                                             |
|           W    W    AA    RRRRR   N    N  II  N    N   GGGG   !!!           |
|           W    W   A  A   R    R  NN   N  II  NN   N  G    G  !!!           |
|           W    W  A    A  R    R  N N  N  II  N N  N  G       !!!           |
|           W WW W  AAAAAA  RRRRR   N  N N  II  N  N N  G  GGG   !            |
|           WW  WW  A    A  R   R   N   NN  II  N   NN  G    G                |
|           W    W  A    A  R    R  N    N  II  N    N   GGGG   !!!           |
|                                                                             |
|      For optimal performance we recommend to set                            |
|        NCORE= 4 - approx SQRT( number of cores)                             |
|      NCORE specifies how many cores store one orbital (NPAR=cpu/NCORE).     |
|      This setting can  greatly improve the performance of VASP for DFT.     |
|      The default,   NCORE=1            might be grossly inefficient         |
|      on modern multi-core architectures or massively parallel machines.     |
|      Do your own testing !!!!                                               |
|      Unfortunately you need to use the default for GW and RPA calculations. |
|      (for HF NCORE is supported but not extensively tested yet)             |
|                                                                             |
 ----------------------------------------------------------------------------- 

 POTCAR:    PAW_PBE S 06Sep2000                   
   SHA256 =  0fc7481fb0695f01bdc6462160264c5c84044ae9ec85a907d398b887a2bc3132 S/
   COPYR  = (c) Copyright 06Sep2000 Georg Kresse                                
   COPYR  = This file is part of the software VASP. Any use, copying, and all ot
   COPYR  = If you do not have a valid VASP license, you may not use, copy or di
   VRHFIN =S : s2p4                                                             
   LEXCH  = PE                                                                  
   EATOM  =   276.8230 eV,   20.3459 Ry                                         
                                                                                
   TITEL  = PAW_PBE S 06Sep2000                                                 
   LULTRA =        F    use ultrasoft PP ?                                      
   IUNSCR =        1    unscreen: 0-lin 1-nonlin 2-no                           
   RPACOR =    1.500    partial core radius                                     
   POMASS =   32.066; ZVAL   =    6.000    mass and valenz                      
   RCORE  =    1.900    outmost cutoff radius                                   
   RWIGS  =    2.200; RWIGS  =    1.164    wigner-seitz radius (au A)           
   ENMAX  =  258.689; ENMIN  =  194.016 eV                                      
   ICORE  =        2    local potential                                         
   LCOR   =        T    correct aug charges                                     
   LPAW   =        T    paw PP                                                  
   EAUG   =  335.092                                                            
   DEXC   =    0.000                                                            
   RMAX   =    1.942    core radius for proj-oper                               
   RAUG   =    1.300    factor for augmentation sphere                          
   RDEP   =    1.954    radius for radial grids                                 
   RDEPT  =    1.744    core radius for aug-charge                              
                                                                                
   Atomic configuration                                                         
    6 entries                                                                   
     n  l   j            E        occ.                                          
     1  0  0.50     -2405.8406   2.0000                                         
     2  0  0.50      -211.7007   2.0000                                         
     2  1  1.50      -156.4958   6.0000                                         
     3  0  0.50       -17.2562   2.0000                                         
     3  1  0.50        -7.0085   4.0000                                         
     3  2  1.50        -6.8029   0.0000                                         
   Description                                                                  
     l       E           TYP  RCUT    TYP  RCUT                                 
     0    -17.2561641     23  1.900                                             
     0    -15.8743224     23  1.900                                             
     1     -7.0085400     23  1.900                                             
     1     -2.7779785     23  1.900                                             
     2     -6.8029130     23  1.900                                             
  local pseudopotential read in
  partial core-charges read in
  partial kinetic energy density read in
  atomic valenz-charges read in
  non local Contribution for L=           0  read in
    real space projection operators read in
  non local Contribution for L=           0  read in
    real space projection operators read in
  non local Contribution for L=           1  read in
    real space projection operators read in
  non local Contribution for L=           1  read in
    real space projection operators read in
    PAW grid and wavefunctions read in
 
   number of l-projection  operators is LMAX  =           4
   number of lm-projection operators is LMMAX =           8
 
 POTCAR:     PAW_PBE Cu_pv 06Sep2000              
   SHA256 =  cb7b504e2ea725fe1f25c85a9ac77d4012ce94cd394135b722c4e25ec297f1cb Cu
   COPYR  = (c) Copyright 06Sep2000 Georg Kresse                                
   COPYR  = This file is part of the software VASP. Any use, copying, and all ot
   COPYR  = If you do not have a valid VASP license, you may not use, copy or di
   VRHFIN =Cu: d10 p1                                                           
   LEXCH  = PE                                                                  
   EATOM  =  4120.1201 eV,  302.8203 Ry                                         
                                                                                
   TITEL  = PAW_PBE Cu_pv 06Sep2000                                             
   LULTRA =        F    use ultrasoft PP ?                                      
   IUNSCR =        1    unscreen: 0-lin 1-nonlin 2-no                           
   RPACOR =    1.500    partial core radius                                     
   POMASS =   63.546; ZVAL   =   17.000    mass and valenz                      
   RCORE  =    2.000    outmost cutoff radius                                   
   RWIGS  =    2.000; RWIGS  =    1.058    wigner-seitz radius (au A)           
   ENMAX  =  368.648; ENMIN  =  276.486 eV                                      
   RCLOC  =    1.304    cutoff for local pot                                    
   LCOR   =        T    correct aug charges                                     
   LPAW   =        T    paw PP                                                  
   EAUG   =  758.233                                                            
   DEXC   =    0.000                                                            
   RMAX   =    2.046    core radius for proj-oper                               
   RAUG   =    1.300    factor for augmentation sphere                          
   RDEP   =    2.025    radius for radial grids                                 
   RDEPT  =    1.558    core radius for aug-charge                              
                                                                                
   Atomic configuration                                                         
    8 entries                                                                   
     n  l   j            E        occ.                                          
     1  0  0.50     -8850.2467   2.0000                                         
     2  0  0.50     -1062.3498   2.0000                                         
     2  1  1.50      -916.8226   6.0000                                         
     3  0  0.50      -114.6929   2.0000                                         
     3  1  1.50       -72.1325   6.0000                                         
     3  2  2.50        -5.0394  10.0000                                         
     4  0  0.50        -4.6097   1.0000                                         
     4  3  2.50        -1.3606   0.0000                                         
   Description                                                                  
     l       E           TYP  RCUT    TYP  RCUT                                 
     1    -72.1324777     23  1.700                                             
     1     -1.3605826     23  1.700                                             
     2     -5.0393776     23  2.000                                             
     2     -6.3999602     23  2.000                                             
     0     -4.6097062     23  1.800                                             
     0     14.1620818     23  1.800                                             
  local pseudopotential read in
  partial core-charges read in
  partial kinetic energy density read in
  atomic valenz-charges read in
  non local Contribution for L=           1  read in
    real space projection operators read in
  non local Contribution for L=           1  read in
    real space projection operators read in
  non local Contribution for L=           2  read in
    real space projection operators read in
  non local Contribution for L=           2  read in
    real space projection operators read in
  non local Contribution for L=           0  read in
    real space projection operators read in
  non local Contribution for L=           0  read in
    real space projection operators read in
    PAW grid and wavefunctions read in
 
   number of l-projection  operators is LMAX  =           6
   number of lm-projection operators is LMMAX =          18
 
 POTCAR:     PAW_PBE Fe_pv 02Aug2007              
   SHA256 =  5d22e414b1f82158bf2c7ecb8b97b28fd0923e48cadc1c3bf74d524558f5dd32 Fe
   COPYR  = (c) Copyright 02Aug2007 Georg Kresse                                
   COPYR  = This file is part of the software VASP. Any use, copying, and all ot
   COPYR  = If you do not have a valid VASP license, you may not use, copy or di
   VRHFIN =Fe:  3pd7s1                                                          
   LEXCH  = PE                                                                  
   EATOM  =  2457.4239 eV,  180.6156 Ry                                         
                                                                                
   TITEL  = PAW_PBE Fe_pv 02Aug2007                                             
   LULTRA =        F    use ultrasoft PP ?                                      
   IUNSCR =        1    unscreen: 0-lin 1-nonlin 2-no                           
   RPACOR =    1.750    partial core radius                                     
   POMASS =   55.847; ZVAL   =   14.000    mass and valenz                      
   RCORE  =    2.200    outmost cutoff radius                                   
   RWIGS  =    2.200; RWIGS  =    1.164    wigner-seitz radius (au A)           
   ENMAX  =  293.238; ENMIN  =  219.928 eV                                      
   ICORE  =        3    local potential                                         
   LCOR   =        T    correct aug charges                                     
   LPAW   =        T    paw PP                                                  
   EAUG   =  578.342                                                            
   DEXC   =    0.000                                                            
   RMAX   =    2.249    core radius for proj-oper                               
   RAUG   =    1.300    factor for augmentation sphere                          
   RDEP   =    2.296    radius for radial grids                                 
   RDEPT  =    1.766    core radius for aug-charge                              
                                                                                
   Atomic configuration                                                         
    8 entries                                                                   
     n  l   j            E        occ.                                          
     1  0  0.50     -6993.8440   2.0000                                         
     2  0  0.50      -814.6047   2.0000                                         
     2  1  1.50      -693.3689   6.0000                                         
     3  0  0.50       -89.4732   2.0000                                         
     3  1  1.50       -55.6373   6.0000                                         
     3  2  2.50        -3.8151   7.0000                                         
     4  0  0.50        -4.2551   1.0000                                         
     4  3  2.50        -1.3606   0.0000                                         
   Description                                                                  
     l       E           TYP  RCUT    TYP  RCUT                                 
     1    -55.6372668     23  2.000                                             
     1     -5.4423304     23  2.000                                             
     2     -3.8151096     23  2.200                                             
     2     -5.1756922     23  2.200                                             
     0     -4.2550951     23  2.200                                             
     0     27.2116520     23  2.200                                             
     3     -1.3605826     23  2.200                                             
  local pseudopotential read in
  partial core-charges read in
  partial kinetic energy density read in
  atomic valenz-charges read in
  non local Contribution for L=           1  read in
    real space projection operators read in
  non local Contribution for L=           1  read in
    real space projection operators read in
  non local Contribution for L=           2  read in
    real space projection operators read in
  non local Contribution for L=           2  read in
    real space projection operators read in
  non local Contribution for L=           0  read in
    real space projection operators read in
  non local Contribution for L=           0  read in
    real space projection operators read in
    PAW grid and wavefunctions read in
 
   number of l-projection  operators is LMAX  =           6
   number of lm-projection operators is LMMAX =          18
 

 ----------------------------------------------------------------------------- 
|                                                                             |
|  ADVICE TO THIS USER RUNNING 'VASP/VAMP'   (HEAR YOUR MASTER'S VOICE ...):  |
|                                                                             |
|      You have a (more or less) 'large supercell' and for larger cells       |
|      it might be more efficient to use real space projection opertators     |
|      So try LREAL= Auto  in the INCAR   file.                               |
|      Mind:          For very  accurate calculation you might also keep the  |
|      reciprocal projection scheme          (i.e. LREAL=.FALSE.)             |
|                                                                             |
 ----------------------------------------------------------------------------- 


 ----------------------------------------------------------------------------- 
|                                                                             |
|  ADVICE TO THIS USER RUNNING 'VASP/VAMP'   (HEAR YOUR MASTER'S VOICE ...):  |
|                                                                             |
|      You enforced a specific xc-type in the INCAR file,                     |
|      a different type was found on the POTCAR file                          |
|          I HOPE YOU KNOW, WHAT YOU ARE  DOING                               |
|                                                                             |
 ----------------------------------------------------------------------------- 

  PAW_PBE S 06Sep2000                   :
 energy of atom  1       EATOM= -276.8230
 kinetic energy error for atom=    0.0007 (will be added to EATOM!!)
   PAW_PBE Cu_pv 06Sep2000              :
 energy of atom  2       EATOM=-4120.1201
 kinetic energy error for atom=    0.0094 (will be added to EATOM!!)
   PAW_PBE Fe_pv 02Aug2007              :
 energy of atom  3       EATOM=-2457.4239
 kinetic energy error for atom=    0.0025 (will be added to EATOM!!)
 
 
 POSCAR: Fe16 Cu16 S32                           
  positions in direct lattice
  No initial velocities read in
 exchange correlation table for  LEXCH =       14
   RHO(1)=    0.500       N(1)  =     2000
   RHO(2)=  100.500       N(2)  =     4000
 


--------------------------------------------------------------------------------------------------------


 ion  position               nearest neighbor table
   1  0.126  0.125  0.123-  37 2.26  41 2.27  61 2.27  49 2.28
   2  0.626  0.125  0.123-  38 2.26  42 2.27  62 2.27  50 2.28
   3  0.126  0.625  0.123-  39 2.26  43 2.27  63 2.27  51 2.28
   4  0.626  0.625  0.123-  40 2.26  44 2.27  64 2.27  52 2.28
   5  0.374  0.375  0.123-  39 2.26  41 2.27  62 2.27  52 2.28
   6  0.874  0.375  0.123-  40 2.26  42 2.27  61 2.27  51 2.28
   7  0.374  0.875  0.123-  37 2.26  43 2.27  64 2.27  50 2.28
   8  0.874  0.875  0.123-  38 2.26  44 2.27  63 2.27  49 2.28
   9  0.125  0.374  0.873-  41 2.26  45 2.27  51 2.27  55 2.28
  10  0.625  0.374  0.873-  42 2.26  46 2.27  52 2.27  56 2.28
  11  0.125  0.874  0.873-  43 2.26  47 2.27  49 2.27  53 2.28
  12  0.625  0.874  0.873-  44 2.26  48 2.27  50 2.27  54 2.28
  13  0.375  0.126  0.873-  41 2.26  46 2.27  50 2.27  53 2.28
  14  0.875  0.126  0.873-  42 2.26  45 2.27  49 2.27  54 2.28
  15  0.375  0.626  0.873-  43 2.26  48 2.27  52 2.27  55 2.28
  16  0.875  0.626  0.873-  44 2.26  47 2.27  51 2.27  56 2.28
  17  0.124  0.125  0.623-  45 2.26  33 2.27  53 2.27  57 2.28
  18  0.624  0.125  0.623-  46 2.26  34 2.27  54 2.27  58 2.28
  19  0.124  0.625  0.623-  47 2.26  35 2.27  55 2.27  59 2.28
  20  0.624  0.625  0.623-  48 2.26  36 2.27  56 2.27  60 2.28
  21  0.376  0.375  0.623-  46 2.26  36 2.27  55 2.27  57 2.28
  22  0.876  0.375  0.623-  45 2.26  35 2.27  56 2.27  58 2.28
  23  0.376  0.875  0.623-  48 2.26  34 2.27  53 2.27  59 2.28
  24  0.876  0.875  0.623-  47 2.26  33 2.27  54 2.27  60 2.28
  25  0.375  0.124  0.373-  34 2.26  37 2.27  57 2.27  62 2.28
  26  0.875  0.124  0.373-  33 2.26  38 2.27  58 2.27  61 2.28
  27  0.375  0.624  0.373-  36 2.26  39 2.27  59 2.27  64 2.28
  28  0.875  0.624  0.373-  35 2.26  40 2.27  60 2.27  63 2.28
  29  0.125  0.376  0.373-  35 2.26  39 2.27  57 2.27  61 2.28
  30  0.625  0.376  0.373-  36 2.26  40 2.27  58 2.27  62 2.28
  31  0.125  0.876  0.373-  33 2.26  37 2.27  59 2.27  63 2.28
  32  0.625  0.876  0.373-  34 2.26  38 2.27  60 2.27  64 2.28
  33  0.000  0.000  0.502-  26 2.26  31 2.26  17 2.27  24 2.27
  34  0.500  0.000  0.502-  25 2.26  32 2.26  18 2.27  23 2.27
  35  0.000  0.500  0.502-  28 2.26  29 2.26  19 2.27  22 2.27
  36  0.500  0.500  0.502-  27 2.26  30 2.26  20 2.27  21 2.27
  37  0.250  0.000  0.252-   1 2.26   7 2.26  25 2.27  31 2.27
  38  0.750  0.000  0.252-   2 2.26   8 2.26  26 2.27  32 2.27
  39  0.250  0.500  0.252-   3 2.26   5 2.26  27 2.27  29 2.27
  40  0.750  0.500  0.252-   4 2.26   6 2.26  28 2.27  30 2.27
  41  0.250  0.250  0.002-   9 2.26  13 2.26   1 2.27   5 2.27
  42  0.750  0.250  0.002-  10 2.26  14 2.26   2 2.27   6 2.27
  43  0.250  0.750  0.002-  11 2.26  15 2.26   3 2.27   7 2.27
  44  0.750  0.750  0.002-  12 2.26  16 2.26   4 2.27   8 2.27
  45  0.000  0.250  0.752-  17 2.26  22 2.26   9 2.27  14 2.27
  46  0.500  0.250  0.752-  18 2.26  21 2.26  10 2.27  13 2.27
  47  0.000  0.750  0.752-  19 2.26  24 2.26  11 2.27  16 2.27
  48  0.500  0.750  0.752-  20 2.26  23 2.26  12 2.27  15 2.27
  49  0.000  0.000  0.002-  11 2.27  14 2.27   1 2.28   8 2.28
  50  0.500  0.000  0.002-  12 2.27  13 2.27   2 2.28   7 2.28
  51  0.000  0.500  0.002-   9 2.27  16 2.27   3 2.28   6 2.28
  52  0.500  0.500  0.002-  10 2.27  15 2.27   4 2.28   5 2.28
  53  0.250  0.000  0.752-  17 2.27  23 2.27  11 2.28  13 2.28
  54  0.750  0.000  0.752-  18 2.27  24 2.27  12 2.28  14 2.28
  55  0.250  0.500  0.752-  19 2.27  21 2.27   9 2.28  15 2.28
  56  0.750  0.500  0.752-  20 2.27  22 2.27  10 2.28  16 2.28
  57  0.250  0.250  0.502-  25 2.27  29 2.27  17 2.28  21 2.28
  58  0.750  0.250  0.502-  26 2.27  30 2.27  18 2.28  22 2.28
  59  0.250  0.750  0.502-  27 2.27  31 2.27  19 2.28  23 2.28
  60  0.750  0.750  0.502-  28 2.27  32 2.27  20 2.28  24 2.28
  61  0.000  0.250  0.252-   1 2.27   6 2.27  26 2.28  29 2.28
  62  0.500  0.250  0.252-   2 2.27   5 2.27  25 2.28  30 2.28
  63  0.000  0.750  0.252-   3 2.27   8 2.27  28 2.28  31 2.28
  64  0.500  0.750  0.252-   4 2.27   7 2.27  27 2.28  32 2.28
 
  LATTYP: Found a base centered orthorhombic cell.
 ALAT       =    14.6012261156
 B/A-ratio  =     1.0355083080
 C/A-ratio  =     0.7136822564
  
  Lattice vectors:
  
 A1 = (  10.5079310000,   0.1833050000,   0.0000000000)
 A2 = (  -0.1833050000, -10.5079310000,   0.0000000000)
 A3 = (   0.0000000000,   0.0000000000, -10.4206360000)


Analysis of symmetry for initial positions (statically):
=====================================================================
 Subroutine PRICEL returns following result:
 
  LATTYP: Found a face centered orthorhombic cell.
 ALAT       =     7.3006130578
 B/A-ratio  =     1.0355083080
 C/A-ratio  =     1.4273645127
  
  Lattice vectors:
  
 A1 = (  -2.6728090000,  -2.6728090000,   5.2103180000)
 A2 = (  -2.5811565000,   2.5811565000,   5.2103180000)
 A3 = (  -5.2539655000,  -0.0916525000,  -0.0000000000)
 
   8 primitive cells build up your supercell.
 

 Routine SETGRP: Setting up the symmetry group for a 
 base centered orthorhombic supercell.


 Subroutine GETGRP returns: Found  4 space group operations
 (whereof  2 operations were pure point group operations)
 out of a pool of  8 trial point group operations.


The static configuration has the point symmetry C_2 .
 The point group associated with its full space group is C_2v.


Analysis of symmetry for dynamics (positions and initial velocities):
=====================================================================
 Subroutine PRICEL returns following result:
 
  LATTYP: Found a face centered orthorhombic cell.
 ALAT       =     7.3006130578
 B/A-ratio  =     1.0355083080
 C/A-ratio  =     1.4273645127
  
  Lattice vectors:
  
 A1 = (  -2.6728090000,  -2.6728090000,   5.2103180000)
 A2 = (  -2.5811565000,   2.5811565000,   5.2103180000)
 A3 = (  -5.2539655000,  -0.0916525000,  -0.0000000000)
 
   8 primitive cells build up your supercell.
 

 Routine SETGRP: Setting up the symmetry group for a 
 base centered orthorhombic supercell.


 Subroutine GETGRP returns: Found  4 space group operations
 (whereof  2 operations were pure point group operations)
 out of a pool of  8 trial point group operations.


The dynamic configuration has the point symmetry C_2 .
 The point group associated with its full space group is C_2v.


Analysis of structural, dynamic, and magnetic symmetry:
=====================================================================
 Subroutine PRICEL returns following result:
 
  LATTYP: Found a face centered orthorhombic cell.
 ALAT       =     7.3006130578
 B/A-ratio  =     1.0355083080
 C/A-ratio  =     1.4273645127
  
  Lattice vectors:
  
 A1 = (  -2.6728090000,  -2.6728090000,   5.2103180000)
 A2 = (  -2.5811565000,   2.5811565000,   5.2103180000)
 A3 = (  -5.2539655000,  -0.0916525000,  -0.0000000000)
 
   8 primitive cells build up your supercell.
 

 Routine SETGRP: Setting up the symmetry group for a 
 base centered orthorhombic supercell.


 Subroutine GETGRP returns: Found  4 space group operations
 (whereof  2 operations were pure point group operations)
 out of a pool of  8 trial point group operations.


The magnetic configuration has the point symmetry C_2 .
 The point group associated with its full space group is C_2v.


 Subroutine INISYM returns: Found  4 space group operations
 (whereof  2 operations are pure point group operations),
 and found     8 'primitive' translations

 
 
 KPOINTS: Automatic mesh                          

Automatic generation of k-mesh.
Space group operators:
 irot       det(A)        alpha          n_x          n_y          n_z        tau_x        tau_y        tau_z
    1     1.000000     0.000001     1.000000     0.000000     0.000000     0.000000     0.000000     0.000000
    2     1.000000   180.000000     0.000000     0.000000     1.000000     0.000000     0.000000     0.000000
    3    -1.000000   180.000000     0.707107     0.707107     0.000000    -0.750000    -0.000000     0.750000
    4    -1.000000   180.000000     0.707107    -0.707107     0.000000    -0.750000    -0.000000     0.750000
 
 Subroutine IBZKPT returns following result:
 ===========================================
 
 Found      6 irreducible k-points:
 
 Following reciprocal coordinates:
            Coordinates               Weight
  0.000000  0.000000  0.000000      1.000000
  0.500000  0.000000  0.000000      2.000000
  0.500000  0.500000  0.000000      1.000000
  0.000000  0.000000  0.500000      1.000000
  0.500000  0.000000  0.500000      2.000000
  0.500000  0.500000  0.500000      1.000000
 
 Following cartesian coordinates:
            Coordinates               Weight
  0.000000  0.000000  0.000000      1.000000
  0.047598 -0.000830  0.000000      2.000000
  0.046767  0.046767  0.000000      1.000000
  0.000000  0.000000  0.047982      1.000000
  0.047598 -0.000830  0.047982      2.000000
  0.046767  0.046767  0.047982      1.000000
 
 TETIRR: Found     12 inequivalent tetrahedra from       48
 
 Subroutine IBZKPT_HF returns following result:
 ==============================================
 
 Found      8 k-points in 1st BZ
 the following      8 k-points will be used (e.g. in the exchange kernel)
 Following reciprocal coordinates:   # in IRBZ
  0.000000  0.000000  0.000000    0.12500000   1 t-inv F
  0.500000  0.000000  0.000000    0.12500000   2 t-inv F
  0.500000  0.500000  0.000000    0.12500000   3 t-inv F
  0.000000  0.000000  0.500000    0.12500000   4 t-inv F
  0.500000  0.000000  0.500000    0.12500000   5 t-inv F
  0.500000  0.500000  0.500000    0.12500000   6 t-inv F
 -0.000000 -0.500000  0.000000    0.12500000   2 t-inv F spinflp
 -0.000000 -0.500000  0.500000    0.12500000   5 t-inv F spinflp


--------------------------------------------------------------------------------------------------------




 Dimension of arrays:
   k-points           NKPTS =      6   k-points in BZ     NKDIM =      6   number of bands    NBANDS=    512
   number of dos      NEDOS =    301   number of ions     NIONS =     64
   non local maximal  LDIM  =      6   non local SUM 2l+1 LMDIM =     18
   total plane-waves  NPLWV = 829440
   max r-space proj   IRMAX =      1   max aug-charges    IRDMAX=  22915
   dimension x,y,z NGX =    96 NGY =   96 NGZ =   90
   dimension x,y,z NGXF=   192 NGYF=  192 NGZF=  180
   support grid    NGXF=   192 NGYF=  192 NGZF=  180
   ions per type =              32  16  16
   NGX,Y,Z   is equivalent  to a cutoff of  15.19, 15.19, 14.36 a.u.
   NGXF,Y,Z  is equivalent  to a cutoff of  30.37, 30.37, 28.72 a.u.

 SYSTEM =  CuFeS2                                  
 POSCAR =  Fe16 Cu16 S32                           

 Startparameter for this run:
   NWRITE =      2    write-flag & timer
   PREC   = accura    normal or accurate (medium, high low for compatibility)
   ISTART =      1    job   : 0-new  1-cont  2-samecut
   ICHARG =      1    charge: 1-file 2-atom 10-const
   ISPIN  =      2    spin polarized calculation?
   LNONCOLLINEAR =      F non collinear calculations
   LSORBIT =      F    spin-orbit coupling
   INIWAV =      1    electr: 0-lowe 1-rand  2-diag
   LASPH  =      F    aspherical Exc in radial PAW
   METAGGA=      F    non-selfconsistent MetaGGA calc.

 Electronic Relaxation 1
   ENCUT  =  700.0 eV  51.45 Ry    7.17 a.u.  22.67 22.67 22.48*2*pi/ulx,y,z
   ENINI  =  700.0     initial cutoff
   ENAUG  =  758.2 eV  augmentation charge cutoff
   NELM   =    500;   NELMIN=  2; NELMDL=  0     # of ELM steps 
   EDIFF  = 0.1E-07   stopping-criterion for ELM
   LREAL  =      F    real-space projection
   NLSPLINE    = F    spline interpolate recip. space projectors
   LCOMPAT=      F    compatible to vasp.4.4
   GGA_COMPAT  = T    GGA compatible to vasp.4.4-vasp.4.6
   LMAXPAW     = -100 max onsite density
   LMAXMIX     =    4 max onsite mixed and CHGCAR
   VOSKOWN=      0    Vosko Wilk Nusair interpolation
   ROPT   =    0.00000   0.00000   0.00000
 Ionic relaxation
   EDIFFG = -.1E-04   stopping-criterion for IOM
   NSW    =      0    number of steps for IOM
   NBLOCK =      1;   KBLOCK =      1    inner block; outer block 
   IBRION =     -1    ionic relax: 0-MD 1-quasi-New 2-CG
   NFREE  =      0    steps in history (QN), initial steepest desc. (CG)
   ISIF   =      2    stress and relaxation
   IWAVPR =     10    prediction:  0-non 1-charg 2-wave 3-comb
   ISYM   =      2    0-nonsym 1-usesym 2-fastsym
   LCORR  =      T    Harris-Foulkes like correction to forces

   POTIM  = 0.5000    time-step for ionic-motion
   TEIN   =    0.0    initial temperature
   TEBEG  =    0.0;   TEEND  =   0.0 temperature during run
   SMASS  =  -3.00    Nose mass-parameter (am)
   estimated Nose-frequenzy (Omega)   =  0.10E-29 period in steps =****** mass=  -0.252E-26a.u.
   SCALEE = 1.0000    scale energy and forces
   NPACO  =    256;   APACO  = 16.0  distance and # of slots for P.C.
   PSTRESS=    0.0 pullay stress

  Mass of Ions in am
   POMASS =  32.07 63.55 55.85
  Ionic Valenz
   ZVAL   =   6.00 17.00 14.00
  Atomic Wigner-Seitz radii
   RWIGS  =  -1.00 -1.00 -1.00
  virtual crystal weights 
   VCA    =   1.00  1.00  1.00
   NELECT =     688.0000    total number of electrons
   NUPDOWN=      -1.0000    fix difference up-down

 DOS related values:
   EMIN   =  10.00;   EMAX   =-10.00  energy-range for DOS
   EFERMI =   0.00
   ISMEAR =    -5;   SIGMA  =   0.03  broadening in eV -4-tet -1-fermi 0-gaus

 Electronic relaxation 2 (details)
   IALGO  =     38    algorithm
   LDIAG  =      T    sub-space diagonalisation (order eigenvalues)
   LSUBROT=      F    optimize rotation matrix (better conditioning)
   TURBO    =      0    0=normal 1=particle mesh
   IRESTART =      0    0=no restart 2=restart with 2 vectors
   NREBOOT  =      0    no. of reboots
   NMIN     =      0    reboot dimension
   EREF     =   0.00    reference energy to select bands
   IMIX   =      4    mixing-type and parameters
     AMIX     =   0.40;   BMIX     =  1.00
     AMIX_MAG =   1.60;   BMIX_MAG =  1.00
     AMIN     =   0.10
     WC   =   100.;   INIMIX=   1;  MIXPRE=   1;  MAXMIX= -45

 Intra band minimization:
   WEIMIN = 0.0000     energy-eigenvalue tresh-hold
   EBREAK =  0.49E-11  absolut break condition
   DEPER  =   0.30     relativ break condition  

   TIME   =   0.40     timestep for ELM

  volume/ion in A,a.u.               =      17.97       121.29
  Fermi-wavevector in a.u.,A,eV,Ry     =   1.379343  2.606580 25.886255  1.902586
  Thomas-Fermi vector in A             =   2.504321
 
 Write flags
   LWAVE        =      T    write WAVECAR
   LDOWNSAMPLE  =      F    k-point downsampling of WAVECAR
   LCHARG       =      T    write CHGCAR
   LVTOT        =      F    write LOCPOT, total local potential
   LVHAR        =      F    write LOCPOT, Hartree potential only
   LELF         =      F    write electronic localiz. function (ELF)
   LORBIT       =     11    0 simple, 1 ext, 2 COOP (PROOUT), +10 PAW based schemes


 Dipole corrections
   LMONO  =      F    monopole corrections only (constant potential shift)
   LDIPOL =      F    correct potential (dipole corrections)
   IDIPOL =      0    1-x, 2-y, 3-z, 4-all directions 
   EPSILON=  1.0000000 bulk dielectric constant

 LDA+U is selected, type is set to LDAUTYPE =  2
   angular momentum for each species LDAUL =     2    2    2
   U (eV)           for each species LDAUU =   0.0  0.1  4.7
   J (eV)           for each species LDAUJ =   0.0  0.0  0.0
 Exchange correlation treatment:
   GGA     =    PS    GGA type
   LEXCH   =    14    internal setting for exchange type
   VOSKOWN=      0    Vosko Wilk Nusair interpolation
   LHFCALC =     F    Hartree Fock is set to
   LHFONE  =     F    Hartree Fock one center treatment
   AEXX    =    0.0000 exact exchange contribution

 Linear response parameters
   LEPSILON=     F    determine dielectric tensor
   LRPA    =     F    only Hartree local field effects (RPA)
   LNABLA  =     F    use nabla operator in PAW spheres
   LVEL    =     F    velocity operator in full k-point grid
   LINTERFAST=   F  fast interpolation
   KINTER  =     0    interpolate to denser k-point grid
   CSHIFT  =0.1000    complex shift for real part using Kramers Kronig
   OMEGAMAX=  -1.0    maximum frequency
   DEG_THRESHOLD= 0.2000000E-02 threshold for treating states as degnerate
   RTIME   =   -0.100 relaxation time in fs
  (WPLASMAI=    0.000 imaginary part of plasma frequency in eV, 0.658/RTIME)
   DFIELD  = 0.0000000 0.0000000 0.0000000 field for delta impulse in time
 
 Orbital magnetization related:
   ORBITALMAG=     F  switch on orbital magnetization
   LCHIMAG   =     F  perturbation theory with respect to B field
   DQ        =  0.001000  dq finite difference perturbation B field
   LLRAUG    =     F  two centre corrections for induced B field

 PEAD related settings:
   LPEAD      =     T    switch on PEAD
   IPEAD      =     4    finite difference order for dpsi/dk
   LCALCPOL   =     T    calculate macroscopic polarization
   LCALCEPS   =     F    calculate dielectric tensor
   EFIELD_PEAD=    0.0000    0.0000    0.0000
   SKIP_EDOTP =     F
   LRPA       =     F
   SKIP_SCF   =     F


--------------------------------------------------------------------------------------------------------


 Static calculation
 charge density and potential will be updated during run
 spin polarized calculation
 Variant of blocked Davidson
 Davidson routine will perform the subspace rotation
 perform sub-space diagonalisation
    after iterative eigenvector-optimisation
 modified Broyden-mixing scheme, WC =      100.0
 initial mixing is a Kerker type mixing with AMIX =  0.4000 and BMIX =      1.0000
 Hartree-type preconditioning will be used
 using additional bands          168
 reciprocal scheme for non local part
 use partial core corrections
 calculate Harris-corrections to forces 
   (improved forces if not selfconsistent)
 use gradient corrections 
 use of overlap-Matrix (Vanderbilt PP)
 Fermi weights with tetrahedron method with Bloechl corrections


--------------------------------------------------------------------------------------------------------


  energy-cutoff  :      700.00
  volume of cell :     1150.26
      direct lattice vectors                 reciprocal lattice vectors
    10.507931000  0.183305000  0.000000000     0.095195182 -0.001660627  0.000000000
     0.183305000 10.507931000  0.000000000    -0.001660627  0.095195182  0.000000000
     0.000000000  0.000000000 10.420636000     0.000000000  0.000000000  0.095963433

  length of vectors
    10.509529705 10.509529705 10.420636000     0.095209665  0.095209665  0.095963433


 
 old parameters found on file WAVECAR:
  energy-cutoff  :      700.00
  volume of cell :     1150.26
      direct lattice vectors                 reciprocal lattice vectors
    10.507931000  0.183305000  0.000000000     0.095195182 -0.001660627  0.000000000
     0.183305000 10.507931000  0.000000000    -0.001660627  0.095195182  0.000000000
     0.000000000  0.000000000 10.420636000     0.000000000  0.000000000  0.095963433

  length of vectors

 
 k-points in units of 2pi/SCALE and weight: Automatic mesh                          
   0.00000000  0.00000000  0.00000000       0.125
   0.04759759 -0.00083031  0.00000000       0.250
   0.04676728  0.04676728  0.00000000       0.125
   0.00000000  0.00000000  0.04798172       0.125
   0.04759759 -0.00083031  0.04798172       0.250
   0.04676728  0.04676728  0.04798172       0.125
 
 k-points in reciprocal lattice and weights: Automatic mesh                          
   0.00000000  0.00000000  0.00000000       0.125
   0.50000000  0.00000000  0.00000000       0.250
   0.50000000  0.50000000  0.00000000       0.125
   0.00000000  0.00000000  0.50000000       0.125
   0.50000000  0.00000000  0.50000000       0.250
   0.50000000  0.50000000  0.50000000       0.125
 
 position of ions in fractional coordinates (direct lattice) 
   0.12614200  0.12520100  0.12305700
   0.62614200  0.12520100  0.12305700
   0.12614200  0.62520100  0.12305700
   0.62614200  0.62520100  0.12305700
   0.37385800  0.37479900  0.12305700
   0.87385800  0.37479900  0.12305700
   0.37385800  0.87479900  0.12305700
   0.87385800  0.87479900  0.12305700
   0.12479900  0.37385800  0.87305700
   0.62479900  0.37385800  0.87305700
   0.12479900  0.87385800  0.87305700
   0.62479900  0.87385800  0.87305700
   0.37520100  0.12614200  0.87305700
   0.87520100  0.12614200  0.87305700
   0.37520100  0.62614200  0.87305700
   0.87520100  0.62614200  0.87305700
   0.12385800  0.12479900  0.62305700
   0.62385800  0.12479900  0.62305700
   0.12385800  0.62479900  0.62305700
   0.62385800  0.62479900  0.62305700
   0.37614200  0.37520100  0.62305700
   0.87614200  0.37520100  0.62305700
   0.37614200  0.87520100  0.62305700
   0.87614200  0.87520100  0.62305700
   0.37479900  0.12385800  0.37305700
   0.87479900  0.12385800  0.37305700
   0.37479900  0.62385800  0.37305700
   0.87479900  0.62385800  0.37305700
   0.12520100  0.37614200  0.37305700
   0.62520100  0.37614200  0.37305700
   0.12520100  0.87614200  0.37305700
   0.62520100  0.87614200  0.37305700
   0.00000000  0.00000000  0.50168900
   0.50000000  0.00000000  0.50168900
   0.00000000  0.50000000  0.50168900
   0.50000000  0.50000000  0.50168900
   0.25000000  0.00000000  0.25168900
   0.75000000  0.00000000  0.25168900
   0.25000000  0.50000000  0.25168900
   0.75000000  0.50000000  0.25168900
   0.25000000  0.25000000  0.00168900
   0.75000000  0.25000000  0.00168900
   0.25000000  0.75000000  0.00168900
   0.75000000  0.75000000  0.00168900
   0.00000000  0.25000000  0.75168900
   0.50000000  0.25000000  0.75168900
   0.00000000  0.75000000  0.75168900
   0.50000000  0.75000000  0.75168900
   0.00000000  0.00000000  0.00219600
   0.50000000  0.00000000  0.00219600
   0.00000000  0.50000000  0.00219600
   0.50000000  0.50000000  0.00219600
   0.25000000  0.00000000  0.75219600
   0.75000000  0.00000000  0.75219600
   0.25000000  0.50000000  0.75219600
   0.75000000  0.50000000  0.75219600
   0.25000000  0.25000000  0.50219600
   0.75000000  0.25000000  0.50219600
   0.25000000  0.75000000  0.50219600
   0.75000000  0.75000000  0.50219600
   0.00000000  0.25000000  0.25219600
   0.50000000  0.25000000  0.25219600
   0.00000000  0.75000000  0.25219600
   0.50000000  0.75000000  0.25219600
 
 position of ions in cartesian coordinates  (Angst):
   1.34844140  1.33872593  1.28233220
   6.60240690  1.43037843  1.28233220
   1.44009390  6.59269143  1.28233220
   6.69405940  6.68434393  1.28233220
   3.99717660  4.00689207  1.28233220
   9.25114210  4.09854457  1.28233220
   4.08882910  9.26085757  1.28233220
   9.34279460  9.35251007  1.28233220
   1.37990932  3.95135035  9.09780920
   6.63387482  4.04300285  9.09780920
   1.47156182  9.20531585  9.09780920
   6.72552732  9.29696835  9.09780920
   3.96570868  1.39426765  9.09780920
   9.21967418  1.48592015  9.09780920
   4.05736118  6.64823315  9.09780920
   9.31132668  6.73988565  9.09780920
   1.32436760  1.33408307  6.49265020
   6.57833310  1.42573557  6.49265020
   1.41602010  6.58804857  6.49265020
   6.66998560  6.67970107  6.49265020
   4.02125040  4.01153493  6.49265020
   9.27521590  4.10318743  6.49265020
   4.11290290  9.26550043  6.49265020
   9.36686840  9.35715293  6.49265020
   3.96106582  1.37019385  3.88749120
   9.21503132  1.46184635  3.88749120
   4.05271832  6.62415935  3.88749120
   9.30668382  6.71581185  3.88749120
   1.38455218  3.97542415  3.88749120
   6.63851768  4.06707665  3.88749120
   1.47620468  9.22938965  3.88749120
   6.73017018  9.32104215  3.88749120
   0.00000000  0.00000000  5.22791845
   5.25396550  0.09165250  5.22791845
   0.09165250  5.25396550  5.22791845
   5.34561800  5.34561800  5.22791845
   2.62698275  0.04582625  2.62275945
   7.88094825  0.13747875  2.62275945
   2.71863525  5.29979175  2.62275945
   7.97260075  5.39144425  2.62275945
   2.67280900  2.67280900  0.01760045
   7.92677450  2.76446150  0.01760045
   2.76446150  7.92677450  0.01760045
   8.01842700  8.01842700  0.01760045
   0.04582625  2.62698275  7.83307745
   5.29979175  2.71863525  7.83307745
   0.13747875  7.88094825  7.83307745
   5.39144425  7.97260075  7.83307745
   0.00000000  0.00000000  0.02288372
   5.25396550  0.09165250  0.02288372
   0.09165250  5.25396550  0.02288372
   5.34561800  5.34561800  0.02288372
   2.62698275  0.04582625  7.83836072
   7.88094825  0.13747875  7.83836072
   2.71863525  5.29979175  7.83836072
   7.97260075  5.39144425  7.83836072
   2.67280900  2.67280900  5.23320172
   7.92677450  2.76446150  5.23320172
   2.76446150  7.92677450  5.23320172
   8.01842700  8.01842700  5.23320172
   0.04582625  2.62698275  2.62804272
   5.29979175  2.71863525  2.62804272
   0.13747875  7.88094825  2.62804272
   5.39144425  7.97260075  2.62804272
 


--------------------------------------------------------------------------------------------------------


 k-point  1 :   0.0000 0.0000 0.0000  plane waves:   48399
 k-point  2 :   0.5000 0.0000 0.0000  plane waves:   48352
 k-point  3 :   0.5000 0.5000 0.0000  plane waves:   48416
 k-point  4 :   0.0000 0.0000 0.5000  plane waves:   48424
 k-point  5 :   0.5000 0.0000 0.5000  plane waves:   48332
 k-point  6 :   0.5000 0.5000 0.5000  plane waves:   48292

 maximum and minimum number of plane-waves per node :     48424    48292

 maximum number of plane-waves:     48424
 maximum index in each direction: 
   IXMAX=   22   IYMAX=   22   IZMAX=   22
   IXMIN=  -23   IYMIN=  -23   IZMIN=  -22


 serial   3D FFT for wavefunctions
 parallel 3D FFT for charge:
    minimum data exchange during FFTs selected (reduces bandwidth)


 total amount of memory used by VASP MPI-rank0   301249. kBytes
=======================================================================

   base      :      30000. kBytes
   nonl-proj :     175882. kBytes
   fftplans  :       4588. kBytes
   grid      :      69719. kBytes
   one-center:       1990. kBytes
   wavefun   :      19070. kBytes
 
     INWAV:  cpu time   11.2620: real time   11.4012
 Broyden mixing: mesh for mixing (old mesh)
   NGX = 45   NGY = 45   NGZ = 45
  (NGX  =192   NGY  =192   NGZ  =180)
  gives a total of  91125 points

 initial charge density was supplied:
 number of electron     688.0000411 magnetization      -0.0000000
 keeping initial charge density in first step


--------------------------------------------------------------------------------------------------------


 Maximum index for augmentation-charges          895 (set IRDMAX)


--------------------------------------------------------------------------------------------------------


 First call to EWALD:  gamma=   0.169
 Maximum number of real-space cells 3x 3x 3
 Maximum number of reciprocal cells 3x 3x 3

    FEWALD:  cpu time    0.0026: real time    0.0026


--------------------------------------- Iteration      1(   1)  ---------------------------------------


    POTLOK:  cpu time    0.3627: real time    0.4014
    SETDIJ:  cpu time    0.0150: real time    0.0151
     EDDAV:  cpu time  142.3021: real time  143.4642
 BZINTS: Fermi energy:  4.958724;688.000000 electrons
         Band energy:***********;  BLOECHL correction:  0.000000
       DOS:  cpu time    0.0030: real time    0.0031
    CHARGE:  cpu time    1.3899: real time    1.3976
    MIXING:  cpu time    0.0051: real time    0.0052
    --------------------------------------------
      LOOP:  cpu time  144.0778: real time  145.2866

 eigenvalue-minimisations  : 18944
 total energy-change (2. order) :-0.2984702E+03  (-0.1759157E+03)
 number of electron     688.0000412 magnetization      -0.0000000
 augmentation part      283.1607391 magnetization      -0.0000000

 Broyden mixing:
  rms(total) = 0.41648E+01    rms(broyden)= 0.41648E+01
  rms(prec ) = 0.41664E+01
  weight for this iteration     100.00

 Free energy of the ion-electron system (eV)
  ---------------------------------------------------
  alpha Z        PSCENC =      2356.98686764
  Ewald energy   TEWEN  =    -62480.54038021
  -Hartree energ DENC   =    -42957.19037132
  -exchange      EXHF   =         0.00000000
  -V(xc)+E(xc)   XCENC  =      3287.11026268
  PAW double counting   =    112313.99137340  -116006.68327145
  entropy T*S    EENTRO =         0.00000000
  eigenvalues    EBANDS =    -10832.20974739
  atomic energy  EATOM  =    114020.06510763
  Solvation  Ediel_sol  =         0.00000000
  ---------------------------------------------------
  free energy    TOTEN  =      -298.47015903 eV

  energy without entropy =     -298.47015903  energy(sigma->0) =     -298.47015903


--------------------------------------------------------------------------------------------------------




--------------------------------------- Iteration      1(   2)  ---------------------------------------


    POTLOK:  cpu time    0.1518: real time    0.1560
    SETDIJ:  cpu time    0.0151: real time    0.0152
     EDDAV:  cpu time   83.9548: real time   84.5830
 BZINTS: Fermi energy:  4.900455;688.000000 electrons
         Band energy:***********;  BLOECHL correction:  0.000000
       DOS:  cpu time    0.0028: real time    0.0028
    CHARGE:  cpu time    1.1750: real time    1.1832
    MIXING:  cpu time    0.0035: real time    0.2656
    --------------------------------------------
      LOOP:  cpu time   85.3030: real time   86.2059

 eigenvalue-minimisations  : 14080
 total energy-change (2. order) :-0.2922847E+02  (-0.2930409E+02)
 number of electron     688.0000411 magnetization      -0.0000000
 augmentation part      281.4495048 magnetization      -0.0000000

 Broyden mixing:
  rms(total) = 0.16948E+01    rms(broyden)= 0.16948E+01
  rms(prec ) = 0.17104E+01
  weight for this iteration     100.00

 eigenvalues of (default mixing * dielectric matrix)
  average eigenvalue GAMMA=   0.7003
  0.7003

 Free energy of the ion-electron system (eV)
  ---------------------------------------------------
  alpha Z        PSCENC =      2356.98686764
  Ewald energy   TEWEN  =    -62480.54038021
  -Hartree energ DENC   =    -42969.56786255
  -exchange      EXHF   =         0.00000000
  -V(xc)+E(xc)   XCENC  =      3287.45782799
  PAW double counting   =    115883.74172920  -119593.32996737
  entropy T*S    EENTRO =         0.00000000
  eigenvalues    EBANDS =    -10832.51195015
  atomic energy  EATOM  =    114020.06510763
  Solvation  Ediel_sol  =         0.00000000
  ---------------------------------------------------
  free energy    TOTEN  =      -327.69862784 eV

  energy without entropy =     -327.69862784  energy(sigma->0) =     -327.69862784


--------------------------------------------------------------------------------------------------------




--------------------------------------- Iteration      1(   3)  ---------------------------------------


    POTLOK:  cpu time    0.1432: real time    0.1442
    SETDIJ:  cpu time    0.0130: real time    0.0131
     EDDAV:  cpu time  134.9276: real time  135.8511
 BZINTS: Fermi energy:  4.880511;688.000000 electrons
         Band energy:***********;  BLOECHL correction:  0.000000
       DOS:  cpu time    0.0028: real time    0.0028
    CHARGE:  cpu time    1.1781: real time    1.1863
    MIXING:  cpu time    0.0021: real time    0.0180
    --------------------------------------------
      LOOP:  cpu time  136.2668: real time  137.2155

 eigenvalue-minimisations  : 18688
 total energy-change (2. order) :-0.3182525E+00  (-0.5307140E+00)
 number of electron     688.0000412 magnetization      -0.0000000
 augmentation part      282.3403588 magnetization      -0.0000000

 Broyden mixing:
  rms(total) = 0.12666E+01    rms(broyden)= 0.12666E+01
  rms(prec ) = 0.12817E+01
  weight for this iteration     100.00

 eigenvalues of (default mixing * dielectric matrix)
  average eigenvalue GAMMA=   0.5082
  0.5082  0.5082

 Free energy of the ion-electron system (eV)
  ---------------------------------------------------
  alpha Z        PSCENC =      2356.98686764
  Ewald energy   TEWEN  =    -62480.54038021
  -Hartree energ DENC   =    -42932.84960631
  -exchange      EXHF   =         0.00000000
  -V(xc)+E(xc)   XCENC  =      3286.74795003
  PAW double counting   =    114880.60063676  -118580.31169972
  entropy T*S    EENTRO =         0.00000000
  eigenvalues    EBANDS =    -10878.71575618
  atomic energy  EATOM  =    114020.06510763
  Solvation  Ediel_sol  =         0.00000000
  ---------------------------------------------------
  free energy    TOTEN  =      -328.01688036 eV

  energy without entropy =     -328.01688036  energy(sigma->0) =     -328.01688036


--------------------------------------------------------------------------------------------------------




--------------------------------------- Iteration      1(   4)  ---------------------------------------


    POTLOK:  cpu time    0.1430: real time    0.1440
    SETDIJ:  cpu time    0.0131: real time    0.0132
     EDDAV:  cpu time   96.0009: real time   96.6938
 BZINTS: Fermi energy:  4.843637;688.000000 electrons
         Band energy:***********;  BLOECHL correction:  0.000000
       DOS:  cpu time    0.0028: real time    0.0028
    CHARGE:  cpu time    1.1809: real time    1.1893
    MIXING:  cpu time    0.0021: real time    0.0200
    --------------------------------------------
      LOOP:  cpu time   97.3428: real time   98.0631

 eigenvalue-minimisations  : 14848
 total energy-change (2. order) : 0.2034696E-01  (-0.6261814E-01)
 number of electron     688.0000411 magnetization      -0.0000000
 augmentation part      282.1856796 magnetization      -0.0000000

 Broyden mixing:
  rms(total) = 0.10588E+01    rms(broyden)= 0.10588E+01
  rms(prec ) = 0.10598E+01
  weight for this iteration     100.00

 eigenvalues of (default mixing * dielectric matrix)
  average eigenvalue GAMMA=   0.5327
  0.6260  0.6260  0.3461

 Free energy of the ion-electron system (eV)
  ---------------------------------------------------
  alpha Z        PSCENC =      2356.98686764
  Ewald energy   TEWEN  =    -62480.54038021
  -Hartree energ DENC   =    -42934.58922740
  -exchange      EXHF   =         0.00000000
  -V(xc)+E(xc)   XCENC  =      3286.40739469
  PAW double counting   =    114578.11961313  -118278.55526448
  entropy T*S    EENTRO =         0.00000000
  eigenvalues    EBANDS =    -10875.89064440
  atomic energy  EATOM  =    114020.06510763
  Solvation  Ediel_sol  =         0.00000000
  ---------------------------------------------------
  free energy    TOTEN  =      -327.99653340 eV

  energy without entropy =     -327.99653340  energy(sigma->0) =     -327.99653340


--------------------------------------------------------------------------------------------------------




--------------------------------------- Iteration      1(   5)  ---------------------------------------


    POTLOK:  cpu time    0.1414: real time    0.1423
    SETDIJ:  cpu time    0.0130: real time    0.0131
     EDDAV:  cpu time   94.3648: real time   95.0430
 BZINTS: Fermi energy:  5.069522;688.000000 electrons
         Band energy:***********;  BLOECHL correction:  0.000000
       DOS:  cpu time    0.0031: real time    0.0032
    CHARGE:  cpu time    1.1789: real time    1.1861
    MIXING:  cpu time    0.0019: real time    0.0019
    --------------------------------------------
      LOOP:  cpu time   95.7031: real time   96.3895

 eigenvalue-minimisations  : 14848
 total energy-change (2. order) : 0.4744937E-04  (-0.4076176E-02)
 number of electron     688.0000411 magnetization       0.0000000
 augmentation part      282.1177152 magnetization       0.0000000

 Broyden mixing:
  rms(total) = 0.91357E+00    rms(broyden)= 0.91357E+00
  rms(prec ) = 0.91382E+00
  weight for this iteration     100.00

 eigenvalues of (default mixing * dielectric matrix)
  average eigenvalue GAMMA=   0.5804
  0.7994  0.7994  0.3614  0.3614

 Free energy of the ion-electron system (eV)
  ---------------------------------------------------
  alpha Z        PSCENC =      2356.98686764
  Ewald energy   TEWEN  =    -62480.54038021
  -Hartree energ DENC   =    -42942.70614561
  -exchange      EXHF   =         0.00000000
  -V(xc)+E(xc)   XCENC  =      3286.62639766
  PAW double counting   =    114234.14222290  -117934.33331157
  entropy T*S    EENTRO =         0.00000000
  eigenvalues    EBANDS =    -10868.23724437
  atomic energy  EATOM  =    114020.06510763
  Solvation  Ediel_sol  =         0.00000000
  ---------------------------------------------------
  free energy    TOTEN  =      -327.99648595 eV

  energy without entropy =     -327.99648595  energy(sigma->0) =     -327.99648595


--------------------------------------------------------------------------------------------------------




--------------------------------------- Iteration      1(   6)  ---------------------------------------


    POTLOK:  cpu time    0.1395: real time    0.1432
    SETDIJ:  cpu time    0.0131: real time    0.0131
     EDDAV:  cpu time  102.4212: real time  103.1521
 BZINTS: Fermi energy:  5.068545;688.000000 electrons
         Band energy:***********;  BLOECHL correction:  0.000000
       DOS:  cpu time    0.0032: real time    0.0032
    CHARGE:  cpu time    1.1785: real time    1.1863
    MIXING:  cpu time    0.0020: real time    0.0020
    --------------------------------------------
      LOOP:  cpu time  103.7574: real time  104.4999

 eigenvalue-minimisations  : 15616
 total energy-change (2. order) : 0.3696463E-03  (-0.4005979E-03)
 number of electron     688.0000411 magnetization       0.0000000
 augmentation part      282.1085918 magnetization       0.0000000

 Broyden mixing:
  rms(total) = 0.72686E+00    rms(broyden)= 0.72686E+00
  rms(prec ) = 0.72732E+00
  weight for this iteration     100.00

 eigenvalues of (default mixing * dielectric matrix)
  average eigenvalue GAMMA=   0.8079
  1.3193  1.3193  0.5359  0.5359  0.3293

 Free energy of the ion-electron system (eV)
  ---------------------------------------------------
  alpha Z        PSCENC =      2356.98686764
  Ewald energy   TEWEN  =    -62480.54038021
  -Hartree energ DENC   =    -42944.27083426
  -exchange      EXHF   =         0.00000000
  -V(xc)+E(xc)   XCENC  =      3286.60818997
  PAW double counting   =    113805.87724548  -117504.70254888
  entropy T*S    EENTRO =         0.00000000
  eigenvalues    EBANDS =    -10868.01976368
  atomic energy  EATOM  =    114020.06510763
  Solvation  Ediel_sol  =         0.00000000
  ---------------------------------------------------
  free energy    TOTEN  =      -327.99611630 eV

  energy without entropy =     -327.99611630  energy(sigma->0) =     -327.99611630


--------------------------------------------------------------------------------------------------------




--------------------------------------- Iteration      1(   7)  ---------------------------------------


    POTLOK:  cpu time    0.1426: real time    0.1436
    SETDIJ:  cpu time    0.0131: real time    0.0132
     EDDAV:  cpu time  107.7305: real time  108.4815
 BZINTS: Fermi energy:  5.067449;688.000000 electrons
         Band energy:***********;  BLOECHL correction:  0.000000
       DOS:  cpu time    0.0032: real time    0.0032
    CHARGE:  cpu time    1.2122: real time    1.2206
    MIXING:  cpu time    0.0019: real time    0.0019
    --------------------------------------------
      LOOP:  cpu time  109.1035: real time  109.8639

 eigenvalue-minimisations  : 15872
 total energy-change (2. order) : 0.2229962E-02  (-0.7489290E-03)
 number of electron     688.0000411 magnetization       0.0000000
 augmentation part      282.2086904 magnetization       0.0000000

 Broyden mixing:
  rms(total) = 0.15821E+00    rms(broyden)= 0.15821E+00
  rms(prec ) = 0.15844E+00
  weight for this iteration     100.00

 eigenvalues of (default mixing * dielectric matrix)
  average eigenvalue GAMMA=   0.8731
  1.5540  1.5540  0.6164  0.6164  0.5595  0.3385

 Free energy of the ion-electron system (eV)
  ---------------------------------------------------
  alpha Z        PSCENC =      2356.98686764
  Ewald energy   TEWEN  =    -62480.54038021
  -Hartree energ DENC   =    -42945.23356609
  -exchange      EXHF   =         0.00000000
  -V(xc)+E(xc)   XCENC  =      3286.53109060
  PAW double counting   =    112536.70237120  -116231.02377921
  entropy T*S    EENTRO =         0.00000000
  eigenvalues    EBANDS =    -10871.48159790
  atomic energy  EATOM  =    114020.06510763
  Solvation  Ediel_sol  =         0.00000000
  ---------------------------------------------------
  free energy    TOTEN  =      -327.99388634 eV

  energy without entropy =     -327.99388634  energy(sigma->0) =     -327.99388634


--------------------------------------------------------------------------------------------------------




--------------------------------------- Iteration      1(   8)  ---------------------------------------


    POTLOK:  cpu time    0.1387: real time    0.1424
    SETDIJ:  cpu time    0.0129: real time    0.0130
     EDDAV:  cpu time   98.0488: real time   98.7551
 BZINTS: Fermi energy:  5.067641;688.000000 electrons
         Band energy:***********;  BLOECHL correction:  0.000000
       DOS:  cpu time    0.0032: real time    0.0032
    CHARGE:  cpu time    1.1766: real time    1.1849
    MIXING:  cpu time    0.0021: real time    0.0021
    --------------------------------------------
      LOOP:  cpu time   99.3824: real time  100.1008

 eigenvalue-minimisations  : 14848
 total energy-change (2. order) :-0.1476135E-04  (-0.3435592E-04)
 number of electron     688.0000411 magnetization       0.0000000
 augmentation part      282.2066797 magnetization       0.0000000

 Broyden mixing:
  rms(total) = 0.10201E+00    rms(broyden)= 0.10201E+00
  rms(prec ) = 0.10225E+00
  weight for this iteration     100.00

 eigenvalues of (default mixing * dielectric matrix)
  average eigenvalue GAMMA=   0.7975
  1.5769  1.5769  0.6268  0.6268  0.5175  0.3563  0.3010

 Free energy of the ion-electron system (eV)
  ---------------------------------------------------
  alpha Z        PSCENC =      2356.98686764
  Ewald energy   TEWEN  =    -62480.54038021
  -Hartree energ DENC   =    -42945.80845588
  -exchange      EXHF   =         0.00000000
  -V(xc)+E(xc)   XCENC  =      3286.54009435
  PAW double counting   =    112431.70638744  -116125.83890189
  entropy T*S    EENTRO =         0.00000000
  eigenvalues    EBANDS =    -10871.10462018
  atomic energy  EATOM  =    114020.06510763
  Solvation  Ediel_sol  =         0.00000000
  ---------------------------------------------------
  free energy    TOTEN  =      -327.99390110 eV

  energy without entropy =     -327.99390110  energy(sigma->0) =     -327.99390110


--------------------------------------------------------------------------------------------------------




--------------------------------------- Iteration      1(   9)  ---------------------------------------


    POTLOK:  cpu time    0.1427: real time    0.1436
    SETDIJ:  cpu time    0.0130: real time    0.0130
     EDDAV:  cpu time  147.2272: real time  148.2206
 BZINTS: Fermi energy:  5.019739;688.000000 electrons
         Band energy:***********;  BLOECHL correction:  0.000000
       DOS:  cpu time    0.0032: real time    0.0032
    CHARGE:  cpu time    1.3460: real time    1.3550
    MIXING:  cpu time    0.0024: real time    0.0024
    --------------------------------------------
      LOOP:  cpu time  148.7344: real time  149.7378

 eigenvalue-minimisations  : 19200
 total energy-change (2. order) : 0.1274010E-04  (-0.1989943E-05)
 number of electron     688.0000411 magnetization       0.0000000
 augmentation part      282.2078658 magnetization       0.0000000

 Broyden mixing:
  rms(total) = 0.92240E-01    rms(broyden)= 0.92240E-01
  rms(prec ) = 0.92445E-01
  weight for this iteration     100.00

 eigenvalues of (default mixing * dielectric matrix)
  average eigenvalue GAMMA=   1.1215
  2.4356  2.2910  1.0784  1.0117  0.3362  0.5932  0.5932  0.6326

 Free energy of the ion-electron system (eV)
  ---------------------------------------------------
  alpha Z        PSCENC =      2356.98686764
  Ewald energy   TEWEN  =    -62480.54038021
  -Hartree energ DENC   =    -42945.67916642
  -exchange      EXHF   =         0.00000000
  -V(xc)+E(xc)   XCENC  =      3286.53845633
  PAW double counting   =    112422.16745908  -116116.30059915
  entropy T*S    EENTRO =         0.00000000
  eigenvalues    EBANDS =    -10871.23163325
  atomic energy  EATOM  =    114020.06510763
  Solvation  Ediel_sol  =         0.00000000
  ---------------------------------------------------
  free energy    TOTEN  =      -327.99388836 eV

  energy without entropy =     -327.99388836  energy(sigma->0) =     -327.99388836


--------------------------------------------------------------------------------------------------------




--------------------------------------- Iteration      1(  10)  ---------------------------------------


    POTLOK:  cpu time    0.1551: real time    0.1560
    SETDIJ:  cpu time    0.0143: real time    0.0144
     EDDAV:  cpu time   87.1851: real time   87.8237
 BZINTS: Fermi energy:  4.980006;688.000000 electrons
         Band energy:***********;  BLOECHL correction:  0.000000
       DOS:  cpu time    0.0032: real time    0.0032
    CHARGE:  cpu time    1.1771: real time    1.1850
    MIXING:  cpu time    0.0023: real time    0.0023
    --------------------------------------------
      LOOP:  cpu time   88.5371: real time   89.1845

 eigenvalue-minimisations  : 13824
 total energy-change (2. order) : 0.4458689E-04  (-0.4393001E-04)
 number of electron     688.0000411 magnetization       0.0000000
 augmentation part      282.2211680 magnetization       0.0000000

 Broyden mixing:
  rms(total) = 0.17835E-02    rms(broyden)= 0.17831E-02
  rms(prec ) = 0.18545E-02
  weight for this iteration     100.00

 eigenvalues of (default mixing * dielectric matrix)
  average eigenvalue GAMMA=   1.0678
  2.8657  1.6778  1.4066  0.7838  0.7838  0.3362  0.5855  0.5855  0.5852

 Free energy of the ion-electron system (eV)
  ---------------------------------------------------
  alpha Z        PSCENC =      2356.98686764
  Ewald energy   TEWEN  =    -62480.54038021
  -Hartree energ DENC   =    -42945.15830471
  -exchange      EXHF   =         0.00000000
  -V(xc)+E(xc)   XCENC  =      3286.52514895
  PAW double counting   =    112280.18085869  -115974.03017333
  entropy T*S    EENTRO =         0.00000000
  eigenvalues    EBANDS =    -10872.02296842
  atomic energy  EATOM  =    114020.06510763
  Solvation  Ediel_sol  =         0.00000000
  ---------------------------------------------------
  free energy    TOTEN  =      -327.99384378 eV

  energy without entropy =     -327.99384378  energy(sigma->0) =     -327.99384378


--------------------------------------------------------------------------------------------------------




--------------------------------------- Iteration      1(  11)  ---------------------------------------


    POTLOK:  cpu time    0.1415: real time    0.1424
    SETDIJ:  cpu time    0.0132: real time    0.0133
     EDDAV:  cpu time   95.1389: real time   95.8266
 BZINTS: Fermi energy:  4.980045;688.000000 electrons
         Band energy:***********;  BLOECHL correction:  0.000000
       DOS:  cpu time    0.0046: real time    0.0047
    CHARGE:  cpu time    1.1804: real time    1.1886
    MIXING:  cpu time    0.0023: real time    0.0024
    --------------------------------------------
      LOOP:  cpu time   96.4809: real time   97.1780

 eigenvalue-minimisations  : 14592
 total energy-change (2. order) :-0.1810098E-05  (-0.1175399E-05)
 number of electron     688.0000411 magnetization       0.0000000
 augmentation part      282.2221832 magnetization       0.0000000

 Broyden mixing:
  rms(total) = 0.19567E-02    rms(broyden)= 0.19566E-02
  rms(prec ) = 0.19739E-02
  weight for this iteration     100.00

 eigenvalues of (default mixing * dielectric matrix)
  average eigenvalue GAMMA=   1.0486
  2.9108  1.5565  1.5565  0.3362  0.8078  0.8078  0.6403  0.6403  0.6147  0.6147

 Free energy of the ion-electron system (eV)
  ---------------------------------------------------
  alpha Z        PSCENC =      2356.98686764
  Ewald energy   TEWEN  =    -62480.54038021
  -Hartree energ DENC   =    -42945.17362318
  -exchange      EXHF   =         0.00000000
  -V(xc)+E(xc)   XCENC  =      3286.52501118
  PAW double counting   =    112273.39541296  -115967.23847369
  entropy T*S    EENTRO =         0.00000000
  eigenvalues    EBANDS =    -10872.01376790
  atomic energy  EATOM  =    114020.06510763
  Solvation  Ediel_sol  =         0.00000000
  ---------------------------------------------------
  free energy    TOTEN  =      -327.99384559 eV

  energy without entropy =     -327.99384559  energy(sigma->0) =     -327.99384559


--------------------------------------------------------------------------------------------------------




--------------------------------------- Iteration      1(  12)  ---------------------------------------


    POTLOK:  cpu time    0.1421: real time    0.1431
    SETDIJ:  cpu time    0.0131: real time    0.0132
     EDDAV:  cpu time  122.7212: real time  123.5670
 BZINTS: Fermi energy:  4.980066;688.000000 electrons
         Band energy:***********;  BLOECHL correction:  0.000000
       DOS:  cpu time    0.0032: real time    0.0032
    CHARGE:  cpu time    1.1768: real time    1.1851
    MIXING:  cpu time    0.0026: real time    0.0033
    --------------------------------------------
      LOOP:  cpu time  124.0590: real time  124.9148

 eigenvalue-minimisations  : 16896
 total energy-change (2. order) :-0.7687049E-06  (-0.1202180E-06)
 number of electron     688.0000411 magnetization      -0.0000000
 augmentation part      282.2223116 magnetization      -0.0000000

 Broyden mixing:
  rms(total) = 0.37823E-02    rms(broyden)= 0.37823E-02
  rms(prec ) = 0.37869E-02
  weight for this iteration     100.00

 eigenvalues of (default mixing * dielectric matrix)
  average eigenvalue GAMMA=   1.1683
  3.2245  1.9467  1.9467  1.0842  1.0842  0.3362  0.5955  0.5955  0.7170  0.7170
  0.6038

 Free energy of the ion-electron system (eV)
  ---------------------------------------------------
  alpha Z        PSCENC =      2356.98686764
  Ewald energy   TEWEN  =    -62480.54038021
  -Hartree energ DENC   =    -42945.18655010
  -exchange      EXHF   =         0.00000000
  -V(xc)+E(xc)   XCENC  =      3286.52531356
  PAW double counting   =    112269.04536660  -115962.89146516
  entropy T*S    EENTRO =         0.00000000
  eigenvalues    EBANDS =    -10871.99810631
  atomic energy  EATOM  =    114020.06510763
  Solvation  Ediel_sol  =         0.00000000
  ---------------------------------------------------
  free energy    TOTEN  =      -327.99384635 eV

  energy without entropy =     -327.99384635  energy(sigma->0) =     -327.99384635


--------------------------------------------------------------------------------------------------------




--------------------------------------- Iteration      1(  13)  ---------------------------------------


    POTLOK:  cpu time    0.1411: real time    0.1422
    SETDIJ:  cpu time    0.0131: real time    0.0132
     EDDAV:  cpu time  123.8965: real time  124.7398
 BZINTS: Fermi energy:  4.980106;688.000000 electrons
         Band energy:***********;  BLOECHL correction:  0.000000
       DOS:  cpu time    0.0032: real time    0.0032
    CHARGE:  cpu time    1.1784: real time    1.1860
    MIXING:  cpu time    0.0025: real time    0.0025
    --------------------------------------------
      LOOP:  cpu time  125.2347: real time  126.0868

 eigenvalue-minimisations  : 16896
 total energy-change (2. order) :-0.9561627E-06  (-0.2083759E-06)
 number of electron     688.0000411 magnetization      -0.0000000
 augmentation part      282.2219802 magnetization      -0.0000000

 Broyden mixing:
  rms(total) = 0.43826E-02    rms(broyden)= 0.43826E-02
  rms(prec ) = 0.43837E-02
  weight for this iteration     100.00

 eigenvalues of (default mixing * dielectric matrix)
  average eigenvalue GAMMA=   1.1553
  3.1213  2.0195  2.0195  1.1577  1.1577  0.3362  0.8180  0.8180  0.5973  0.5973
  0.6104  0.6104

 Free energy of the ion-electron system (eV)
  ---------------------------------------------------
  alpha Z        PSCENC =      2356.98686764
  Ewald energy   TEWEN  =    -62480.54038021
  -Hartree energ DENC   =    -42945.21378289
  -exchange      EXHF   =         0.00000000
  -V(xc)+E(xc)   XCENC  =      3286.52581347
  PAW double counting   =    112267.06638541  -115960.92637622
  entropy T*S    EENTRO =         0.00000000
  eigenvalues    EBANDS =    -10871.95748213
  atomic energy  EATOM  =    114020.06510763
  Solvation  Ediel_sol  =         0.00000000
  ---------------------------------------------------
  free energy    TOTEN  =      -327.99384731 eV

  energy without entropy =     -327.99384731  energy(sigma->0) =     -327.99384731


--------------------------------------------------------------------------------------------------------




--------------------------------------- Iteration      1(  14)  ---------------------------------------


    POTLOK:  cpu time    0.1424: real time    0.1433
    SETDIJ:  cpu time    0.0130: real time    0.0131
     EDDAV:  cpu time   75.2798: real time   75.8477
 BZINTS: Fermi energy:  4.980112;688.000000 electrons
         Band energy:***********;  BLOECHL correction:  0.000000
       DOS:  cpu time    0.0032: real time    0.0032
    CHARGE:  cpu time    1.1775: real time    1.1857
    MIXING:  cpu time    0.0026: real time    0.0026
    --------------------------------------------
      LOOP:  cpu time   76.6185: real time   77.1955

 eigenvalue-minimisations  : 12800
 total energy-change (2. order) :-0.4092290E-06  (-0.2188500E-07)
 number of electron     688.0000411 magnetization       0.0000000
 augmentation part      282.2218074 magnetization       0.0000000

 Broyden mixing:
  rms(total) = 0.17615E-02    rms(broyden)= 0.17615E-02
  rms(prec ) = 0.17623E-02
  weight for this iteration     100.00

 eigenvalues of (default mixing * dielectric matrix)
  average eigenvalue GAMMA=   1.1806
  3.1464  2.1974  2.1974  1.2036  1.2036  0.9402  0.9402  0.3362  0.5982  0.5982
  0.6913  0.6913  0.6037

 Free energy of the ion-electron system (eV)
  ---------------------------------------------------
  alpha Z        PSCENC =      2356.98686764
  Ewald energy   TEWEN  =    -62480.54038021
  -Hartree energ DENC   =    -42945.20148981
  -exchange      EXHF   =         0.00000000
  -V(xc)+E(xc)   XCENC  =      3286.52583930
  PAW double counting   =    112272.20448109  -115966.08135657
  entropy T*S    EENTRO =         0.00000000
  eigenvalues    EBANDS =    -10871.95291678
  atomic energy  EATOM  =    114020.06510763
  Solvation  Ediel_sol  =         0.00000000
  ---------------------------------------------------
  free energy    TOTEN  =      -327.99384772 eV

  energy without entropy =     -327.99384772  energy(sigma->0) =     -327.99384772


--------------------------------------------------------------------------------------------------------




--------------------------------------- Iteration      1(  15)  ---------------------------------------


    POTLOK:  cpu time    0.1395: real time    0.1415
    SETDIJ:  cpu time    0.0131: real time    0.0131
     EDDAV:  cpu time  132.2077: real time  133.1035
 BZINTS: Fermi energy:  4.980113;688.000000 electrons
         Band energy:***********;  BLOECHL correction:  0.000000
       DOS:  cpu time    0.0032: real time    0.0032
    CHARGE:  cpu time    1.1791: real time    1.1872
    MIXING:  cpu time    0.0026: real time    0.0026
    --------------------------------------------
      LOOP:  cpu time  133.5452: real time  134.4511

 eigenvalue-minimisations  : 17408
 total energy-change (2. order) :-0.2892630E-06  (-0.3048997E-07)
 number of electron     688.0000411 magnetization       0.0000000
 augmentation part      282.2218398 magnetization       0.0000000

 Broyden mixing:
  rms(total) = 0.62064E-03    rms(broyden)= 0.62064E-03
  rms(prec ) = 0.62176E-03
  weight for this iteration     100.00

 eigenvalues of (default mixing * dielectric matrix)
  average eigenvalue GAMMA=   1.2551
  3.8066  2.3707  2.3707  1.3652  1.3652  1.0282  1.0282  0.3362  0.5969  0.5969
  0.7402  0.7402  0.6133  0.6133

 Free energy of the ion-electron system (eV)
  ---------------------------------------------------
  alpha Z        PSCENC =      2356.98686764
  Ewald energy   TEWEN  =    -62480.54038021
  -Hartree energ DENC   =    -42945.18806201
  -exchange      EXHF   =         0.00000000
  -V(xc)+E(xc)   XCENC  =      3286.52554667
  PAW double counting   =    112274.33515164  -115968.21999680
  entropy T*S    EENTRO =         0.00000000
  eigenvalues    EBANDS =    -10871.95808257
  atomic energy  EATOM  =    114020.06510763
  Solvation  Ediel_sol  =         0.00000000
  ---------------------------------------------------
  free energy    TOTEN  =      -327.99384801 eV

  energy without entropy =     -327.99384801  energy(sigma->0) =     -327.99384801


--------------------------------------------------------------------------------------------------------




--------------------------------------- Iteration      1(  16)  ---------------------------------------


    POTLOK:  cpu time    0.1418: real time    0.1428
    SETDIJ:  cpu time    0.0131: real time    0.0132
     EDDAV:  cpu time   84.2432: real time   84.8592
 BZINTS: Fermi energy:  4.980114;688.000000 electrons
         Band energy:***********;  BLOECHL correction:  0.000000
       DOS:  cpu time    0.0032: real time    0.0032
    CHARGE:  cpu time    1.1745: real time    1.1814
    MIXING:  cpu time    0.0028: real time    0.0028
    --------------------------------------------
      LOOP:  cpu time   85.5786: real time   86.2025

 eigenvalue-minimisations  : 13568
 total energy-change (2. order) :-0.7814378E-07  (-0.1599483E-07)
 number of electron     688.0000411 magnetization       0.0000000
 augmentation part      282.2217538 magnetization       0.0000000

 Broyden mixing:
  rms(total) = 0.13658E-03    rms(broyden)= 0.13658E-03
  rms(prec ) = 0.13735E-03
  weight for this iteration     100.00

 eigenvalues of (default mixing * dielectric matrix)
  average eigenvalue GAMMA=   1.2710
  4.2200  2.6962  1.8981  1.8981  1.2298  1.2298  0.3362  0.8626  0.8626  0.5978
  0.5978  0.7107  0.7107  0.6077  0.6077

 Free energy of the ion-electron system (eV)
  ---------------------------------------------------
  alpha Z        PSCENC =      2356.98686764
  Ewald energy   TEWEN  =    -62480.54038021
  -Hartree energ DENC   =    -42945.18446368
  -exchange      EXHF   =         0.00000000
  -V(xc)+E(xc)   XCENC  =      3286.52547560
  PAW double counting   =    112275.34849418  -115969.23691546
  entropy T*S    EENTRO =         0.00000000
  eigenvalues    EBANDS =    -10871.95803379
  atomic energy  EATOM  =    114020.06510763
  Solvation  Ediel_sol  =         0.00000000
  ---------------------------------------------------
  free energy    TOTEN  =      -327.99384809 eV

  energy without entropy =     -327.99384809  energy(sigma->0) =     -327.99384809


--------------------------------------------------------------------------------------------------------




--------------------------------------- Iteration      1(  17)  ---------------------------------------


    POTLOK:  cpu time    0.1398: real time    0.1408
    SETDIJ:  cpu time    0.0131: real time    0.0131
     EDDAV:  cpu time   96.5049: real time   97.1718
 BZINTS: Fermi energy:  4.980114;688.000000 electrons
         Band energy:***********;  BLOECHL correction:  0.000000
       DOS:  cpu time    0.0032: real time    0.0032
    --------------------------------------------
      LOOP:  cpu time   96.6610: real time   97.3289

 eigenvalue-minimisations  : 12800
 total energy-change (2. order) : 0.1105946E-08  (-0.1805327E-08)
 number of electron     688.0000411 magnetization       0.0000000
 augmentation part      282.2217538 magnetization       0.0000000

 Free energy of the ion-electron system (eV)
  ---------------------------------------------------
  alpha Z        PSCENC =      2356.98686764
  Ewald energy   TEWEN  =    -62480.54038021
  -Hartree energ DENC   =    -42945.18444890
  -exchange      EXHF   =         0.00000000
  -V(xc)+E(xc)   XCENC  =      3286.52554717
  PAW double counting   =    112275.94574051  -115969.83543881
  entropy T*S    EENTRO =         0.00000000
  eigenvalues    EBANDS =    -10871.95684311
  atomic energy  EATOM  =    114020.06510763
  Solvation  Ediel_sol  =         0.00000000
  ---------------------------------------------------
  free energy    TOTEN  =      -327.99384809 eV

  energy without entropy =     -327.99384809  energy(sigma->0) =     -327.99384809


--------------------------------------------------------------------------------------------------------




 average (electrostatic) potential at core
  the test charge radii are     0.9698  0.8297  0.9500
  (the norm of the test charge is              1.0000)
       1 -86.6172       2 -86.6172       3 -86.6172       4 -86.6172       5 -86.6172
       6 -86.6172       7 -86.6172       8 -86.6172       9 -86.6172      10 -86.6172
      11 -86.6172      12 -86.6172      13 -86.6172      14 -86.6172      15 -86.6172
      16 -86.6172      17 -86.6172      18 -86.6172      19 -86.6172      20 -86.6172
      21 -86.6172      22 -86.6172      23 -86.6172      24 -86.6172      25 -86.6172
      26 -86.6172      27 -86.6172      28 -86.6172      29 -86.6172      30 -86.6172
      31 -86.6172      32 -86.6172      33 -80.6977      34 -80.6977      35 -80.6977
      36 -80.6977      37 -80.6977      38 -80.6977      39 -80.6977      40 -80.6977
      41 -80.6977      42 -80.6977      43 -80.6977      44 -80.6977      45 -80.6977
      46 -80.6977      47 -80.6977      48 -80.6977      49 -80.2216      50 -80.2216
      51 -80.2216      52 -80.2216      53 -80.2216      54 -80.2216      55 -80.2216
[...]
   -.421E+02 0.259E+00 0.108E+02   0.430E+02 -.246E+00 -.109E+02   -.862E+00 -.123E-01 0.106E+00   -.153E-04 0.156E-05 0.101E-04
   -.421E+02 0.259E+00 0.108E+02   0.430E+02 -.246E+00 -.109E+02   -.862E+00 -.123E-01 0.106E+00   -.153E-04 0.156E-05 0.101E-04
   -.421E+02 0.259E+00 0.108E+02   0.430E+02 -.246E+00 -.109E+02   -.862E+00 -.123E-01 0.106E+00   -.153E-04 0.156E-05 0.101E-04
   -.421E+02 0.259E+00 0.108E+02   0.430E+02 -.246E+00 -.109E+02   -.862E+00 -.123E-01 0.106E+00   -.153E-04 0.156E-05 0.101E-04
   0.421E+02 -.259E+00 0.108E+02   -.430E+02 0.246E+00 -.109E+02   0.862E+00 0.123E-01 0.106E+00   0.153E-04 -.156E-05 0.101E-04
   0.421E+02 -.259E+00 0.108E+02   -.430E+02 0.246E+00 -.109E+02   0.862E+00 0.123E-01 0.106E+00   0.153E-04 -.156E-05 0.101E-04
   0.421E+02 -.259E+00 0.108E+02   -.430E+02 0.246E+00 -.109E+02   0.862E+00 0.123E-01 0.106E+00   0.153E-04 -.156E-05 0.101E-04
   0.421E+02 -.259E+00 0.108E+02   -.430E+02 0.246E+00 -.109E+02   0.862E+00 0.123E-01 0.106E+00   0.153E-04 -.156E-05 0.101E-04
   0.259E+00 -.421E+02 0.108E+02   -.246E+00 0.430E+02 -.109E+02   -.123E-01 -.862E+00 0.106E+00   0.156E-05 -.153E-04 0.101E-04
   0.259E+00 -.421E+02 0.108E+02   -.246E+00 0.430E+02 -.109E+02   -.123E-01 -.862E+00 0.106E+00   0.156E-05 -.153E-04 0.101E-04
   0.259E+00 -.421E+02 0.108E+02   -.246E+00 0.430E+02 -.109E+02   -.123E-01 -.862E+00 0.106E+00   0.156E-05 -.153E-04 0.101E-04
   0.259E+00 -.421E+02 0.108E+02   -.246E+00 0.430E+02 -.109E+02   -.123E-01 -.862E+00 0.106E+00   0.156E-05 -.153E-04 0.101E-04
   -.259E+00 0.421E+02 0.108E+02   0.246E+00 -.430E+02 -.109E+02   0.123E-01 0.862E+00 0.106E+00   -.156E-05 0.153E-04 0.101E-04
   -.259E+00 0.421E+02 0.108E+02   0.246E+00 -.430E+02 -.109E+02   0.123E-01 0.862E+00 0.106E+00   -.156E-05 0.153E-04 0.101E-04
   -.259E+00 0.421E+02 0.108E+02   0.246E+00 -.430E+02 -.109E+02   0.123E-01 0.862E+00 0.106E+00   -.156E-05 0.153E-04 0.101E-04
   -.259E+00 0.421E+02 0.108E+02   0.246E+00 -.430E+02 -.109E+02   0.123E-01 0.862E+00 0.106E+00   -.156E-05 0.153E-04 0.101E-04
   -.217E-06 0.349E-07 -.126E+02   0.237E-12 0.000E+00 0.121E+02   -.424E-25 -.129E-24 0.511E+00   0.726E-12 0.338E-13 -.482E-04
   -.217E-06 0.349E-07 -.126E+02   0.269E-12 -.568E-13 0.121E+02   -.156E-24 0.155E-24 0.511E+00   -.808E-12 -.153E-12 -.482E-04
   -.217E-06 0.349E-07 -.126E+02   0.237E-12 -.284E-13 0.121E+02   0.153E-24 -.103E-24 0.511E+00   0.529E-12 0.152E-12 -.482E-04
   -.217E-06 0.348E-07 -.126E+02   0.241E-12 -.284E-13 0.121E+02   -.121E-24 -.129E-25 0.511E+00   -.635E-12 0.142E-12 -.482E-04
   0.349E-07 -.217E-06 -.126E+02   0.171E-12 0.284E-13 0.121E+02   0.365E-25 -.582E-25 0.511E+00   -.875E-12 0.641E-13 -.482E-04
   0.349E-07 -.217E-06 -.126E+02   0.171E-12 0.284E-13 0.121E+02   0.150E-24 0.218E-25 0.511E+00   0.175E-12 0.576E-13 -.482E-04
   0.349E-07 -.217E-06 -.126E+02   0.114E-12 0.000E+00 0.121E+02   0.622E-25 -.103E-24 0.511E+00   -.926E-12 0.129E-12 -.482E-04
   0.349E-07 -.217E-06 -.126E+02   0.114E-12 0.000E+00 0.121E+02   -.188E-25 -.129E-25 0.511E+00   0.185E-12 0.971E-13 -.482E-04
   -.217E-06 0.349E-07 -.126E+02   0.206E-12 0.888E-13 0.121E+02   -.214E-24 -.775E-25 0.511E+00   -.814E-12 0.589E-12 -.482E-04
   -.217E-06 0.349E-07 -.126E+02   0.234E-12 0.888E-13 0.121E+02   0.170E-24 -.207E-24 0.511E+00   0.572E-12 0.649E-12 -.482E-04
   -.217E-06 0.349E-07 -.126E+02   0.199E-12 0.666E-13 0.121E+02   -.606E-25 -.103E-24 0.511E+00   -.858E-12 -.412E-12 -.482E-04
   -.217E-06 0.349E-07 -.126E+02   0.199E-12 0.666E-13 0.121E+02   -.755E-25 0.000E+00 0.511E+00   0.524E-12 -.510E-12 -.482E-04
   0.349E-07 -.217E-06 -.126E+02   0.709E-13 0.659E-13 0.121E+02   0.163E-24 -.129E-25 0.511E+00   0.130E-12 0.582E-12 -.482E-04
   0.349E-07 -.217E-06 -.126E+02   0.130E-12 0.123E-12 0.121E+02   0.131E-24 -.905E-25 0.511E+00   -.779E-12 0.541E-12 -.482E-04
   0.349E-07 -.217E-06 -.126E+02   0.353E-13 0.434E-13 0.121E+02   0.307E-25 -.155E-24 0.511E+00   0.129E-12 -.302E-12 -.482E-04
   0.349E-07 -.217E-06 -.126E+02   0.123E-12 0.433E-13 0.121E+02   -.136E-24 0.574E-25 0.511E+00   -.670E-12 -.432E-12 -.482E-04
   0.522E-07 -.764E-07 -.102E+02   -.169E-12 -.131E-12 0.964E+01   -.246E-24 0.129E-25 0.612E+00   -.282E-13 0.654E-13 -.833E-05
   0.522E-07 -.764E-07 -.102E+02   -.180E-12 -.128E-12 0.964E+01   0.128E-24 -.258E-25 0.612E+00   -.152E-12 0.688E-13 -.833E-05
   0.522E-07 -.764E-07 -.102E+02   -.205E-12 -.146E-12 0.964E+01   0.137E-24 -.103E-24 0.612E+00   -.124E-12 0.916E-13 -.833E-05
   0.522E-07 -.764E-07 -.102E+02   -.201E-12 -.568E-13 0.964E+01   0.970E-25 0.174E-24 0.612E+00   -.140E-12 0.952E-13 -.833E-05
   -.764E-07 0.522E-07 -.102E+02   -.959E-13 -.178E-13 0.964E+01   -.125E-24 0.414E-24 0.612E+00   -.352E-12 0.611E-13 -.833E-05
   -.764E-07 0.522E-07 -.102E+02   -.462E-13 -.107E-13 0.964E+01   -.687E-26 0.258E-25 0.612E+00   0.355E-12 -.232E-13 -.833E-05
   -.764E-07 0.522E-07 -.102E+02   -.888E-13 0.711E-14 0.964E+01   0.711E-25 -.103E-24 0.612E+00   -.332E-12 0.180E-12 -.833E-05
   -.764E-07 0.522E-07 -.102E+02   -.817E-13 0.711E-14 0.964E+01   0.335E-25 -.103E-24 0.612E+00   0.353E-12 0.195E-12 -.833E-05
   0.522E-07 -.763E-07 -.102E+02   -.192E-12 -.404E-13 0.964E+01   0.291E-24 0.103E-24 0.612E+00   -.425E-12 0.427E-12 -.833E-05
   0.522E-07 -.763E-07 -.102E+02   -.163E-12 -.105E-12 0.964E+01   0.315E-24 -.258E-25 0.612E+00   0.947E-13 0.549E-12 -.833E-05
   0.522E-07 -.764E-07 -.102E+02   -.185E-12 -.284E-13 0.964E+01   0.425E-24 -.646E-25 0.612E+00   -.337E-12 -.169E-12 -.833E-05
   0.522E-07 -.764E-07 -.102E+02   -.156E-12 -.213E-13 0.964E+01   -.252E-24 0.258E-25 0.612E+00   0.258E-13 -.348E-12 -.833E-05
   -.764E-07 0.522E-07 -.102E+02   -.465E-13 0.676E-13 0.964E+01   -.666E-25 -.103E-24 0.612E+00   0.219E-12 0.508E-12 -.833E-05
   -.764E-07 0.522E-07 -.102E+02   -.556E-13 0.117E-12 0.964E+01   -.723E-25 0.775E-25 0.612E+00   -.152E-12 0.447E-12 -.833E-05
   -.764E-07 0.522E-07 -.102E+02   -.370E-13 0.119E-12 0.964E+01   0.949E-25 0.362E-24 0.612E+00   0.242E-12 -.318E-12 -.833E-05
   -.764E-07 0.522E-07 -.102E+02   -.350E-14 0.835E-13 0.964E+01   0.828E-26 0.517E-25 0.612E+00   -.134E-12 -.370E-12 -.833E-05
 -----------------------------------------------------------------------------------------------
   -.149E-05 -.149E-05 -.214E+02   0.204E-12 -.172E-13 0.504E-12   0.134E-14 -.222E-15 0.213E+02   -.546E-11 0.395E-12 -.581E-03
 
 
 POSITION                                       TOTAL-FORCE (eV/Angst)
 -----------------------------------------------------------------------------------
      1.34844      1.33873      1.28233         0.001007     -0.000380     -0.000763
      6.60241      1.43038      1.28233         0.001007     -0.000380     -0.000763
      1.44009      6.59269      1.28233         0.001007     -0.000380     -0.000763
      6.69406      6.68434      1.28233         0.001007     -0.000380     -0.000763
      3.99718      4.00689      1.28233        -0.001007      0.000380     -0.000763
      9.25114      4.09854      1.28233        -0.001007      0.000380     -0.000763
      4.08883      9.26086      1.28233        -0.001007      0.000380     -0.000763
      9.34279      9.35251      1.28233        -0.001007      0.000380     -0.000763
      1.37991      3.95135      9.09781         0.000380     -0.001007     -0.000763
      6.63387      4.04300      9.09781         0.000380     -0.001007     -0.000763
      1.47156      9.20532      9.09781         0.000380     -0.001007     -0.000763
      6.72553      9.29697      9.09781         0.000380     -0.001007     -0.000763
      3.96571      1.39427      9.09781        -0.000380      0.001007     -0.000763
      9.21967      1.48592      9.09781        -0.000380      0.001007     -0.000763
      4.05736      6.64823      9.09781        -0.000380      0.001007     -0.000763
      9.31133      6.73989      9.09781        -0.000380      0.001007     -0.000763
      1.32437      1.33408      6.49265        -0.001007      0.000380     -0.000763
      6.57833      1.42574      6.49265        -0.001007      0.000380     -0.000763
      1.41602      6.58805      6.49265        -0.001007      0.000380     -0.000763
      6.66999      6.67970      6.49265        -0.001007      0.000380     -0.000763
      4.02125      4.01153      6.49265         0.001007     -0.000380     -0.000763
      9.27522      4.10319      6.49265         0.001007     -0.000380     -0.000763
      4.11290      9.26550      6.49265         0.001007     -0.000380     -0.000763
      9.36687      9.35715      6.49265         0.001007     -0.000380     -0.000763
      3.96107      1.37019      3.88749         0.000380     -0.001007     -0.000763
      9.21503      1.46185      3.88749         0.000380     -0.001007     -0.000763
      4.05272      6.62416      3.88749         0.000380     -0.001007     -0.000763
      9.30668      6.71581      3.88749         0.000380     -0.001007     -0.000763
      1.38455      3.97542      3.88749        -0.000380      0.001007     -0.000763
      6.63852      4.06708      3.88749        -0.000380      0.001007     -0.000763
      1.47620      9.22939      3.88749        -0.000380      0.001007     -0.000763
      6.73017      9.32104      3.88749        -0.000380      0.001007     -0.000763
      0.00000      0.00000      5.22792        -0.000000     -0.000000     -0.001465
      5.25397      0.09165      5.22792        -0.000000     -0.000000     -0.001465
      0.09165      5.25397      5.22792        -0.000000     -0.000000     -0.001465
      5.34562      5.34562      5.22792        -0.000000     -0.000000     -0.001465
      2.62698      0.04583      2.62276        -0.000000     -0.000000     -0.001465
      7.88095      0.13748      2.62276        -0.000000     -0.000000     -0.001465
      2.71864      5.29979      2.62276        -0.000000     -0.000000     -0.001465
      7.97260      5.39144      2.62276        -0.000000     -0.000000     -0.001465
      2.67281      2.67281      0.01760        -0.000000     -0.000000     -0.001465
      7.92677      2.76446      0.01760        -0.000000     -0.000000     -0.001465
      2.76446      7.92677      0.01760        -0.000000     -0.000000     -0.001465
      8.01843      8.01843      0.01760        -0.000000     -0.000000     -0.001465
      0.04583      2.62698      7.83308        -0.000000     -0.000000     -0.001465
      5.29979      2.71864      7.83308        -0.000000     -0.000000     -0.001465
      0.13748      7.88095      7.83308        -0.000000     -0.000000     -0.001465
      5.39144      7.97260      7.83308        -0.000000     -0.000000     -0.001465
      0.00000      0.00000      0.02288        -0.000000     -0.000000      0.002990
      5.25397      0.09165      0.02288        -0.000000     -0.000000      0.002990
      0.09165      5.25397      0.02288        -0.000000     -0.000000      0.002990
      5.34562      5.34562      0.02288        -0.000000     -0.000000      0.002990
      2.62698      0.04583      7.83836        -0.000000     -0.000000      0.002990
      7.88095      0.13748      7.83836        -0.000000     -0.000000      0.002990
      2.71864      5.29979      7.83836        -0.000000     -0.000000      0.002990
      7.97260      5.39144      7.83836        -0.000000     -0.000000      0.002990
      2.67281      2.67281      5.23320        -0.000000     -0.000000      0.002990
      7.92677      2.76446      5.23320        -0.000000     -0.000000      0.002990
      2.76446      7.92677      5.23320        -0.000000     -0.000000      0.002990
      8.01843      8.01843      5.23320        -0.000000     -0.000000      0.002990
      0.04583      2.62698      2.62804        -0.000000     -0.000000      0.002990
      5.29979      2.71864      2.62804        -0.000000     -0.000000      0.002990
      0.13748      7.88095      2.62804        -0.000000     -0.000000      0.002990
      5.39144      7.97260      2.62804        -0.000000     -0.000000      0.002990
 -----------------------------------------------------------------------------------
    total drift:                               -0.000001     -0.000001     -0.034933


--------------------------------------------------------------------------------------------------------



  FREE ENERGIE OF THE ION-ELECTRON SYSTEM (eV)
  ---------------------------------------------------
  free  energy   TOTEN  =      -327.99384809 eV

  energy  without entropy=     -327.99384809  energy(sigma->0) =     -327.99384809
 


--------------------------------------------------------------------------------------------------------


    POTLOK:  cpu time    0.1521: real time    0.1528


--------------------------------------------------------------------------------------------------------


 writing wavefunctions
     LOOP+:  cpu time 1975.1751: real time 2290.3294
    4ORBIT:  cpu time    0.0000: real time    0.0000
 


 total charge     
 
# of ion       s       p       d       tot
------------------------------------------
    1        1.314   2.410   0.000   3.723
    2        1.314   2.410   0.000   3.723
    3        1.314   2.410   0.000   3.723
    4        1.314   2.410   0.000   3.723
    5        1.314   2.410   0.000   3.723
    6        1.314   2.410   0.000   3.723
    7        1.314   2.410   0.000   3.723
    8        1.314   2.410   0.000   3.723
    9        1.314   2.410   0.000   3.724
   10        1.314   2.410   0.000   3.724
   11        1.314   2.410   0.000   3.724
   12        1.314   2.410   0.000   3.724
   13        1.314   2.410   0.000   3.724
   14        1.314   2.410   0.000   3.724
   15        1.314   2.410   0.000   3.724
   16        1.314   2.410   0.000   3.724
   17        1.314   2.410   0.000   3.723
   18        1.314   2.410   0.000   3.723
   19        1.314   2.410   0.000   3.723
   20        1.314   2.410   0.000   3.723
   21        1.314   2.410   0.000   3.723
   22        1.314   2.410   0.000   3.723
   23        1.314   2.410   0.000   3.723
   24        1.314   2.410   0.000   3.723
   25        1.314   2.410   0.000   3.724
   26        1.314   2.410   0.000   3.724
   27        1.314   2.410   0.000   3.724
   28        1.314   2.410   0.000   3.724
   29        1.314   2.410   0.000   3.724
   30        1.314   2.410   0.000   3.724
   31        1.314   2.410   0.000   3.724
   32        1.314   2.410   0.000   3.724
   33        0.260   6.202   8.916  15.378
   34        0.260   6.202   8.916  15.378
   35        0.260   6.202   8.916  15.378
   36        0.260   6.202   8.916  15.378
   37        0.260   6.202   8.917  15.378
   38        0.260   6.202   8.917  15.378
   39        0.260   6.202   8.917  15.378
   40        0.260   6.202   8.917  15.378
   41        0.260   6.202   8.916  15.378
   42        0.260   6.202   8.916  15.378
   43        0.260   6.202   8.916  15.378
   44        0.260   6.202   8.916  15.378
   45        0.260   6.202   8.917  15.378
   46        0.260   6.202   8.917  15.378
   47        0.260   6.202   8.917  15.378
   48        0.260   6.202   8.917  15.378
   49        0.350   6.351   5.820  12.521
   50        0.350   6.351   5.820  12.521
   51        0.350   6.351   5.820  12.521
   52        0.350   6.351   5.820  12.521
   53        0.350   6.350   5.820  12.521
   54        0.350   6.350   5.820  12.521
   55        0.350   6.350   5.820  12.521
   56        0.350   6.350   5.820  12.521
   57        0.350   6.351   5.820  12.521
   58        0.350   6.351   5.820  12.521
   59        0.350   6.351   5.820  12.521
   60        0.350   6.351   5.820  12.521
   61        0.350   6.350   5.820  12.521
   62        0.350   6.350   5.820  12.521
   63        0.350   6.350   5.820  12.521
   64        0.350   6.350   5.820  12.521
--------------------------------------------------
tot         51.788 277.966 235.785 565.539
 


 magnetization (x)
 
# of ion       s       p       d       tot
------------------------------------------
    1       -0.000  -0.008   0.000  -0.009
    2       -0.000  -0.008   0.000  -0.009
    3       -0.000  -0.008   0.000  -0.009
    4       -0.000  -0.008   0.000  -0.009
    5       -0.000  -0.008   0.000  -0.009
    6       -0.000  -0.008   0.000  -0.009
    7       -0.000  -0.008   0.000  -0.009
    8       -0.000  -0.008   0.000  -0.009
    9        0.000   0.008   0.000   0.009
   10        0.000   0.008   0.000   0.009
   11        0.000   0.008   0.000   0.009
   12        0.000   0.008   0.000   0.009
   13        0.000   0.008   0.000   0.009
   14        0.000   0.008   0.000   0.009
   15        0.000   0.008   0.000   0.009
   16        0.000   0.008   0.000   0.009
   17       -0.000  -0.008   0.000  -0.009
   18       -0.000  -0.008   0.000  -0.009
   19       -0.000  -0.008   0.000  -0.009
   20       -0.000  -0.008   0.000  -0.009
   21       -0.000  -0.008   0.000  -0.009
   22       -0.000  -0.008   0.000  -0.009
   23       -0.000  -0.008   0.000  -0.009
   24       -0.000  -0.008   0.000  -0.009
   25        0.000   0.008   0.000   0.009
   26        0.000   0.008   0.000   0.009
   27        0.000   0.008   0.000   0.009
   28        0.000   0.008   0.000   0.009
   29        0.000   0.008   0.000   0.009
   30        0.000   0.008   0.000   0.009
   31        0.000   0.008   0.000   0.009
   32        0.000   0.008   0.000   0.009
   33        0.000   0.000  -0.000   0.000
   34        0.000   0.000  -0.000   0.000
   35        0.000   0.000  -0.000   0.000
   36        0.000   0.000  -0.000   0.000
   37       -0.000  -0.000   0.000  -0.001
   38       -0.000  -0.000   0.000  -0.001
   39       -0.000  -0.000   0.000  -0.001
   40       -0.000  -0.000   0.000  -0.001
   41        0.000   0.000  -0.000   0.000
   42        0.000   0.000  -0.000   0.000
   43        0.000   0.000  -0.000   0.000
   44        0.000   0.000  -0.000   0.000
   45       -0.000  -0.000   0.000  -0.001
   46       -0.000  -0.000   0.000  -0.001
   47       -0.000  -0.000   0.000  -0.001
   48       -0.000  -0.000   0.000  -0.001
   49        0.020   0.054   3.671   3.744
   50        0.020   0.054   3.671   3.744
   51        0.020   0.054   3.671   3.744
   52        0.020   0.054   3.671   3.744
   53       -0.020  -0.054  -3.670  -3.744
   54       -0.020  -0.054  -3.670  -3.744
   55       -0.020  -0.054  -3.670  -3.744
   56       -0.020  -0.054  -3.670  -3.744
   57        0.020   0.054   3.671   3.744
   58        0.020   0.054   3.671   3.744
   59        0.020   0.054   3.671   3.744
   60        0.020   0.054   3.671   3.744
   61       -0.020  -0.054  -3.670  -3.744
   62       -0.020  -0.054  -3.670  -3.744
   63       -0.020  -0.054  -3.670  -3.744
   64       -0.020  -0.054  -3.670  -3.744
--------------------------------------------------
tot         -0.001   0.001  -0.001  -0.000
 
 BZINTS: Fermi energy:  4.980114;688.000000 electrons
         Band energy:***********;  BLOECHL correction:  0.000000

 total amount of memory used by VASP MPI-rank0   301249. kBytes
=======================================================================

   base      :      30000. kBytes
   nonl-proj :     175882. kBytes
   fftplans  :       4588. kBytes
   grid      :      69719. kBytes
   one-center:       1990. kBytes
   wavefun   :      19070. kBytes
 
  
  
 General timing and accounting informations for this job:
 ========================================================
  
                  Total CPU time used (sec):     2025.738
                            User time (sec):     2013.678
                          System time (sec):       12.059
                         Elapsed time (sec):     2342.429
  
                   Maximum memory used (kb):      652828.
                   Average memory used (kb):           0.
  
                          Minor page faults:       514812
                          Major page faults:         5503
                 Voluntary context switches:         8522
