       N       E                     dE             d eps       ncg     rms          ort
SDA:   1    -0.820058791833E+02   -0.82006E+02    0.00000E+00  7488   0.499E-04 0.000E+00
CGA:   2    -0.820058888155E+02   -0.96322E-05   -0.96376E-05  7488   0.250E-04 0.264E-04
CGA:   3    -0.820058959294E+02   -0.71139E-05   -0.96269E-06  7488   0.152E-04 0.172E-04
CGA:   4    -0.820058984736E+02   -0.25442E-05   -0.15689E-05  7488   0.982E-05 0.107E-04
CGA:   5    -0.820059026481E+02   -0.41745E-05   -0.46938E-06  7488   0.738E-05 0.788E-05
CGA:   6    -0.820059029037E+02   -0.25563E-06   -0.36291E-06  7488   0.599E-05 0.636E-05
CGA:   7    -0.820059030198E+02   -0.11600E-06   -0.25857E-06  7488   0.499E-05 0.517E-05
CGA:   8    -0.820059034292E+02   -0.40948E-06   -0.19737E-06  7488   0.421E-05 0.431E-05
CGA:   9    -0.820059041792E+02   -0.74994E-06   -0.14335E-06  7488   0.361E-05 0.370E-05
CGA:  10    -0.820059049180E+02   -0.73884E-06   -0.99471E-07  7488   0.319E-05 0.327E-05
CGA:  11    -0.820059054167E+02   -0.49865E-06   -0.74851E-07  7488   0.287E-05 0.296E-05
CGA:  12    -0.820059056532E+02   -0.23658E-06   -0.60588E-07  7488   0.263E-05 0.270E-05
CGA:  13    -0.820059057893E+02   -0.13604E-06   -0.56273E-07  7488   0.240E-05 0.247E-05
CGA:  14    -0.820059058535E+02   -0.64236E-07   -0.52473E-07  7488   0.220E-05 0.226E-05
CGA:  15    -0.820059059592E+02   -0.10564E-06   -0.46685E-07  7488   0.201E-05 0.206E-05
CGA:  16    -0.820059060328E+02   -0.73625E-07   -0.40662E-07  7488   0.185E-05 0.189E-05
CGA:  17    -0.820059061055E+02   -0.72752E-07   -0.37658E-07  7488   0.171E-05 0.174E-05
CGA:  18    -0.820059061859E+02   -0.80341E-07   -0.32000E-07  7488   0.158E-05 0.160E-05
CGA:  19    -0.820059062489E+02   -0.63003E-07   -0.29293E-07  7488   0.146E-05 0.148E-05
CGA:  20    -0.820059063127E+02   -0.63865E-07   -0.25680E-07  7488   0.136E-05 0.137E-05
CGA:  21    -0.820059063647E+02   -0.51961E-07   -0.23211E-07  7488   0.127E-05 0.128E-05
CGA:  22    -0.820059064276E+02   -0.62908E-07   -0.20627E-07  7488   0.119E-05 0.119E-05
CGA:  23    -0.820059064706E+02   -0.42994E-07   -0.18005E-07  7488   0.112E-05 0.112E-05
CGA:  24    -0.820059065187E+02   -0.48090E-07   -0.16129E-07  7488   0.105E-05 0.105E-05
CGA:  25    -0.820059065620E+02   -0.43296E-07   -0.13788E-07  7488   0.998E-06 0.996E-06
CGA:  26    -0.820059066081E+02   -0.46075E-07   -0.11897E-07  7488   0.951E-06 0.947E-06
CGA:  27    -0.820059066364E+02   -0.28314E-07   -0.10137E-07  7488   0.910E-06 0.905E-06
CGA:  28    -0.820059066679E+02   -0.31530E-07   -0.90058E-08  7488   0.874E-06 0.868E-06
CGA:  29    -0.820059066803E+02   -0.12416E-07   -0.78459E-08  7488   0.843E-06 0.836E-06
CGA:  30    -0.820059067001E+02   -0.19751E-07   -0.72067E-08  7488   0.815E-06 0.806E-06
CGA:  31    -0.820059067163E+02   -0.16214E-07   -0.63832E-08  7488   0.789E-06 0.780E-06
CGA:  32    -0.820059067324E+02   -0.16080E-07   -0.58218E-08  7488   0.766E-06 0.756E-06
CGA:  33    -0.820059067378E+02   -0.54315E-08   -0.53145E-08  7488   0.745E-06 0.734E-06
   1 F= -.82005907E+02 E0= -.82005907E+02  d E =0.000000E+00  mag=    -0.0000     0.0000     0.0000
