 vasp.5.4.4.18Apr17-6-g9f103f2a35 (build Oct 30 2023 17:49:44) complex          
  
 executed on             LinuxIFC date 2024.12.09  09:20:03
 running on  256 total cores
 distrk:  each k-point on  256 cores,    1 groups
 distr:  one band on NCORES_PER_BAND=  32 cores,    8 groups


--------------------------------------------------------------------------------------------------------


 INCAR:
 POTCAR:    PAW_PBE S 06Sep2000                   
 POTCAR:     PAW_PBE Cu_pv 06Sep2000              
 POTCAR:     PAW_PBE Fe_pv 02Aug2007              
 POTCAR:    PAW_PBE S 06Sep2000                   
   SHA256 =  0fc7481fb0695f01bdc6462160264c5c84044ae9ec85a907d398b887a2bc3132 S/
   COPYR  = (c) Copyright 06Sep2000 Georg Kresse                                
   COPYR  = This file is part of the software VASP. Any use, copying, and all ot
   COPYR  = If you do not have a valid VASP license, you may not use, copy or di
   VRHFIN =S : s2p4                                                             
   LEXCH  = PE                                                                  
   EATOM  =   276.8230 eV,   20.3459 Ry                                         
                                                                                
   TITEL  = PAW_PBE S 06Sep2000                                                 
   LULTRA =        F    use ultrasoft PP ?                                      
   IUNSCR =        1    unscreen: 0-lin 1-nonlin 2-no                           
   RPACOR =    1.500    partial core radius                                     
   POMASS =   32.066; ZVAL   =    6.000    mass and valenz                      
   RCORE  =    1.900    outmost cutoff radius                                   
   RWIGS  =    2.200; RWIGS  =    1.164    wigner-seitz radius (au A)           
   ENMAX  =  258.689; ENMIN  =  194.016 eV                                      
   ICORE  =        2    local potential                                         
   LCOR   =        T    correct aug charges                                     
   LPAW   =        T    paw PP                                                  
   EAUG   =  335.092                                                            
   DEXC   =    0.000                                                            
   RMAX   =    1.942    core radius for proj-oper                               
   RAUG   =    1.300    factor for augmentation sphere                          
   RDEP   =    1.954    radius for radial grids                                 
   RDEPT  =    1.744    core radius for aug-charge                              
                                                                                
   Atomic configuration                                                         
    6 entries                                                                   
     n  l   j            E        occ.                                          
     1  0  0.50     -2405.8406   2.0000                                         
     2  0  0.50      -211.7007   2.0000                                         
     2  1  1.50      -156.4958   6.0000                                         
     3  0  0.50       -17.2562   2.0000                                         
     3  1  0.50        -7.0085   4.0000                                         
     3  2  1.50        -6.8029   0.0000                                         
   Description                                                                  
     l       E           TYP  RCUT    TYP  RCUT                                 
     0    -17.2561641     23  1.900                                             
     0    -15.8743224     23  1.900                                             
     1     -7.0085400     23  1.900                                             
     1     -2.7779785     23  1.900                                             
     2     -6.8029130     23  1.900                                             
  local pseudopotential read in
  partial core-charges read in
  partial kinetic energy density read in
  atomic valenz-charges read in
  non local Contribution for L=           0  read in
    real space projection operators read in
  non local Contribution for L=           0  read in
    real space projection operators read in
  non local Contribution for L=           1  read in
    real space projection operators read in
  non local Contribution for L=           1  read in
    real space projection operators read in
    PAW grid and wavefunctions read in
 
   number of l-projection  operators is LMAX  =           4
   number of lm-projection operators is LMMAX =           8
 
 POTCAR:     PAW_PBE Cu_pv 06Sep2000              
   SHA256 =  cb7b504e2ea725fe1f25c85a9ac77d4012ce94cd394135b722c4e25ec297f1cb Cu
   COPYR  = (c) Copyright 06Sep2000 Georg Kresse                                
   COPYR  = This file is part of the software VASP. Any use, copying, and all ot
   COPYR  = If you do not have a valid VASP license, you may not use, copy or di
   VRHFIN =Cu: d10 p1                                                           
   LEXCH  = PE                                                                  
   EATOM  =  4120.1201 eV,  302.8203 Ry                                         
                                                                                
   TITEL  = PAW_PBE Cu_pv 06Sep2000                                             
   LULTRA =        F    use ultrasoft PP ?                                      
   IUNSCR =        1    unscreen: 0-lin 1-nonlin 2-no                           
   RPACOR =    1.500    partial core radius                                     
   POMASS =   63.546; ZVAL   =   17.000    mass and valenz                      
   RCORE  =    2.000    outmost cutoff radius                                   
   RWIGS  =    2.000; RWIGS  =    1.058    wigner-seitz radius (au A)           
   ENMAX  =  368.648; ENMIN  =  276.486 eV                                      
   RCLOC  =    1.304    cutoff for local pot                                    
   LCOR   =        T    correct aug charges                                     
   LPAW   =        T    paw PP                                                  
   EAUG   =  758.233                                                            
   DEXC   =    0.000                                                            
   RMAX   =    2.046    core radius for proj-oper                               
   RAUG   =    1.300    factor for augmentation sphere                          
   RDEP   =    2.025    radius for radial grids                                 
   RDEPT  =    1.558    core radius for aug-charge                              
                                                                                
   Atomic configuration                                                         
    8 entries                                                                   
     n  l   j            E        occ.                                          
     1  0  0.50     -8850.2467   2.0000                                         
     2  0  0.50     -1062.3498   2.0000                                         
     2  1  1.50      -916.8226   6.0000                                         
     3  0  0.50      -114.6929   2.0000                                         
     3  1  1.50       -72.1325   6.0000                                         
     3  2  2.50        -5.0394  10.0000                                         
     4  0  0.50        -4.6097   1.0000                                         
     4  3  2.50        -1.3606   0.0000                                         
   Description                                                                  
     l       E           TYP  RCUT    TYP  RCUT                                 
     1    -72.1324777     23  1.700                                             
     1     -1.3605826     23  1.700                                             
     2     -5.0393776     23  2.000                                             
     2     -6.3999602     23  2.000                                             
     0     -4.6097062     23  1.800                                             
     0     14.1620818     23  1.800                                             
  local pseudopotential read in
  partial core-charges read in
  partial kinetic energy density read in
  atomic valenz-charges read in
  non local Contribution for L=           1  read in
    real space projection operators read in
  non local Contribution for L=           1  read in
    real space projection operators read in
  non local Contribution for L=           2  read in
    real space projection operators read in
  non local Contribution for L=           2  read in
    real space projection operators read in
  non local Contribution for L=           0  read in
    real space projection operators read in
  non local Contribution for L=           0  read in
    real space projection operators read in
    PAW grid and wavefunctions read in
 
   number of l-projection  operators is LMAX  =           6
   number of lm-projection operators is LMMAX =          18
 
 POTCAR:     PAW_PBE Fe_pv 02Aug2007              
   SHA256 =  5d22e414b1f82158bf2c7ecb8b97b28fd0923e48cadc1c3bf74d524558f5dd32 Fe
   COPYR  = (c) Copyright 02Aug2007 Georg Kresse                                
   COPYR  = This file is part of the software VASP. Any use, copying, and all ot
   COPYR  = If you do not have a valid VASP license, you may not use, copy or di
   VRHFIN =Fe:  3pd7s1                                                          
   LEXCH  = PE                                                                  
   EATOM  =  2457.4239 eV,  180.6156 Ry                                         
                                                                                
   TITEL  = PAW_PBE Fe_pv 02Aug2007                                             
   LULTRA =        F    use ultrasoft PP ?                                      
   IUNSCR =        1    unscreen: 0-lin 1-nonlin 2-no                           
   RPACOR =    1.750    partial core radius                                     
   POMASS =   55.847; ZVAL   =   14.000    mass and valenz                      
   RCORE  =    2.200    outmost cutoff radius                                   
   RWIGS  =    2.200; RWIGS  =    1.164    wigner-seitz radius (au A)           
   ENMAX  =  293.238; ENMIN  =  219.928 eV                                      
   ICORE  =        3    local potential                                         
   LCOR   =        T    correct aug charges                                     
   LPAW   =        T    paw PP                                                  
   EAUG   =  578.342                                                            
   DEXC   =    0.000                                                            
   RMAX   =    2.249    core radius for proj-oper                               
   RAUG   =    1.300    factor for augmentation sphere                          
   RDEP   =    2.296    radius for radial grids                                 
   RDEPT  =    1.766    core radius for aug-charge                              
                                                                                
   Atomic configuration                                                         
    8 entries                                                                   
     n  l   j            E        occ.                                          
     1  0  0.50     -6993.8440   2.0000                                         
     2  0  0.50      -814.6047   2.0000                                         
     2  1  1.50      -693.3689   6.0000                                         
     3  0  0.50       -89.4732   2.0000                                         
     3  1  1.50       -55.6373   6.0000                                         
     3  2  2.50        -3.8151   7.0000                                         
     4  0  0.50        -4.2551   1.0000                                         
     4  3  2.50        -1.3606   0.0000                                         
   Description                                                                  
     l       E           TYP  RCUT    TYP  RCUT                                 
     1    -55.6372668     23  2.000                                             
     1     -5.4423304     23  2.000                                             
     2     -3.8151096     23  2.200                                             
     2     -5.1756922     23  2.200                                             
     0     -4.2550951     23  2.200                                             
     0     27.2116520     23  2.200                                             
     3     -1.3605826     23  2.200                                             
  local pseudopotential read in
  partial core-charges read in
  partial kinetic energy density read in
  atomic valenz-charges read in
  non local Contribution for L=           1  read in
    real space projection operators read in
  non local Contribution for L=           1  read in
    real space projection operators read in
  non local Contribution for L=           2  read in
    real space projection operators read in
  non local Contribution for L=           2  read in
    real space projection operators read in
  non local Contribution for L=           0  read in
    real space projection operators read in
  non local Contribution for L=           0  read in
    real space projection operators read in
    PAW grid and wavefunctions read in
 
   number of l-projection  operators is LMAX  =           6
   number of lm-projection operators is LMMAX =          18
 

 ----------------------------------------------------------------------------- 
|                                                                             |
|  ADVICE TO THIS USER RUNNING 'VASP/VAMP'   (HEAR YOUR MASTER'S VOICE ...):  |
|                                                                             |
|      You enforced a specific xc-type in the INCAR file,                     |
|      a different type was found on the POTCAR file                          |
|          I HOPE YOU KNOW, WHAT YOU ARE  DOING                               |
|                                                                             |
 ----------------------------------------------------------------------------- 

  PAW_PBE S 06Sep2000                   :
 energy of atom  1       EATOM= -276.8230
 kinetic energy error for atom=    0.0007 (will be added to EATOM!!)
   PAW_PBE Cu_pv 06Sep2000              :
 energy of atom  2       EATOM=-4120.1201
 kinetic energy error for atom=    0.0094 (will be added to EATOM!!)
   PAW_PBE Fe_pv 02Aug2007              :
 energy of atom  3       EATOM=-2457.4239
 kinetic energy error for atom=    0.0025 (will be added to EATOM!!)
 
 
 POSCAR: sm_isp_SD0310437-standardized_unitcell  
  positions in direct lattice
  velocities in cartesian coordinates
 exchange correlation table for  LEXCH =       14
   RHO(1)=    0.500       N(1)  =     2000
   RHO(2)=  100.500       N(2)  =     4000
 


--------------------------------------------------------------------------------------------------------


 ion  position               nearest neighbor table
   1  0.252  0.250  0.125-  10 2.25  11 2.25  13 2.27  16 2.27
   2  0.748  0.750  0.125-  10 2.25  11 2.25  13 2.27  16 2.27
   3  0.250  0.747  0.875-  11 2.25  12 2.25  13 2.27  14 2.27
   4  0.750  0.253  0.875-  11 2.25  12 2.25  13 2.27  14 2.27
   5  0.248  0.250  0.625-   9 2.25  12 2.25  15 2.27  14 2.27
   6  0.752  0.750  0.625-   9 2.25  12 2.25  15 2.27  14 2.27
   7  0.750  0.247  0.375-  10 2.25   9 2.25  16 2.27  15 2.27
   8  0.250  0.753  0.375-  10 2.25   9 2.25  16 2.27  15 2.27
   9  0.000  0.000  0.500-   5 2.25   6 2.25   7 2.25   8 2.25
  10  0.500  0.000  0.250-   1 2.25   2 2.25   7 2.25   8 2.25
  11  0.500  0.500  0.000-   1 2.25   2 2.25   4 2.25   3 2.25
  12  0.000  0.500  0.750-   5 2.25   6 2.25   4 2.25   3 2.25
  13  0.000  0.000  1.000-   2 2.27   1 2.27   3 2.27   4 2.27
  14  0.500  0.000  0.750-   6 2.27   5 2.27   3 2.27   4 2.27
  15  0.500  0.500  0.500-   6 2.27   5 2.27   8 2.27   7 2.27
  16  0.000  0.500  0.250-   2 2.27   1 2.27   8 2.27   7 2.27
 
  LATTYP: Found a simple orthorhombic cell.
 ALAT       =     5.1536099424
 B/A-ratio  =     1.0485247057
 C/A-ratio  =     1.9792277963
  
  Lattice vectors:
  
 A1 = (   5.1536099424,   0.0000000000,   0.0000000000)
 A2 = (   0.0000000000,   5.4036873481,   0.0000000000)
 A3 = (   0.0000000000,   0.0000000000,  10.2001680494)


Analysis of symmetry for initial positions (statically):
=====================================================================
 Subroutine PRICEL returns following result:
 
  LATTYP: Found a body centered orthorhombic cell.
 ALAT       =     5.1536099424
 B/A-ratio  =     1.0485247057
 C/A-ratio  =     1.9792277963
  
  Lattice vectors:
  
 A1 = (   2.5768049712,  -2.7018436741,   5.1000840247)
 A2 = (  -2.5768049712,   2.7018436741,   5.1000840247)
 A3 = (  -2.5768049712,  -2.7018436741,  -5.1000840247)
 
   2 primitive cells build up your supercell.
 

 Routine SETGRP: Setting up the symmetry group for a 
 simple orthorhombic supercell.


 Subroutine GETGRP returns: Found  4 space group operations
 (whereof  2 operations were pure point group operations)
 out of a pool of  8 trial point group operations.


The static configuration has the point symmetry C_2 .
 The point group associated with its full space group is D_2 .


Analysis of symmetry for dynamics (positions and initial velocities):
=====================================================================
 Subroutine PRICEL returns following result:
 
  LATTYP: Found a body centered orthorhombic cell.
 ALAT       =     5.1536099424
 B/A-ratio  =     1.0485247057
 C/A-ratio  =     1.9792277963
  
  Lattice vectors:
  
 A1 = (   2.5768049712,  -2.7018436741,   5.1000840247)
 A2 = (  -2.5768049712,   2.7018436741,   5.1000840247)
 A3 = (  -2.5768049712,  -2.7018436741,  -5.1000840247)
 
   2 primitive cells build up your supercell.
 

 Routine SETGRP: Setting up the symmetry group for a 
 simple orthorhombic supercell.


 Subroutine GETGRP returns: Found  4 space group operations
 (whereof  2 operations were pure point group operations)
 out of a pool of  8 trial point group operations.


The dynamic configuration has the point symmetry C_2 .
 The point group associated with its full space group is D_2 .


Analysis of structural, dynamic, and magnetic symmetry:
=====================================================================
 Subroutine PRICEL returns following result:
 
  LATTYP: Found a body centered orthorhombic cell.
 ALAT       =     5.1536099424
 B/A-ratio  =     1.0485247057
 C/A-ratio  =     1.9792277963
  
  Lattice vectors:
  
 A1 = (   2.5768049712,  -2.7018436741,   5.1000840247)
 A2 = (  -2.5768049712,   2.7018436741,   5.1000840247)
 A3 = (  -2.5768049712,  -2.7018436741,  -5.1000840247)
 
   2 primitive cells build up your supercell.
 

 Routine SETGRP: Setting up the symmetry group for a 
 simple orthorhombic supercell.


 Subroutine GETGRP returns: Found  4 space group operations
 (whereof  2 operations were pure point group operations)
 out of a pool of  8 trial point group operations.


The (compounded) configuration has the point symmetry C_2 .
 The point group associated with its full space group is D_2 .


 Subroutine INISYM returns: Found  4 space group operations
 (whereof  2 operations are pure point group operations),
 and found     2 'primitive' translations

 
 
 KPOINTS: Automatic mesh                          

Automatic generation of k-mesh.
Space group operators:
 irot       det(A)        alpha          n_x          n_y          n_z        tau_x        tau_y        tau_z
    1     1.000000     0.000000     1.000000     0.000000     0.000000     0.000000     0.000000     0.000000
    2     1.000000   180.000000     0.000000     0.000000     1.000000     0.000000     0.000000     0.000000
    3     1.000000   180.000000     0.000000     1.000000     0.000000     0.000000    -0.500000     0.250000
    4     1.000000   180.000000     1.000000     0.000000     0.000000     0.000000    -0.500000     0.250000
 
 Subroutine IBZKPT returns following result:
 ===========================================
 
 Found     36 irreducible k-points:
 
 Following reciprocal coordinates:
            Coordinates               Weight
  0.000000  0.000000  0.000000      1.000000
  0.166667  0.000000  0.000000      2.000000
  0.333333  0.000000  0.000000      2.000000
  0.500000  0.000000  0.000000      1.000000
  0.000000  0.166667  0.000000      2.000000
  0.166667  0.166667  0.000000      4.000000
  0.333333  0.166667  0.000000      4.000000
  0.500000  0.166667  0.000000      2.000000
  0.000000  0.333333  0.000000      2.000000
  0.166667  0.333333  0.000000      4.000000
  0.333333  0.333333  0.000000      4.000000
  0.500000  0.333333  0.000000      2.000000
  0.000000  0.500000  0.000000      1.000000
  0.166667  0.500000  0.000000      2.000000
  0.333333  0.500000  0.000000      2.000000
  0.500000  0.500000  0.000000      1.000000
  0.000000  0.000000  0.333333      2.000000
  0.166667  0.000000  0.333333      4.000000
  0.333333  0.000000  0.333333      4.000000
  0.500000  0.000000  0.333333      2.000000
  0.000000  0.166667  0.333333      4.000000
  0.166667  0.166667  0.333333      4.000000
  0.333333  0.166667  0.333333      4.000000
  0.500000  0.166667  0.333333      4.000000
 -0.333333  0.166667  0.333333      4.000000
 -0.166667  0.166667  0.333333      4.000000
  0.000000  0.333333  0.333333      4.000000
  0.166667  0.333333  0.333333      4.000000
  0.333333  0.333333  0.333333      4.000000
  0.500000  0.333333  0.333333      4.000000
 -0.333333  0.333333  0.333333      4.000000
 -0.166667  0.333333  0.333333      4.000000
  0.000000  0.500000  0.333333      2.000000
  0.166667  0.500000  0.333333      4.000000
  0.333333  0.500000  0.333333      4.000000
  0.500000  0.500000  0.333333      2.000000
 
 Following cartesian coordinates:
            Coordinates               Weight
  0.000000  0.000000  0.000000      1.000000
  0.032340  0.000000  0.000000      2.000000
  0.064680  0.000000  0.000000      2.000000
  0.097019  0.000000  0.000000      1.000000
  0.000000  0.030843  0.000000      2.000000
  0.032340  0.030843  0.000000      4.000000
  0.064680  0.030843  0.000000      4.000000
  0.097019  0.030843  0.000000      2.000000
  0.000000  0.061686  0.000000      2.000000
  0.032340  0.061686  0.000000      4.000000
  0.064680  0.061686  0.000000      4.000000
  0.097019  0.061686  0.000000      2.000000
  0.000000  0.092529  0.000000      1.000000
  0.032340  0.092529  0.000000      2.000000
  0.064680  0.092529  0.000000      2.000000
  0.097019  0.092529  0.000000      1.000000
  0.000000  0.000000  0.032679      2.000000
  0.032340  0.000000  0.032679      4.000000
  0.064680  0.000000  0.032679      4.000000
  0.097019  0.000000  0.032679      2.000000
  0.000000  0.030843  0.032679      4.000000
  0.032340  0.030843  0.032679      4.000000
  0.064680  0.030843  0.032679      4.000000
  0.097019  0.030843  0.032679      4.000000
 -0.064680  0.030843  0.032679      4.000000
 -0.032340  0.030843  0.032679      4.000000
  0.000000  0.061686  0.032679      4.000000
  0.032340  0.061686  0.032679      4.000000
  0.064680  0.061686  0.032679      4.000000
  0.097019  0.061686  0.032679      4.000000
 -0.064680  0.061686  0.032679      4.000000
 -0.032340  0.061686  0.032679      4.000000
  0.000000  0.092529  0.032679      2.000000
  0.032340  0.092529  0.032679      4.000000
  0.064680  0.092529  0.032679      4.000000
  0.097019  0.092529  0.032679      2.000000
 
 TETIRR: Found    544 inequivalent tetrahedra from      648


--------------------------------------------------------------------------------------------------------




 Dimension of arrays:
   k-points           NKPTS =     36   k-points in BZ     NKDIM =     36   number of bands    NBANDS=    208
   number of dos      NEDOS =    301   number of ions     NIONS =     16
   non local maximal  LDIM  =      6   non local SUM 2l+1 LMDIM =     18
   total plane-waves  NPLWV = 207360
   max r-space proj   IRMAX =      1   max aug-charges    IRDMAX=  23195
   dimension x,y,z NGX =    48 NGY =   48 NGZ =   90
   dimension x,y,z NGXF=    96 NGYF=   96 NGZF=  180
   support grid    NGXF=    96 NGYF=   96 NGZF=  180
   ions per type =               8   4   4
   NGX,Y,Z   is equivalent  to a cutoff of  15.48, 14.77, 14.67 a.u.
   NGXF,Y,Z  is equivalent  to a cutoff of  30.97, 29.53, 29.34 a.u.

 SYSTEM =  CuFeS2                                  
 POSCAR =  sm_isp_SD0310437-standardized_unitcell  

 Startparameter for this run:
   NWRITE =      2    write-flag & timer
   PREC   = accura    normal or accurate (medium, high low for compatibility)
   ISTART =      1    job   : 0-new  1-cont  2-samecut
   ICHARG =      1    charge: 1-file 2-atom 10-const
   ISPIN  =      1    spin polarized calculation?
   LNONCOLLINEAR =      T non collinear calculations
   LSORBIT =      F    spin-orbit coupling
   INIWAV =      1    electr: 0-lowe 1-rand  2-diag
   LASPH  =      T    aspherical Exc in radial PAW
   METAGGA=      F    non-selfconsistent MetaGGA calc.

 Electronic Relaxation 1
   ENCUT  =  700.0 eV  51.45 Ry    7.17 a.u.  11.12 11.66 22.00*2*pi/ulx,y,z
   ENINI  =  700.0     initial cutoff
   ENAUG  =  758.2 eV  augmentation charge cutoff
   NELM   =    200;   NELMIN=  2; NELMDL=  0     # of ELM steps 
   EDIFF  = 0.1E-07   stopping-criterion for ELM
   LREAL  =      F    real-space projection
   NLSPLINE    = F    spline interpolate recip. space projectors
   LCOMPAT=      F    compatible to vasp.4.4
   GGA_COMPAT  = T    GGA compatible to vasp.4.4-vasp.4.6
   LMAXPAW     = -100 max onsite density
   LMAXMIX     =    4 max onsite mixed and CHGCAR
   VOSKOWN=      0    Vosko Wilk Nusair interpolation
   ROPT   =    0.00000   0.00000   0.00000
 Ionic relaxation
   EDIFFG = -.1E-04   stopping-criterion for IOM
   NSW    =      0    number of steps for IOM
   NBLOCK =      1;   KBLOCK =      1    inner block; outer block 
   IBRION =     -1    ionic relax: 0-MD 1-quasi-New 2-CG
   NFREE  =      0    steps in history (QN), initial steepest desc. (CG)
   ISIF   =      2    stress and relaxation
   IWAVPR =     10    prediction:  0-non 1-charg 2-wave 3-comb
   ISYM   =      1    0-nonsym 1-usesym 2-fastsym
   LCORR  =      T    Harris-Foulkes like correction to forces

   POTIM  = 0.1000    time-step for ionic-motion
   TEIN   =    0.0    initial temperature
   TEBEG  =    0.0;   TEEND  =   0.0 temperature during run
   SMASS  =  -3.00    Nose mass-parameter (am)
   estimated Nose-frequenzy (Omega)   =  0.10E-29 period in steps =****** mass=  -0.607E-27a.u.
   SCALEE = 1.0000    scale energy and forces
   NPACO  =    256;   APACO  = 16.0  distance and # of slots for P.C.
   PSTRESS=    0.0 pullay stress

  Mass of Ions in am
   POMASS =  32.07 63.55 55.85
  Ionic Valenz
   ZVAL   =   6.00 17.00 14.00
  Atomic Wigner-Seitz radii
   RWIGS  =  -1.00 -1.00 -1.00
  virtual crystal weights 
   VCA    =   1.00  1.00  1.00
   NELECT =     172.0000    total number of electrons
   NUPDOWN=      -1.0000    fix difference up-down

 DOS related values:
   EMIN   =  10.00;   EMAX   =-10.00  energy-range for DOS
   EFERMI =   0.00
   ISMEAR =    -5;   SIGMA  =   0.03  broadening in eV -4-tet -1-fermi 0-gaus

 Electronic relaxation 2 (details)
   IALGO  =     58    algorithm
   LDIAG  =      T    sub-space diagonalisation (order eigenvalues)
   LSUBROT=      F    optimize rotation matrix (better conditioning)
   TURBO    =      0    0=normal 1=particle mesh
   IRESTART =      0    0=no restart 2=restart with 2 vectors
   NREBOOT  =      0    no. of reboots
   NMIN     =      0    reboot dimension
   EREF     =   0.00    reference energy to select bands
   IMIX   =      4    mixing-type and parameters
     AMIX     =   0.40;   BMIX     =  1.00
     AMIX_MAG =   1.60;   BMIX_MAG =  1.00
     AMIN     =   0.10
     WC   =   100.;   INIMIX=   1;  MIXPRE=   1;  MAXMIX= -45

 Intra band minimization:
   WEIMIN = 0.0000     energy-eigenvalue tresh-hold
   EBREAK =  0.12E-10  absolut break condition
   DEPER  =   0.30     relativ break condition  

   TIME   =   0.40     timestep for ELM

  volume/ion in A,a.u.               =      17.75       119.81
  Fermi-wavevector in a.u.,A,eV,Ry     =   1.384994  2.617260 26.098817  1.918209
  Thomas-Fermi vector in A             =   2.509446
 
 Write flags
   LWAVE        =      T    write WAVECAR
   LDOWNSAMPLE  =      F    k-point downsampling of WAVECAR
   LCHARG       =      T    write CHGCAR
   LVTOT        =      F    write LOCPOT, total local potential
   LVHAR        =      F    write LOCPOT, Hartree potential only
   LELF         =      F    write electronic localiz. function (ELF)
   LORBIT       =     11    0 simple, 1 ext, 2 COOP (PROOUT), +10 PAW based schemes


 Dipole corrections
   LMONO  =      F    monopole corrections only (constant potential shift)
   LDIPOL =      F    correct potential (dipole corrections)
   IDIPOL =      0    1-x, 2-y, 3-z, 4-all directions 
   EPSILON=  1.0000000 bulk dielectric constant

 LDA+U is selected, type is set to LDAUTYPE =  2
   angular momentum for each species LDAUL =     2    2    2
   U (eV)           for each species LDAUU =   0.0  0.1  4.7
   J (eV)           for each species LDAUJ =   0.0  0.0  0.0
 Exchange correlation treatment:
   GGA     =    PS    GGA type
   LEXCH   =    14    internal setting for exchange type
   VOSKOWN=      0    Vosko Wilk Nusair interpolation
   LHFCALC =     F    Hartree Fock is set to
   LHFONE  =     F    Hartree Fock one center treatment
   AEXX    =    0.0000 exact exchange contribution

 Linear response parameters
   LEPSILON=     F    determine dielectric tensor
   LRPA    =     F    only Hartree local field effects (RPA)
   LNABLA  =     F    use nabla operator in PAW spheres
   LVEL    =     F    velocity operator in full k-point grid
   LINTERFAST=   F  fast interpolation
   KINTER  =     0    interpolate to denser k-point grid
   CSHIFT  =0.1000    complex shift for real part using Kramers Kronig
   OMEGAMAX=  -1.0    maximum frequency
   DEG_THRESHOLD= 0.2000000E-02 threshold for treating states as degnerate
   RTIME   =   -0.100 relaxation time in fs
  (WPLASMAI=    0.000 imaginary part of plasma frequency in eV, 0.658/RTIME)
   DFIELD  = 0.0000000 0.0000000 0.0000000 field for delta impulse in time
 
 Orbital magnetization related:
   ORBITALMAG=     F  switch on orbital magnetization
   LCHIMAG   =     F  perturbation theory with respect to B field
   DQ        =  0.001000  dq finite difference perturbation B field
   LLRAUG    =     F  two centre corrections for induced B field



--------------------------------------------------------------------------------------------------------


 Static calculation
 charge density and potential will be updated during run
 non collinear spin polarized calculation
 Conjugate gradient for all bands (Freysoldt, et al. PRB 79, 241103 (2009))
 preconditioned conjugated gradient                                        
 perform sub-space diagonalisation
    before iterative eigenvector-optimisation
 modified Broyden-mixing scheme, WC =      100.0
 initial mixing is a Kerker type mixing with AMIX =  0.4000 and BMIX =      1.0000
 Hartree-type preconditioning will be used
 using additional bands          122
 reciprocal scheme for non local part
 use partial core corrections
 no Harris-corrections to forces 
 use gradient corrections 
 use of overlap-Matrix (Vanderbilt PP)
 Fermi weights with tetrahedron method with Bloechl corrections


--------------------------------------------------------------------------------------------------------


  energy-cutoff  :      700.00
  volume of cell :      284.06
      direct lattice vectors                 reciprocal lattice vectors
     5.153609942  0.000000000  0.000000000     0.194038744  0.000000000  0.000000000
     0.000000000  5.403687348  0.000000000     0.000000000  0.185058819  0.000000000
     0.000000000  0.000000000 10.200168049     0.000000000  0.000000000  0.098037600

  length of vectors
     5.153609942  5.403687348 10.200168049     0.194038744  0.185058819  0.098037600


 
 old parameters found on file WAVECAR:
  energy-cutoff  :      700.00
  volume of cell :      283.99
      direct lattice vectors                 reciprocal lattice vectors
     5.153609942  0.000000000  0.000000000     0.194038744  0.000000000  0.000000000
     0.000000000  5.402460895  0.000000000     0.000000000  0.185100831  0.000000000
     0.000000000  0.000000000 10.200168049     0.000000000  0.000000000  0.098037600

  length of vectors

 
 k-points in units of 2pi/SCALE and weight: Automatic mesh                          
   0.00000000  0.00000000  0.00000000       0.009
   0.03233979  0.00000000  0.00000000       0.019
   0.06467958  0.00000000  0.00000000       0.019
   0.09701937  0.00000000  0.00000000       0.009
   0.00000000  0.03084314  0.00000000       0.019
   0.03233979  0.03084314  0.00000000       0.037
   0.06467958  0.03084314  0.00000000       0.037
   0.09701937  0.03084314  0.00000000       0.019
   0.00000000  0.06168627  0.00000000       0.019
   0.03233979  0.06168627  0.00000000       0.037
   0.06467958  0.06168627  0.00000000       0.037
   0.09701937  0.06168627  0.00000000       0.019
   0.00000000  0.09252941  0.00000000       0.009
   0.03233979  0.09252941  0.00000000       0.019
   0.06467958  0.09252941  0.00000000       0.019
   0.09701937  0.09252941  0.00000000       0.009
   0.00000000  0.00000000  0.03267920       0.019
   0.03233979  0.00000000  0.03267920       0.037
   0.06467958  0.00000000  0.03267920       0.037
   0.09701937  0.00000000  0.03267920       0.019
   0.00000000  0.03084314  0.03267920       0.037
   0.03233979  0.03084314  0.03267920       0.037
   0.06467958  0.03084314  0.03267920       0.037
   0.09701937  0.03084314  0.03267920       0.037
  -0.06467958  0.03084314  0.03267920       0.037
  -0.03233979  0.03084314  0.03267920       0.037
   0.00000000  0.06168627  0.03267920       0.037
   0.03233979  0.06168627  0.03267920       0.037
   0.06467958  0.06168627  0.03267920       0.037
   0.09701937  0.06168627  0.03267920       0.037
  -0.06467958  0.06168627  0.03267920       0.037
  -0.03233979  0.06168627  0.03267920       0.037
   0.00000000  0.09252941  0.03267920       0.019
   0.03233979  0.09252941  0.03267920       0.037
   0.06467958  0.09252941  0.03267920       0.037
   0.09701937  0.09252941  0.03267920       0.019
 
 k-points in reciprocal lattice and weights: Automatic mesh                          
   0.00000000  0.00000000  0.00000000       0.009
   0.16666667  0.00000000  0.00000000       0.019
   0.33333333  0.00000000  0.00000000       0.019
   0.50000000  0.00000000  0.00000000       0.009
   0.00000000  0.16666667  0.00000000       0.019
   0.16666667  0.16666667  0.00000000       0.037
   0.33333333  0.16666667  0.00000000       0.037
   0.50000000  0.16666667  0.00000000       0.019
   0.00000000  0.33333333  0.00000000       0.019
   0.16666667  0.33333333  0.00000000       0.037
   0.33333333  0.33333333  0.00000000       0.037
   0.50000000  0.33333333  0.00000000       0.019
   0.00000000  0.50000000  0.00000000       0.009
   0.16666667  0.50000000  0.00000000       0.019
   0.33333333  0.50000000  0.00000000       0.019
   0.50000000  0.50000000  0.00000000       0.009
   0.00000000  0.00000000  0.33333333       0.019
   0.16666667  0.00000000  0.33333333       0.037
   0.33333333  0.00000000  0.33333333       0.037
   0.50000000  0.00000000  0.33333333       0.019
   0.00000000  0.16666667  0.33333333       0.037
   0.16666667  0.16666667  0.33333333       0.037
   0.33333333  0.16666667  0.33333333       0.037
   0.50000000  0.16666667  0.33333333       0.037
  -0.33333333  0.16666667  0.33333333       0.037
  -0.16666667  0.16666667  0.33333333       0.037
   0.00000000  0.33333333  0.33333333       0.037
   0.16666667  0.33333333  0.33333333       0.037
   0.33333333  0.33333333  0.33333333       0.037
   0.50000000  0.33333333  0.33333333       0.037
  -0.33333333  0.33333333  0.33333333       0.037
  -0.16666667  0.33333333  0.33333333       0.037
   0.00000000  0.50000000  0.33333333       0.019
   0.16666667  0.50000000  0.33333333       0.037
   0.33333333  0.50000000  0.33333333       0.037
   0.50000000  0.50000000  0.33333333       0.019
 
 position of ions in fractional coordinates (direct lattice) 
   0.25223829  0.25000000  0.12500000
   0.74776174  0.75000000  0.12500000
   0.25000000  0.74735898  0.87500000
   0.75000000  0.25264105  0.87500000
   0.24776171  0.25000000  0.62500000
   0.75223826  0.75000000  0.62500000
   0.75000000  0.24735895  0.37500000
   0.25000000  0.75264102  0.37500000
   0.00000000  0.00000000  0.50040928
   0.50000000  0.00000000  0.24959072
   0.50000000  0.50000000  0.00040928
   0.00000000  0.50000000  0.74959072
   0.00000000  0.00000000  0.99998694
   0.50000000  0.00000000  0.75001306
   0.50000000  0.50000000  0.49998694
   0.00000000  0.50000000  0.25001306
 
 position of ions in cartesian coordinates  (Angst):
   1.29993774  1.35092184  1.27502101
   3.85367236  4.05276551  1.27502101
   1.28840249  4.03849427  8.92514704
   3.86520746  1.36519324  8.92514704
   1.27686723  1.35092184  6.37510503
   3.87674256  4.05276551  6.37510503
   3.86520746  1.33665044  3.82506302
   1.28840249  4.06703675  3.82506302
   0.00000000  0.00000000  5.10425871
   2.57680497  0.00000000  2.54586733
   2.57680497  2.70184367  0.00417469
   0.00000000  2.70184367  7.64595135
   0.00000000  0.00000000 10.20003488
   2.57680497  0.00000000  7.65025920
   2.57680497  2.70184367  5.09995086
   0.00000000  2.70184367  2.55017518
 
 Euler angles ALPHA=     0.0000000  BETA=     0.0000000

 transformation matrix from SAXIS to cartesian coordinates
 ---------------------------------------------------------
     1.0000000 m_x     0.0000000 m_y     0.0000000 m_z
     0.0000000 m_x     1.0000000 m_y     0.0000000 m_z
     0.0000000 m_x     0.0000000 m_y     1.0000000 m_z

 transformation matrix from cartesian coordinates to SAXIS
 ---------------------------------------------------------
     1.0000000 m_x     0.0000000 m_y     0.0000000 m_z
     0.0000000 m_x     1.0000000 m_y     0.0000000 m_z
     0.0000000 m_x     0.0000000 m_y     1.0000000 m_z




--------------------------------------------------------------------------------------------------------


 k-point  1 :   0.0000 0.0000 0.0000  plane waves:   23834
 k-point  2 :   0.1667 0.0000 0.0000  plane waves:   23836
 k-point  3 :   0.3333 0.0000 0.0000  plane waves:   23908
 k-point  4 :   0.5000 0.0000 0.0000  plane waves:   23964
 k-point  5 :   0.0000 0.1667 0.0000  plane waves:   23890
 k-point  6 :   0.1667 0.1667 0.0000  plane waves:   23862
 k-point  7 :   0.3333 0.1667 0.0000  plane waves:   23898
 k-point  8 :   0.5000 0.1667 0.0000  plane waves:   23928
 k-point  9 :   0.0000 0.3333 0.0000  plane waves:   23878
 k-point 10 :   0.1667 0.3333 0.0000  plane waves:   23870
 k-point 11 :   0.3333 0.3333 0.0000  plane waves:   23862
 k-point 12 :   0.5000 0.3333 0.0000  plane waves:   23868
 k-point 13 :   0.0000 0.5000 0.0000  plane waves:   23832
 k-point 14 :   0.1667 0.5000 0.0000  plane waves:   23876
 k-point 15 :   0.3333 0.5000 0.0000  plane waves:   23864
 k-point 16 :   0.5000 0.5000 0.0000  plane waves:   23880
 k-point 17 :   0.0000 0.0000 0.3333  plane waves:   23872
 k-point 18 :   0.1667 0.0000 0.3333  plane waves:   23904
 k-point 19 :   0.3333 0.0000 0.3333  plane waves:   23946
 k-point 20 :   0.5000 0.0000 0.3333  plane waves:   23920
 k-point 21 :   0.0000 0.1667 0.3333  plane waves:   23828
 k-point 22 :   0.1667 0.1667 0.3333  plane waves:   23906
 k-point 23 :   0.3333 0.1667 0.3333  plane waves:   23946
 k-point 24 :   0.5000 0.1667 0.3333  plane waves:   23932
 k-point 25 :  -0.3333 0.1667 0.3333  plane waves:   23946
 k-point 26 :  -0.1667 0.1667 0.3333  plane waves:   23906
 k-point 27 :   0.0000 0.3333 0.3333  plane waves:   23858
 k-point 28 :   0.1667 0.3333 0.3333  plane waves:   23860
 k-point 29 :   0.3333 0.3333 0.3333  plane waves:   23884
 k-point 30 :   0.5000 0.3333 0.3333  plane waves:   23892
 k-point 31 :  -0.3333 0.3333 0.3333  plane waves:   23884
 k-point 32 :  -0.1667 0.3333 0.3333  plane waves:   23860
 k-point 33 :   0.0000 0.5000 0.3333  plane waves:   23920
 k-point 34 :   0.1667 0.5000 0.3333  plane waves:   23852
 k-point 35 :   0.3333 0.5000 0.3333  plane waves:   23896
 k-point 36 :   0.5000 0.5000 0.3333  plane waves:   23912

 maximum and minimum number of plane-waves per node :       784      706

 maximum number of plane-waves:     23964
 maximum index in each direction: 
   IXMAX=   11   IYMAX=   11   IZMAX=   22
   IXMIN=  -11   IYMIN=  -12   IZMIN=  -22


 parallel 3D FFT for wavefunctions:
    minimum data exchange during FFTs selected (reduces bandwidth)
 parallel 3D FFT for charge:
    minimum data exchange during FFTs selected (reduces bandwidth)


 total amount of memory used by VASP MPI-rank0    78837. kBytes
=======================================================================

   base      :      30000. kBytes
   nonl-proj :       5943. kBytes
   fftplans  :       1363. kBytes
   grid      :       5529. kBytes
   one-center:         62. kBytes
   wavefun   :      35940. kBytes
 
     INWAV:  cpu time    7.4775: real time    7.6141
 Broyden mixing: mesh for mixing (old mesh)
   NGX = 23   NGY = 23   NGZ = 45
  (NGX  = 96   NGY  = 96   NGZ  =180)
  gives a total of  23805 points

 initial charge density was supplied:
 number of electron     171.9999887 magnetization      -0.0000000      0.0000000      0.0000000
 charge density for first step will be calculated from the start-wavefunctions


--------------------------------------------------------------------------------------------------------


 BZINTS: Fermi energy:  5.009280;172.000000 electrons
         Band energy:***********;  BLOECHL correction:  0.000000
 Maximum index for augmentation-charges          885 (set IRDMAX)


--------------------------------------------------------------------------------------------------------


 initial charge from wavefunction
 First call to EWALD:  gamma=   0.270
 Maximum number of real-space cells 3x 3x 2
 Maximum number of reciprocal cells 2x 2x 4

    FEWALD:  cpu time    0.0155: real time    0.0156

 ----------------------------------------------------------------------------- 
|                                                                             |
|           W    W    AA    RRRRR   N    N  II  N    N   GGGG   !!!           |
|           W    W   A  A   R    R  NN   N  II  NN   N  G    G  !!!           |
|           W    W  A    A  R    R  N N  N  II  N N  N  G       !!!           |
|           W WW W  AAAAAA  RRRRR   N  N N  II  N  N N  G  GGG   !            |
|           WW  WW  A    A  R   R   N   NN  II  N   NN  G    G                |
|           W    W  A    A  R    R  N    N  II  N    N   GGGG   !!!           |
|                                                                             |
|      ALGO=A and IALGO=5X tend to fail with the tetrahedron method           |
|      (e.g. Bloechls method ISMEAR=-5 is not variational)                    |
|      please switch to IMSEAR=0-n, except for DOS calculations               |
|      For DOS calculations use IALGO=53 after preconverging with ISMEAR>=0   |
|          I HOPE YOU KNOW, WHAT YOU ARE  DOING                               |
|                                                                             |
 ----------------------------------------------------------------------------- 



--------------------------------------- Iteration      1(   1)  ---------------------------------------


    POTLOK:  cpu time    0.1948: real time    0.1958
    SETDIJ:  cpu time    0.6085: real time    0.6105
    TRIAL :  cpu time    4.5398: real time    4.5828
 BZINTS: Fermi energy:  5.009278;172.000000 electrons
         Band energy:***********;  BLOECHL correction:  0.000000
 BZINTS: Fermi energy:  5.009278;172.000000 electrons
         Band energy:***********;  BLOECHL correction:  0.000000
    CORREC:  cpu time    3.9005: real time    3.9196
    CHARGE:  cpu time    1.0803: real time    1.0856
    --------------------------------------------
      LOOP:  cpu time   10.3363: real time   10.4291

 eigenvalue-minimisations  :     0
 total energy-change (2. order) :-0.8200588E+02  (-0.9637555E-05)
 number of electron     171.9999887 magnetization       0.0000000      0.0000000      0.0000000
 augmentation part       70.5509786 magnetization      -0.0000000     -0.0000003     -0.0002959

 Free energy of the ion-electron system (eV)
  ---------------------------------------------------
  alpha Z        PSCENC =       596.51939081
  Ewald energy   TEWEN  =    -15686.32389350
  -Hartree energ DENC   =    -10695.68413178
  -exchange      EXHF   =         0.00000000
  -V(xc)+E(xc)   XCENC  =       822.03643990
  PAW double counting   =     28184.82100946   -29108.61907599
  entropy T*S    EENTRO =         0.00000000
  eigenvalues    EBANDS =     -2699.77189500
  atomic energy  EATOM  =     28505.01627691
  ---------------------------------------------------
  free energy    TOTEN  =       -82.00587918 eV

  energy without entropy =      -82.00587918  energy(sigma->0) =      -82.00587918


--------------------------------------------------------------------------------------------------------




--------------------------------------- Iteration      1(   2)  ---------------------------------------


    POTLOK:  cpu time    0.0936: real time    0.0941
    SETDIJ:  cpu time    0.6016: real time    0.6036
    TRIAL :  cpu time    4.4547: real time    4.4804
 BZINTS: Fermi energy:  5.009281;172.000000 electrons
         Band energy:***********;  BLOECHL correction:  0.000000
 BZINTS: Fermi energy:  5.009277;172.000000 electrons
         Band energy:***********;  BLOECHL correction:  0.000000
    CORREC:  cpu time    3.9201: real time    3.9392
    CHARGE:  cpu time    1.1012: real time    1.1067
    --------------------------------------------
      LOOP:  cpu time   10.1864: real time   10.2415

 eigenvalue-minimisations  :     0
 total energy-change (2. order) :-0.9632189E-05  (-0.9626872E-06)
 number of electron     171.9999887 magnetization       0.0000000      0.0000000      0.0000000
 augmentation part       70.5509786 magnetization       0.0000001      0.0000000     -0.0002959

 Free energy of the ion-electron system (eV)
  ---------------------------------------------------
  alpha Z        PSCENC =       596.51939081
  Ewald energy   TEWEN  =    -15686.32389350
  -Hartree energ DENC   =    -10695.68403272
  -exchange      EXHF   =         0.00000000
  -V(xc)+E(xc)   XCENC  =       822.03644791
  PAW double counting   =     28184.82109858   -29108.61917072
  entropy T*S    EENTRO =         0.00000000
  eigenvalues    EBANDS =     -2699.77200609
  atomic energy  EATOM  =     28505.01627691
  ---------------------------------------------------
  free energy    TOTEN  =       -82.00588882 eV

  energy without entropy =      -82.00588882  energy(sigma->0) =      -82.00588882


--------------------------------------------------------------------------------------------------------




--------------------------------------- Iteration      1(   3)  ---------------------------------------


    POTLOK:  cpu time    0.0885: real time    0.0890
    SETDIJ:  cpu time    0.6003: real time    0.6023
    TRIAL :  cpu time    4.4375: real time    4.4629
 BZINTS: Fermi energy:  5.009280;172.000000 electrons
         Band energy:***********;  BLOECHL correction:  0.000000
 BZINTS: Fermi energy:  5.009279;172.000000 electrons
         Band energy:***********;  BLOECHL correction:  0.000000
    CORREC:  cpu time    3.9503: real time    3.9692
    CHARGE:  cpu time    1.0737: real time    1.0792
    --------------------------------------------
      LOOP:  cpu time   10.1657: real time   10.2200

 eigenvalue-minimisations  :     0
 total energy-change (2. order) :-0.7113853E-05  (-0.1568940E-05)
 number of electron     171.9999887 magnetization       0.0000000      0.0000000      0.0000000
 augmentation part       70.5509786 magnetization      -0.0000001      0.0000003     -0.0002959

 Free energy of the ion-electron system (eV)
  ---------------------------------------------------
  alpha Z        PSCENC =       596.51939081
  Ewald energy   TEWEN  =    -15686.32389350
  -Hartree energ DENC   =    -10695.68404545
  -exchange      EXHF   =         0.00000000
  -V(xc)+E(xc)   XCENC  =       822.03643585
  PAW double counting   =     28184.82117867   -29108.61925100
  entropy T*S    EENTRO =         0.00000000
  eigenvalues    EBANDS =     -2699.77198821
  atomic energy  EATOM  =     28505.01627691
  ---------------------------------------------------
  free energy    TOTEN  =       -82.00589593 eV

  energy without entropy =      -82.00589593  energy(sigma->0) =      -82.00589593


--------------------------------------------------------------------------------------------------------




--------------------------------------- Iteration      1(   4)  ---------------------------------------


    POTLOK:  cpu time    0.0911: real time    0.0917
    SETDIJ:  cpu time    0.6021: real time    0.6041
    TRIAL :  cpu time    4.5066: real time    4.5327
 BZINTS: Fermi energy:  5.009278;172.000000 electrons
         Band energy:***********;  BLOECHL correction:  0.000000
 BZINTS: Fermi energy:  5.009279;172.000000 electrons
         Band energy:***********;  BLOECHL correction:  0.000000
    CORREC:  cpu time    3.8951: real time    3.9142
    CHARGE:  cpu time    1.0711: real time    1.0767
    --------------------------------------------
      LOOP:  cpu time   10.1797: real time   10.2351

 eigenvalue-minimisations  :     0
 total energy-change (2. order) :-0.2544213E-05  (-0.4693822E-06)
 number of electron     171.9999887 magnetization       0.0000000      0.0000000      0.0000000
 augmentation part       70.5509786 magnetization       0.0000000      0.0000001     -0.0002959

 Free energy of the ion-electron system (eV)
  ---------------------------------------------------
  alpha Z        PSCENC =       596.51939081
  Ewald energy   TEWEN  =    -15686.32389350
  -Hartree energ DENC   =    -10695.68407095
  -exchange      EXHF   =         0.00000000
  -V(xc)+E(xc)   XCENC  =       822.03643659
  PAW double counting   =     28184.82143422   -29108.61950650
  entropy T*S    EENTRO =         0.00000000
  eigenvalues    EBANDS =     -2699.77196605
  atomic energy  EATOM  =     28505.01627691
  ---------------------------------------------------
  free energy    TOTEN  =       -82.00589847 eV

  energy without entropy =      -82.00589847  energy(sigma->0) =      -82.00589847


--------------------------------------------------------------------------------------------------------




--------------------------------------- Iteration      1(   5)  ---------------------------------------


    POTLOK:  cpu time    0.0910: real time    0.0915
    SETDIJ:  cpu time    0.6019: real time    0.6038
    TRIAL :  cpu time    4.4473: real time    4.4730
 BZINTS: Fermi energy:  5.009279;172.000000 electrons
         Band energy:***********;  BLOECHL correction:  0.000000
 BZINTS: Fermi energy:  5.009278;172.000000 electrons
         Band energy:***********;  BLOECHL correction:  0.000000
    CORREC:  cpu time    3.9347: real time    3.9537
    CHARGE:  cpu time    1.0720: real time    1.0772
    --------------------------------------------
      LOOP:  cpu time   10.1621: real time   10.2180

 eigenvalue-minimisations  :     0
 total energy-change (2. order) :-0.4174537E-05  (-0.3629092E-06)
 number of electron     171.9999887 magnetization       0.0000000      0.0000000      0.0000000
 augmentation part       70.5509787 magnetization       0.0000000      0.0000002     -0.0002959

 Free energy of the ion-electron system (eV)
  ---------------------------------------------------
  alpha Z        PSCENC =       596.51939081
  Ewald energy   TEWEN  =    -15686.32389350
  -Hartree energ DENC   =    -10695.68407049
  -exchange      EXHF   =         0.00000000
  -V(xc)+E(xc)   XCENC  =       822.03642902
  PAW double counting   =     28184.82152959   -29108.61960110
  entropy T*S    EENTRO =         0.00000000
  eigenvalues    EBANDS =     -2699.77196390
  atomic energy  EATOM  =     28505.01627691
  ---------------------------------------------------
  free energy    TOTEN  =       -82.00590265 eV

  energy without entropy =      -82.00590265  energy(sigma->0) =      -82.00590265


--------------------------------------------------------------------------------------------------------




--------------------------------------- Iteration      1(   6)  ---------------------------------------


    POTLOK:  cpu time    0.0874: real time    0.0879
    SETDIJ:  cpu time    0.6018: real time    0.6037
    TRIAL :  cpu time    4.4111: real time    4.4363
 BZINTS: Fermi energy:  5.009280;172.000000 electrons
         Band energy:***********;  BLOECHL correction:  0.000000
 BZINTS: Fermi energy:  5.009278;172.000000 electrons
         Band energy:***********;  BLOECHL correction:  0.000000
    CORREC:  cpu time    3.9402: real time    3.9590
    CHARGE:  cpu time    1.0762: real time    1.0814
    --------------------------------------------
      LOOP:  cpu time   10.1314: real time   10.1888

 eigenvalue-minimisations  :     0
 total energy-change (2. order) :-0.2556335E-06  (-0.2585694E-06)
 number of electron     171.9999887 magnetization       0.0000000      0.0000000      0.0000000
 augmentation part       70.5509787 magnetization      -0.0000000      0.0000001     -0.0002959

 Free energy of the ion-electron system (eV)
  ---------------------------------------------------
  alpha Z        PSCENC =       596.51939081
  Ewald energy   TEWEN  =    -15686.32389350
  -Hartree energ DENC   =    -10695.68407358
  -exchange      EXHF   =         0.00000000
  -V(xc)+E(xc)   XCENC  =       822.03643005
  PAW double counting   =     28184.82162307   -29108.61969436
  entropy T*S    EENTRO =         0.00000000
  eigenvalues    EBANDS =     -2699.77196230
  atomic energy  EATOM  =     28505.01627691
  ---------------------------------------------------
  free energy    TOTEN  =       -82.00590290 eV

  energy without entropy =      -82.00590290  energy(sigma->0) =      -82.00590290


--------------------------------------------------------------------------------------------------------




--------------------------------------- Iteration      1(   7)  ---------------------------------------


    POTLOK:  cpu time    0.0881: real time    0.0886
    SETDIJ:  cpu time    0.6034: real time    0.6054
    TRIAL :  cpu time    4.4324: real time    4.4581
 BZINTS: Fermi energy:  5.009277;172.000000 electrons
         Band energy:***********;  BLOECHL correction:  0.000000
 BZINTS: Fermi energy:  5.009278;172.000000 electrons
         Band energy:***********;  BLOECHL correction:  0.000000
    CORREC:  cpu time    3.9011: real time    3.9201
    CHARGE:  cpu time    1.0787: real time    1.0840
    --------------------------------------------
      LOOP:  cpu time   10.1163: real time   10.1694

 eigenvalue-minimisations  :     0
 total energy-change (2. order) :-0.1160042E-06  (-0.1973690E-06)
 number of electron     171.9999887 magnetization       0.0000000      0.0000000      0.0000000
 augmentation part       70.5509787 magnetization       0.0000000      0.0000002     -0.0002959

 Free energy of the ion-electron system (eV)
  ---------------------------------------------------
  alpha Z        PSCENC =       596.51939081
  Ewald energy   TEWEN  =    -15686.32389350
  -Hartree energ DENC   =    -10695.68407652
  -exchange      EXHF   =         0.00000000
  -V(xc)+E(xc)   XCENC  =       822.03643093
  PAW double counting   =     28184.82170254   -29108.61977371
  entropy T*S    EENTRO =         0.00000000
  eigenvalues    EBANDS =     -2699.77196048
  atomic energy  EATOM  =     28505.01627691
  ---------------------------------------------------
  free energy    TOTEN  =       -82.00590302 eV

  energy without entropy =      -82.00590302  energy(sigma->0) =      -82.00590302


--------------------------------------------------------------------------------------------------------




--------------------------------------- Iteration      1(   8)  ---------------------------------------


    POTLOK:  cpu time    0.0881: real time    0.0886
    SETDIJ:  cpu time    0.6014: real time    0.6036
    TRIAL :  cpu time    4.4493: real time    4.4761
 BZINTS: Fermi energy:  5.009279;172.000000 electrons
         Band energy:***********;  BLOECHL correction:  0.000000
 BZINTS: Fermi energy:  5.009278;172.000000 electrons
         Band energy:***********;  BLOECHL correction:  0.000000
    CORREC:  cpu time    3.8961: real time    3.9153
    CHARGE:  cpu time    1.0698: real time    1.0752
    --------------------------------------------
      LOOP:  cpu time   10.1208: real time   10.1758

 eigenvalue-minimisations  :     0
 total energy-change (2. order) :-0.4094836E-06  (-0.1433519E-06)
 number of electron     171.9999887 magnetization       0.0000000      0.0000000      0.0000000
 augmentation part       70.5509787 magnetization       0.0000000      0.0000001     -0.0002959

 Free energy of the ion-electron system (eV)
  ---------------------------------------------------
  alpha Z        PSCENC =       596.51939081
  Ewald energy   TEWEN  =    -15686.32389350
  -Hartree energ DENC   =    -10695.68407937
  -exchange      EXHF   =         0.00000000
  -V(xc)+E(xc)   XCENC  =       822.03643091
  PAW double counting   =     28184.82177417   -29108.61984525
  entropy T*S    EENTRO =         0.00000000
  eigenvalues    EBANDS =     -2699.77195811
  atomic energy  EATOM  =     28505.01627691
  ---------------------------------------------------
  free energy    TOTEN  =       -82.00590343 eV

  energy without entropy =      -82.00590343  energy(sigma->0) =      -82.00590343


--------------------------------------------------------------------------------------------------------




--------------------------------------- Iteration      1(   9)  ---------------------------------------


    POTLOK:  cpu time    0.0890: real time    0.0896
    SETDIJ:  cpu time    0.6036: real time    0.6057
    TRIAL :  cpu time    4.5156: real time    4.5415
 BZINTS: Fermi energy:  5.009278;172.000000 electrons
         Band energy:***********;  BLOECHL correction:  0.000000
 BZINTS: Fermi energy:  5.009278;172.000000 electrons
         Band energy:***********;  BLOECHL correction:  0.000000
    CORREC:  cpu time    3.9075: real time    3.9265
    CHARGE:  cpu time    1.0786: real time    1.0839
    --------------------------------------------
      LOOP:  cpu time   10.2059: real time   10.2629

 eigenvalue-minimisations  :     0
 total energy-change (2. order) :-0.7499402E-06  (-0.9947072E-07)
 number of electron     171.9999887 magnetization       0.0000000      0.0000000      0.0000000
 augmentation part       70.5509787 magnetization       0.0000000      0.0000002     -0.0002959

 Free energy of the ion-electron system (eV)
  ---------------------------------------------------
  alpha Z        PSCENC =       596.51939081
  Ewald energy   TEWEN  =    -15686.32389350
  -Hartree energ DENC   =    -10695.68408222
  -exchange      EXHF   =         0.00000000
  -V(xc)+E(xc)   XCENC  =       822.03642989
  PAW double counting   =     28184.82183764   -29108.61990865
  entropy T*S    EENTRO =         0.00000000
  eigenvalues    EBANDS =     -2699.77195506
  atomic energy  EATOM  =     28505.01627691
  ---------------------------------------------------
  free energy    TOTEN  =       -82.00590418 eV

  energy without entropy =      -82.00590418  energy(sigma->0) =      -82.00590418


--------------------------------------------------------------------------------------------------------




--------------------------------------- Iteration      1(  10)  ---------------------------------------


    POTLOK:  cpu time    0.0882: real time    0.0887
    SETDIJ:  cpu time    0.6036: real time    0.6054
    TRIAL :  cpu time    4.3955: real time    4.4217
 BZINTS: Fermi energy:  5.009278;172.000000 electrons
         Band energy:***********;  BLOECHL correction:  0.000000
 BZINTS: Fermi energy:  5.009278;172.000000 electrons
         Band energy:***********;  BLOECHL correction:  0.000000
    CORREC:  cpu time    3.9181: real time    3.9366
    CHARGE:  cpu time    1.0703: real time    1.0755
    --------------------------------------------
      LOOP:  cpu time   10.0913: real time   10.1439

 eigenvalue-minimisations  :     0
 total energy-change (2. order) :-0.7388444E-06  (-0.7485129E-07)
 number of electron     171.9999887 magnetization       0.0000000      0.0000000      0.0000000
 augmentation part       70.5509788 magnetization       0.0000000      0.0000001     -0.0002959

 Free energy of the ion-electron system (eV)
  ---------------------------------------------------
  alpha Z        PSCENC =       596.51939081
  Ewald energy   TEWEN  =    -15686.32389350
  -Hartree energ DENC   =    -10695.68408415
  -exchange      EXHF   =         0.00000000
  -V(xc)+E(xc)   XCENC  =       822.03642871
  PAW double counting   =     28184.82188342   -29108.61995435
  entropy T*S    EENTRO =         0.00000000
  eigenvalues    EBANDS =     -2699.77195276
  atomic energy  EATOM  =     28505.01627691
  ---------------------------------------------------
  free energy    TOTEN  =       -82.00590492 eV

  energy without entropy =      -82.00590492  energy(sigma->0) =      -82.00590492


--------------------------------------------------------------------------------------------------------




--------------------------------------- Iteration      1(  11)  ---------------------------------------


    POTLOK:  cpu time    0.0902: real time    0.0907
    SETDIJ:  cpu time    0.6035: real time    0.6055
    TRIAL :  cpu time    4.4069: real time    4.4325
 BZINTS: Fermi energy:  5.009278;172.000000 electrons
         Band energy:***********;  BLOECHL correction:  0.000000
 BZINTS: Fermi energy:  5.009278;172.000000 electrons
         Band energy:***********;  BLOECHL correction:  0.000000
    CORREC:  cpu time    3.9062: real time    3.9250
    CHARGE:  cpu time    1.0746: real time    1.0801
    --------------------------------------------
      LOOP:  cpu time   10.0982: real time   10.1509

 eigenvalue-minimisations  :     0
 total energy-change (2. order) :-0.4986468E-06  (-0.6058834E-07)
 number of electron     171.9999887 magnetization       0.0000000      0.0000000      0.0000000
 augmentation part       70.5509788 magnetization       0.0000000      0.0000001     -0.0002959

 Free energy of the ion-electron system (eV)
  ---------------------------------------------------
  alpha Z        PSCENC =       596.51939081
  Ewald energy   TEWEN  =    -15686.32389350
  -Hartree energ DENC   =    -10695.68408573
  -exchange      EXHF   =         0.00000000
  -V(xc)+E(xc)   XCENC  =       822.03642795
  PAW double counting   =     28184.82192007   -29108.61999094
  entropy T*S    EENTRO =         0.00000000
  eigenvalues    EBANDS =     -2699.77195099
  atomic energy  EATOM  =     28505.01627691
  ---------------------------------------------------
  free energy    TOTEN  =       -82.00590542 eV

  energy without entropy =      -82.00590542  energy(sigma->0) =      -82.00590542


--------------------------------------------------------------------------------------------------------




--------------------------------------- Iteration      1(  12)  ---------------------------------------


    POTLOK:  cpu time    0.0891: real time    0.0896
    SETDIJ:  cpu time    0.6016: real time    0.6039
    TRIAL :  cpu time    4.4494: real time    4.4757
 BZINTS: Fermi energy:  5.009278;172.000000 electrons
         Band energy:***********;  BLOECHL correction:  0.000000
 BZINTS: Fermi energy:  5.009278;172.000000 electrons
         Band energy:***********;  BLOECHL correction:  0.000000
    CORREC:  cpu time    3.9006: real time    3.9195
    CHARGE:  cpu time    1.0699: real time    1.0754
    --------------------------------------------
      LOOP:  cpu time   10.1261: real time   10.1817

 eigenvalue-minimisations  :     0
 total energy-change (2. order) :-0.2365778E-06  (-0.5627305E-07)
 number of electron     171.9999887 magnetization       0.0000000      0.0000000      0.0000000
 augmentation part       70.5509788 magnetization       0.0000000      0.0000001     -0.0002959

 Free energy of the ion-electron system (eV)
  ---------------------------------------------------
  alpha Z        PSCENC =       596.51939081
  Ewald energy   TEWEN  =    -15686.32389350
  -Hartree energ DENC   =    -10695.68408690
  -exchange      EXHF   =         0.00000000
  -V(xc)+E(xc)   XCENC  =       822.03642772
  PAW double counting   =     28184.82194984   -29108.62002064
  entropy T*S    EENTRO =         0.00000000
  eigenvalues    EBANDS =     -2699.77194989
  atomic energy  EATOM  =     28505.01627691
  ---------------------------------------------------
  free energy    TOTEN  =       -82.00590565 eV

  energy without entropy =      -82.00590565  energy(sigma->0) =      -82.00590565


--------------------------------------------------------------------------------------------------------




--------------------------------------- Iteration      1(  13)  ---------------------------------------


    POTLOK:  cpu time    0.0880: real time    0.0886
    SETDIJ:  cpu time    0.6029: real time    0.6048
    TRIAL :  cpu time    4.4069: real time    4.4321
 BZINTS: Fermi energy:  5.009278;172.000000 electrons
         Band energy:***********;  BLOECHL correction:  0.000000
 BZINTS: Fermi energy:  5.009278;172.000000 electrons
         Band energy:***********;  BLOECHL correction:  0.000000
    CORREC:  cpu time    3.9199: real time    3.9382
    CHARGE:  cpu time    1.0725: real time    1.0782
    --------------------------------------------
      LOOP:  cpu time   10.1083: real time   10.1603

 eigenvalue-minimisations  :     0
 total energy-change (2. order) :-0.1360386E-06  (-0.5247323E-07)
 number of electron     171.9999887 magnetization       0.0000000      0.0000000      0.0000000
 augmentation part       70.5509788 magnetization       0.0000000      0.0000001     -0.0002959

 Free energy of the ion-electron system (eV)
  ---------------------------------------------------
  alpha Z        PSCENC =       596.51939081
  Ewald energy   TEWEN  =    -15686.32389350
  -Hartree energ DENC   =    -10695.68408822
  -exchange      EXHF   =         0.00000000
  -V(xc)+E(xc)   XCENC  =       822.03642769
  PAW double counting   =     28184.82198058   -29108.62005132
  entropy T*S    EENTRO =         0.00000000
  eigenvalues    EBANDS =     -2699.77194873
  atomic energy  EATOM  =     28505.01627691
  ---------------------------------------------------
  free energy    TOTEN  =       -82.00590579 eV

  energy without entropy =      -82.00590579  energy(sigma->0) =      -82.00590579


--------------------------------------------------------------------------------------------------------




--------------------------------------- Iteration      1(  14)  ---------------------------------------


    POTLOK:  cpu time    0.0883: real time    0.0887
    SETDIJ:  cpu time    0.6034: real time    0.6053
    TRIAL :  cpu time    4.4747: real time    4.5011
 BZINTS: Fermi energy:  5.009278;172.000000 electrons
         Band energy:***********;  BLOECHL correction:  0.000000
 BZINTS: Fermi energy:  5.009278;172.000000 electrons
         Band energy:***********;  BLOECHL correction:  0.000000
    CORREC:  cpu time    3.9028: real time    3.9216
    CHARGE:  cpu time    1.0796: real time    1.0850
    --------------------------------------------
      LOOP:  cpu time   10.1664: real time   10.2198

 eigenvalue-minimisations  :     0
 total energy-change (2. order) :-0.6423579E-07  (-0.4668469E-07)
 number of electron     171.9999887 magnetization       0.0000000      0.0000000      0.0000000
 augmentation part       70.5509788 magnetization       0.0000000      0.0000001     -0.0002959

 Free energy of the ion-electron system (eV)
  ---------------------------------------------------
  alpha Z        PSCENC =       596.51939081
  Ewald energy   TEWEN  =    -15686.32389350
  -Hartree energ DENC   =    -10695.68408949
  -exchange      EXHF   =         0.00000000
  -V(xc)+E(xc)   XCENC  =       822.03642781
  PAW double counting   =     28184.82201098   -29108.62008166
  entropy T*S    EENTRO =         0.00000000
  eigenvalues    EBANDS =     -2699.77194771
  atomic energy  EATOM  =     28505.01627691
  ---------------------------------------------------
  free energy    TOTEN  =       -82.00590585 eV

  energy without entropy =      -82.00590585  energy(sigma->0) =      -82.00590585


--------------------------------------------------------------------------------------------------------




--------------------------------------- Iteration      1(  15)  ---------------------------------------


    POTLOK:  cpu time    0.0884: real time    0.0889
    SETDIJ:  cpu time    0.6031: real time    0.6051
    TRIAL :  cpu time    4.4047: real time    4.4306
 BZINTS: Fermi energy:  5.009278;172.000000 electrons
         Band energy:***********;  BLOECHL correction:  0.000000
 BZINTS: Fermi energy:  5.009278;172.000000 electrons
         Band energy:***********;  BLOECHL correction:  0.000000
    CORREC:  cpu time    3.9151: real time    3.9342
    CHARGE:  cpu time    1.0762: real time    1.0815
    --------------------------------------------
      LOOP:  cpu time   10.1010: real time   10.1575

 eigenvalue-minimisations  :     0
 total energy-change (2. order) :-0.1056433E-06  (-0.4066167E-07)
 number of electron     171.9999887 magnetization       0.0000000      0.0000000      0.0000000
 augmentation part       70.5509788 magnetization       0.0000000      0.0000001     -0.0002959

 Free energy of the ion-electron system (eV)
  ---------------------------------------------------
  alpha Z        PSCENC =       596.51939081
  Ewald energy   TEWEN  =    -15686.32389350
  -Hartree energ DENC   =    -10695.68409057
  -exchange      EXHF   =         0.00000000
  -V(xc)+E(xc)   XCENC  =       822.03642780
  PAW double counting   =     28184.82203950   -29108.62011012
  entropy T*S    EENTRO =         0.00000000
  eigenvalues    EBANDS =     -2699.77194679
  atomic energy  EATOM  =     28505.01627691
  ---------------------------------------------------
  free energy    TOTEN  =       -82.00590596 eV

  energy without entropy =      -82.00590596  energy(sigma->0) =      -82.00590596


--------------------------------------------------------------------------------------------------------




--------------------------------------- Iteration      1(  16)  ---------------------------------------


    POTLOK:  cpu time    0.0874: real time    0.0879
    SETDIJ:  cpu time    0.6037: real time    0.6057
    TRIAL :  cpu time    4.4653: real time    4.4910
 BZINTS: Fermi energy:  5.009278;172.000000 electrons
         Band energy:***********;  BLOECHL correction:  0.000000
 BZINTS: Fermi energy:  5.009278;172.000000 electrons
         Band energy:***********;  BLOECHL correction:  0.000000
    CORREC:  cpu time    3.9164: real time    3.9353
    CHARGE:  cpu time    1.0747: real time    1.0802
    --------------------------------------------
      LOOP:  cpu time   10.1611: real time   10.2160

 eigenvalue-minimisations  :     0
 total energy-change (2. order) :-0.7362542E-07  (-0.3765819E-07)
 number of electron     171.9999887 magnetization       0.0000000      0.0000000      0.0000000
 augmentation part       70.5509788 magnetization       0.0000000      0.0000001     -0.0002959

 Free energy of the ion-electron system (eV)
  ---------------------------------------------------
  alpha Z        PSCENC =       596.51939081
  Ewald energy   TEWEN  =    -15686.32389350
  -Hartree energ DENC   =    -10695.68409141
  -exchange      EXHF   =         0.00000000
  -V(xc)+E(xc)   XCENC  =       822.03642783
  PAW double counting   =     28184.82206492   -29108.62013548
  entropy T*S    EENTRO =         0.00000000
  eigenvalues    EBANDS =     -2699.77194612
  atomic energy  EATOM  =     28505.01627691
  ---------------------------------------------------
  free energy    TOTEN  =       -82.00590603 eV

  energy without entropy =      -82.00590603  energy(sigma->0) =      -82.00590603


--------------------------------------------------------------------------------------------------------




--------------------------------------- Iteration      1(  17)  ---------------------------------------


    POTLOK:  cpu time    0.0886: real time    0.0892
    SETDIJ:  cpu time    0.6036: real time    0.6055
    TRIAL :  cpu time    4.4178: real time    4.4438
 BZINTS: Fermi energy:  5.009278;172.000000 electrons
         Band energy:***********;  BLOECHL correction:  0.000000
 BZINTS: Fermi energy:  5.009278;172.000000 electrons
         Band energy:***********;  BLOECHL correction:  0.000000
    CORREC:  cpu time    3.9083: real time    3.9271
    CHARGE:  cpu time    1.0730: real time    1.0784
    --------------------------------------------
      LOOP:  cpu time   10.1027: real time   10.1584

 eigenvalue-minimisations  :     0
 total energy-change (2. order) :-0.7275230E-07  (-0.3199990E-07)
 number of electron     171.9999887 magnetization       0.0000000      0.0000000      0.0000000
 augmentation part       70.5509788 magnetization       0.0000000      0.0000001     -0.0002959

 Free energy of the ion-electron system (eV)
  ---------------------------------------------------
  alpha Z        PSCENC =       596.51939081
  Ewald energy   TEWEN  =    -15686.32389350
  -Hartree energ DENC   =    -10695.68409244
  -exchange      EXHF   =         0.00000000
  -V(xc)+E(xc)   XCENC  =       822.03642785
  PAW double counting   =     28184.82209146   -29108.62016196
  entropy T*S    EENTRO =         0.00000000
  eigenvalues    EBANDS =     -2699.77194524
  atomic energy  EATOM  =     28505.01627691
  ---------------------------------------------------
  free energy    TOTEN  =       -82.00590611 eV

  energy without entropy =      -82.00590611  energy(sigma->0) =      -82.00590611


--------------------------------------------------------------------------------------------------------




--------------------------------------- Iteration      1(  18)  ---------------------------------------


    POTLOK:  cpu time    0.0881: real time    0.0887
    SETDIJ:  cpu time    0.6038: real time    0.6060
    TRIAL :  cpu time    4.4116: real time    4.4412
 BZINTS: Fermi energy:  5.009278;172.000000 electrons
         Band energy:***********;  BLOECHL correction:  0.000000
 BZINTS: Fermi energy:  5.009278;172.000000 electrons
         Band energy:***********;  BLOECHL correction:  0.000000
    CORREC:  cpu time    3.9307: real time    3.9508
    CHARGE:  cpu time    1.0755: real time    1.0808
    --------------------------------------------
      LOOP:  cpu time   10.1237: real time   10.1839

 eigenvalue-minimisations  :     0
 total energy-change (2. order) :-0.8034112E-07  (-0.2929288E-07)
 number of electron     171.9999887 magnetization       0.0000000      0.0000000      0.0000000
 augmentation part       70.5509788 magnetization       0.0000000      0.0000001     -0.0002959

 Free energy of the ion-electron system (eV)
  ---------------------------------------------------
  alpha Z        PSCENC =       596.51939081
  Ewald energy   TEWEN  =    -15686.32389350
  -Hartree energ DENC   =    -10695.68409329
  -exchange      EXHF   =         0.00000000
  -V(xc)+E(xc)   XCENC  =       822.03642784
  PAW double counting   =     28184.82211490   -29108.62018535
  entropy T*S    EENTRO =         0.00000000
  eigenvalues    EBANDS =     -2699.77194450
  atomic energy  EATOM  =     28505.01627691
  ---------------------------------------------------
  free energy    TOTEN  =       -82.00590619 eV

  energy without entropy =      -82.00590619  energy(sigma->0) =      -82.00590619


--------------------------------------------------------------------------------------------------------




--------------------------------------- Iteration      1(  19)  ---------------------------------------


    POTLOK:  cpu time    0.0904: real time    0.0909
    SETDIJ:  cpu time    0.6051: real time    0.6069
    TRIAL :  cpu time    4.4030: real time    4.4284
 BZINTS: Fermi energy:  5.009278;172.000000 electrons
         Band energy:***********;  BLOECHL correction:  0.000000
 BZINTS: Fermi energy:  5.009278;172.000000 electrons
         Band energy:***********;  BLOECHL correction:  0.000000
    CORREC:  cpu time    3.9050: real time    3.9235
    CHARGE:  cpu time    1.0809: real time    1.0863
    --------------------------------------------
      LOOP:  cpu time   10.0985: real time   10.1521

 eigenvalue-minimisations  :     0
 total energy-change (2. order) :-0.6300252E-07  (-0.2568013E-07)
 number of electron     171.9999887 magnetization       0.0000000      0.0000000      0.0000000
 augmentation part       70.5509788 magnetization       0.0000000      0.0000001     -0.0002959

 Free energy of the ion-electron system (eV)
  ---------------------------------------------------
  alpha Z        PSCENC =       596.51939081
  Ewald energy   TEWEN  =    -15686.32389350
  -Hartree energ DENC   =    -10695.68409416
  -exchange      EXHF   =         0.00000000
  -V(xc)+E(xc)   XCENC  =       822.03642784
  PAW double counting   =     28184.82213799   -29108.62020839
  entropy T*S    EENTRO =         0.00000000
  eigenvalues    EBANDS =     -2699.77194375
  atomic energy  EATOM  =     28505.01627691
  ---------------------------------------------------
  free energy    TOTEN  =       -82.00590625 eV

  energy without entropy =      -82.00590625  energy(sigma->0) =      -82.00590625


--------------------------------------------------------------------------------------------------------




--------------------------------------- Iteration      1(  20)  ---------------------------------------


    POTLOK:  cpu time    0.0879: real time    0.0884
    SETDIJ:  cpu time    0.6021: real time    0.6040
    TRIAL :  cpu time    4.4040: real time    4.4293
 BZINTS: Fermi energy:  5.009278;172.000000 electrons
         Band energy:***********;  BLOECHL correction:  0.000000
 BZINTS: Fermi energy:  5.009278;172.000000 electrons
         Band energy:***********;  BLOECHL correction:  0.000000
    CORREC:  cpu time    3.9017: real time    3.9201
    CHARGE:  cpu time    1.0728: real time    1.0781
    --------------------------------------------
      LOOP:  cpu time   10.0829: real time   10.1346

 eigenvalue-minimisations  :     0
 total energy-change (2. order) :-0.6386472E-07  (-0.2321050E-07)
 number of electron     171.9999887 magnetization       0.0000000      0.0000000      0.0000000
 augmentation part       70.5509788 magnetization       0.0000000      0.0000001     -0.0002959

 Free energy of the ion-electron system (eV)
  ---------------------------------------------------
[...]
  0.000   0.000   0.000   0.000  -0.000  -0.000  -0.000   0.000  -0.000   0.000  -0.000  -0.000  -0.000   0.000  -0.000   0.000
 pseudopotential strength for first ion, spin component:           3
 -0.000   0.000  -0.000   0.000   0.000  -0.000  -0.000   0.000   0.000  -0.000   0.000  -0.000  -0.000   0.000   0.000  -0.000
 -0.000   0.000  -0.000   0.000   0.000  -0.000  -0.000   0.000   0.000  -0.000   0.000  -0.000  -0.000   0.000   0.000  -0.000
  0.000  -0.000   0.000  -0.000   0.000  -0.000   0.000  -0.000  -0.000   0.000   0.000  -0.000   0.000  -0.000  -0.000   0.000
 -0.000   0.000  -0.000   0.000   0.000  -0.000  -0.000   0.000  -0.000  -0.000   0.000  -0.000  -0.000   0.000  -0.000  -0.000
  0.000  -0.000   0.000  -0.000  -0.000   0.000  -0.000  -0.000  -0.000  -0.000  -0.000   0.000  -0.000  -0.000  -0.000  -0.000
  0.000  -0.000   0.000  -0.000   0.000  -0.000   0.000  -0.000  -0.000   0.000   0.000  -0.000   0.000  -0.000  -0.000   0.000
 -0.000   0.000  -0.000   0.000   0.000  -0.000  -0.000   0.000  -0.000  -0.000   0.000  -0.000  -0.000   0.000  -0.000  -0.000
  0.000  -0.000   0.000  -0.000  -0.000   0.000  -0.000  -0.000  -0.000  -0.000  -0.000   0.000  -0.000  -0.000  -0.000  -0.000
 pseudopotential strength for first ion, spin component:           4
 39.482   0.000  45.343   0.000  -0.001   0.000  -0.001   0.000  -0.003   0.000  -0.002   0.000  -0.001   0.000  -0.004   0.000
 45.343   0.000  52.077   0.000  -0.002   0.000  -0.001   0.000  -0.003   0.000  -0.002   0.000  -0.001   0.000  -0.004   0.000
 -0.001   0.000  -0.002   0.000   8.201   0.000   0.002   0.000  -0.000   0.000  11.116   0.000   0.002   0.000  -0.000   0.000
 -0.001   0.000  -0.001   0.000   0.002   0.000   8.200   0.000  -0.001   0.000   0.002   0.000  11.115   0.000  -0.001   0.000
 -0.003   0.000  -0.003   0.000  -0.000   0.000  -0.001   0.000   8.200   0.000  -0.000   0.000  -0.001   0.000  11.115   0.000
 -0.002   0.000  -0.002   0.000  11.116   0.000   0.002   0.000  -0.000   0.000  15.086   0.000   0.003   0.000  -0.000   0.000
 -0.001   0.000  -0.001   0.000   0.002   0.000  11.115   0.000  -0.001   0.000   0.003   0.000  15.085   0.000  -0.001   0.000
 -0.004   0.000  -0.004   0.000  -0.000   0.000  -0.001   0.000  11.115   0.000  -0.000   0.000  -0.001   0.000  15.085   0.000
 total augmentation occupancy for first ion, spin component:           1
 11.082  -6.900   0.000  -0.000  -0.523   0.000  -0.000   0.134
 -6.900   4.999   0.000   0.000   0.428   0.000   0.000  -0.080
  0.000   0.000   3.744   0.083  -0.000  -1.083  -0.043   0.000
 -0.000   0.000   0.083   3.608   0.000  -0.043  -1.015   0.000
 -0.523   0.428  -0.000   0.000   3.635   0.000  -0.000  -1.028
  0.000   0.000  -1.083  -0.043   0.000   0.368   0.016   0.000
 -0.000   0.000  -0.043  -1.015  -0.000   0.016   0.341   0.000
  0.134  -0.080   0.000   0.000  -1.028   0.000   0.000   0.347
 total augmentation occupancy for first ion, spin component:           2
 -0.000   0.000  -0.000   0.000   0.000   0.000   0.000  -0.000
  0.000  -0.000   0.000   0.000  -0.000   0.000  -0.000   0.000
 -0.000   0.000  -0.000  -0.000  -0.000   0.000   0.000  -0.000
 -0.000   0.000  -0.000   0.000   0.000   0.000  -0.000  -0.000
  0.000  -0.000  -0.000   0.000  -0.000   0.000   0.000   0.000
  0.000   0.000   0.000   0.000  -0.000  -0.000  -0.000   0.000
  0.000  -0.000   0.000  -0.000   0.000  -0.000   0.000  -0.000
 -0.000   0.000  -0.000   0.000   0.000   0.000  -0.000  -0.000
 total augmentation occupancy for first ion, spin component:           3
  0.000   0.000   0.000   0.000  -0.000   0.000  -0.000   0.000
  0.000   0.000  -0.000  -0.000  -0.000  -0.000   0.000   0.000
  0.000  -0.000   0.000   0.000   0.000   0.000  -0.000  -0.000
  0.000  -0.000   0.000  -0.000   0.000  -0.000   0.000  -0.000
 -0.000   0.000   0.000   0.000  -0.000  -0.000  -0.000   0.000
  0.000  -0.000   0.000  -0.000  -0.000   0.000   0.000   0.000
 -0.000   0.000   0.000   0.000  -0.000   0.000   0.000   0.000
  0.000  -0.000  -0.000  -0.000  -0.000   0.000   0.000   0.000
 total augmentation occupancy for first ion, spin component:           4
  0.000   0.000   0.103   0.095  -0.000   0.085   0.082  -0.000
  0.000  -0.000  -0.081  -0.074   0.000  -0.092  -0.089   0.000
  0.103  -0.081   0.000  -0.000   0.007   0.000   0.000  -0.007
  0.095  -0.074   0.000   0.000   0.008   0.000   0.000  -0.003
 -0.000   0.000   0.007   0.008  -0.000  -0.007  -0.003   0.000
  0.085  -0.092   0.000   0.000  -0.007  -0.000  -0.000   0.016
  0.082  -0.089   0.000   0.000  -0.003  -0.000   0.000   0.014
 -0.000   0.000  -0.007  -0.003   0.000   0.016   0.014  -0.000


------------------------ aborting loop because EDIFF is reached ----------------------------------------


 


 total charge     
 
# of ion       s       p       d       tot
------------------------------------------
    1        1.314   2.416   0.000   3.729
    2        1.314   2.415   0.000   3.729
    3        1.314   2.413   0.000   3.727
    4        1.314   2.413   0.000   3.727
    5        1.314   2.415   0.000   3.729
    6        1.314   2.416   0.000   3.729
    7        1.314   2.413   0.000   3.727
    8        1.314   2.413   0.000   3.727
    9        0.263   6.207   8.916  15.385
   10        0.263   6.207   8.916  15.386
   11        0.263   6.207   8.916  15.385
   12        0.263   6.207   8.916  15.386
   13        0.352   6.357   5.831  12.540
   14        0.352   6.357   5.831  12.540
   15        0.352   6.357   5.831  12.540
   16        0.352   6.357   5.831  12.540
--------------------------------------------------
tot         12.970  69.572  58.985 141.527
 


 magnetization (x)
 
# of ion       s       p       d       tot
------------------------------------------
    1        0.000  -0.000   0.000  -0.000
    2       -0.000   0.000   0.000   0.000
    3       -0.000   0.000   0.000   0.000
    4       -0.000   0.000   0.000   0.000
    5       -0.000   0.000   0.000   0.000
    6        0.000  -0.000   0.000  -0.000
    7       -0.000   0.000   0.000   0.000
    8       -0.000   0.000   0.000   0.000
    9       -0.000   0.000  -0.000  -0.000
   10       -0.000   0.000  -0.000  -0.000
   11       -0.000   0.000  -0.000  -0.000
   12       -0.000   0.000  -0.000  -0.000
   13        0.000   0.000   0.000   0.000
   14       -0.000  -0.000   0.000   0.000
   15        0.000   0.000   0.000   0.000
   16       -0.000  -0.000   0.000   0.000
--------------------------------------------------
tot         -0.000   0.000   0.000   0.000
 


 magnetization (y)
 
# of ion       s       p       d       tot
------------------------------------------
    1        0.000  -0.000   0.000  -0.000
    2        0.000  -0.000   0.000  -0.000
    3        0.000   0.000   0.000   0.000
    4       -0.000  -0.000   0.000  -0.000
    5        0.000  -0.000   0.000  -0.000
    6        0.000  -0.000   0.000  -0.000
    7        0.000   0.000   0.000   0.000
    8       -0.000  -0.000   0.000  -0.000
    9       -0.000  -0.000   0.000   0.000
   10        0.000  -0.000   0.000   0.000
   11       -0.000  -0.000   0.000   0.000
   12        0.000  -0.000   0.000   0.000
   13        0.000  -0.000  -0.000  -0.000
   14        0.000  -0.000  -0.000  -0.000
   15        0.000  -0.000  -0.000  -0.000
   16        0.000  -0.000  -0.000  -0.000
--------------------------------------------------
tot          0.000  -0.000  -0.000  -0.000
 


 magnetization (z)
 
# of ion       s       p       d       tot
------------------------------------------
    1        0.000  -0.003   0.000  -0.003
    2        0.000  -0.003   0.000  -0.003
    3       -0.000   0.003   0.000   0.003
    4       -0.000   0.003   0.000   0.003
    5        0.000  -0.003   0.000  -0.003
    6        0.000  -0.003   0.000  -0.003
    7       -0.000   0.003   0.000   0.003
    8       -0.000   0.003   0.000   0.003
    9        0.000   0.001  -0.004  -0.002
   10       -0.000  -0.001   0.003   0.002
   11        0.000   0.001  -0.004  -0.002
   12       -0.000  -0.001   0.003   0.002
   13        0.019   0.055   3.654   3.728
   14       -0.019  -0.055  -3.653  -3.728
   15        0.019   0.055   3.654   3.728
   16       -0.019  -0.055  -3.653  -3.728
--------------------------------------------------
tot         -0.000   0.000  -0.000  -0.000
 
    FORLOC:  cpu time    0.0022: real time    0.0022
    FORNL :  cpu time    1.1279: real time    1.1333
    STRESS:  cpu time    1.0838: real time    1.0889
    FORCOR:  cpu time    0.0791: real time    0.0796
    OFIELD:  cpu time    0.0004: real time    0.0004

  FORCE on cell =-STRESS in cart. coord.  units (eV):
  Direction    XX          YY          ZZ          XY          YZ          ZX
  --------------------------------------------------------------------------------------
  Alpha Z   596.51939   596.51939   596.51939
  Ewald   -5291.42332 -5073.30780 -5321.62945     0.00000     0.00000     0.00000
  Hartree  3532.92055  3635.22288  3527.54067    -0.00000     0.00000    -0.00000
  E(xc)   -1051.10639 -1050.97928 -1051.10195    -0.00000    -0.00000    -0.00000
  Local   -1132.78643 -1452.24481 -1093.91023    -0.00000    -0.00000    -0.00000
  n-local   122.03903   124.92091   122.04177    -0.22277    -0.07601    -0.01543
  augment  1180.88259  1182.55782  1178.54983     0.00000    -0.00000    -0.00000
  Kinetic  2045.89874  2037.31121  2044.67277    -0.85079     0.04910    -0.00111
  Fock        0.00000     0.00000     0.00000     0.00000     0.00000     0.00000
  -------------------------------------------------------------------------------------
  Total       2.94417     0.00032     2.68281     0.00000     0.00000     0.00000
  in kB      16.60599     0.00181    15.13180     0.00000     0.00000     0.00000
  external pressure =       10.58 kB  Pullay stress =        0.00 kB


 VOLUME and BASIS-vectors are now :
 -----------------------------------------------------------------------------
  energy-cutoff  :      700.00
  volume of cell :      284.06
      direct lattice vectors                 reciprocal lattice vectors
     5.153609942  0.000000000  0.000000000     0.194038744  0.000000000  0.000000000
     0.000000000  5.403687348  0.000000000     0.000000000  0.185058819  0.000000000
     0.000000000  0.000000000 10.200168049     0.000000000  0.000000000  0.098037600

  length of vectors
     5.153609942  5.403687348 10.200168049     0.194038744  0.185058819  0.098037600


 FORCES acting on ions:
    Electron-Ion                     Ewald-Force                    Non-Local-Force
 -----------------------------------------------------------------------------------------------
   0.417E+02 -.198E-12 -.239E-12   -.425E+02 0.725E-12 0.145E-11   0.834E+00 0.000E+00 0.130E-17
   -.417E+02 -.182E-13 0.834E-12   0.425E+02 -.129E-11 0.148E-11   -.834E+00 0.000E+00 -.867E-18
   -.131E-12 -.445E+02 0.209E-12   -.147E-10 0.454E+02 0.144E-10   0.152E-17 -.916E+00 0.596E-18
   -.124E-12 0.445E+02 0.129E-11   0.143E-10 -.454E+02 0.142E-10   0.867E-18 0.916E+00 0.867E-18
   -.417E+02 -.802E-13 -.263E-12   0.425E+02 0.640E-12 -.144E-11   -.834E+00 0.000E+00 -.867E-18
   0.417E+02 0.266E-12 -.258E-12   -.425E+02 -.130E-11 -.148E-11   0.834E+00 -.867E-18 0.434E-18
   0.157E-13 -.445E+02 0.830E-12   0.142E-10 0.454E+02 -.145E-10   -.217E-18 -.916E+00 0.146E-17
   -.219E-12 0.445E+02 0.334E-13   -.147E-10 -.454E+02 -.143E-10   0.867E-18 0.916E+00 -.867E-18
   -.557E-12 0.368E-12 -.203E+01   0.118E-04 -.247E-04 0.204E+01   0.217E-18 -.434E-18 -.178E-01
   0.100E-11 -.463E-12 0.203E+01   -.118E-04 -.247E-04 -.204E+01   -.217E-18 0.651E-18 0.178E-01
   0.960E-12 0.337E-11 -.203E+01   -.118E-04 0.247E-04 0.204E+01   0.217E-18 0.434E-18 -.178E-01
   -.430E-12 0.335E-11 0.203E+01   0.118E-04 0.247E-04 -.204E+01   -.217E-18 0.651E-18 0.178E-01
   -.310E-12 -.158E-12 0.529E+01   -.902E-05 0.207E-04 -.529E+01   0.434E-18 0.434E-18 -.140E-02
   0.159E-12 0.305E-12 -.529E+01   0.902E-05 0.207E-04 0.529E+01   0.434E-18 -.651E-18 0.140E-02
   0.325E-12 -.558E-12 0.529E+01   0.902E-05 -.207E-04 -.529E+01   0.434E-18 -.434E-18 -.140E-02
   -.472E-12 0.121E-11 -.529E+01   -.902E-05 -.207E-04 0.529E+01   0.434E-18 -.651E-18 0.140E-02
 -----------------------------------------------------------------------------------------------
   0.260E-11 0.177E-10 -.453E-09   -.127E-13 -.938E-13 0.488E-13   -.220E-15 0.000E+00 -.104E-16
 
 
 POSITION                                       TOTAL-FORCE (eV/Angst)
 -----------------------------------------------------------------------------------
      1.29994      1.35092      1.27502        -0.000001      0.000000      0.000000
      3.85367      4.05277      1.27502         0.000001      0.000000     -0.000000
      1.28840      4.03849      8.92515         0.000000     -0.000001      0.000000
      3.86521      1.36519      8.92515         0.000000      0.000001      0.000000
      1.27687      1.35092      6.37511         0.000001      0.000000      0.000000
      3.87674      4.05277      6.37511        -0.000001      0.000000      0.000000
      3.86521      1.33665      3.82506         0.000000     -0.000001      0.000000
      1.28840      4.06704      3.82506         0.000000      0.000001      0.000000
      0.00000      0.00000      5.10426         0.000000      0.000000     -0.000010
      2.57680      0.00000      2.54587         0.000000      0.000000      0.000010
      2.57680      2.70184      0.00417         0.000000      0.000000     -0.000010
      0.00000      2.70184      7.64595         0.000000      0.000000      0.000010
      0.00000      0.00000     10.20003         0.000000      0.000000     -0.000004
      2.57680      0.00000      7.65026         0.000000      0.000000      0.000004
      2.57680      2.70184      5.09995         0.000000      0.000000     -0.000004
      0.00000      2.70184      2.55018         0.000000      0.000000      0.000004
 -----------------------------------------------------------------------------------
    total drift:                                0.000000      0.000000     -0.000000


--------------------------------------------------------------------------------------------------------



  FREE ENERGIE OF THE ION-ELECTRON SYSTEM (eV)
  ---------------------------------------------------
  free  energy   TOTEN  =       -82.00590674 eV

  energy  without entropy=      -82.00590674  energy(sigma->0) =      -82.00590674
 


--------------------------------------------------------------------------------------------------------


    POTLOK:  cpu time    0.6847: real time    0.6872


--------------------------------------------------------------------------------------------------------


 writing wavefunctions
     LOOP+:  cpu time  369.5928: real time  373.6744
    4ORBIT:  cpu time    0.0000: real time    0.0000
 


 total charge     
 
# of ion       s       p       d       tot
------------------------------------------
    1        1.314   2.416   0.000   3.729
    2        1.314   2.415   0.000   3.729
    3        1.314   2.413   0.000   3.727
    4        1.314   2.413   0.000   3.727
    5        1.314   2.415   0.000   3.729
    6        1.314   2.416   0.000   3.729
    7        1.314   2.413   0.000   3.727
    8        1.314   2.413   0.000   3.727
    9        0.263   6.207   8.916  15.385
   10        0.263   6.207   8.916  15.386
   11        0.263   6.207   8.916  15.385
   12        0.263   6.207   8.916  15.386
   13        0.352   6.357   5.831  12.540
   14        0.352   6.357   5.831  12.540
   15        0.352   6.357   5.831  12.540
   16        0.352   6.357   5.831  12.540
--------------------------------------------------
tot         12.970  69.572  58.985 141.527
 


 magnetization (x)
 
# of ion       s       p       d       tot
------------------------------------------
    1        0.000  -0.000   0.000  -0.000
    2       -0.000   0.000   0.000   0.000
    3       -0.000   0.000   0.000   0.000
    4       -0.000   0.000   0.000   0.000
    5       -0.000   0.000   0.000   0.000
    6        0.000  -0.000   0.000  -0.000
    7       -0.000   0.000   0.000   0.000
    8       -0.000   0.000   0.000   0.000
    9       -0.000   0.000  -0.000  -0.000
   10       -0.000   0.000  -0.000  -0.000
   11       -0.000   0.000  -0.000  -0.000
   12       -0.000   0.000  -0.000  -0.000
   13        0.000   0.000   0.000   0.000
   14       -0.000  -0.000   0.000   0.000
   15        0.000   0.000   0.000   0.000
   16       -0.000  -0.000   0.000   0.000
--------------------------------------------------
tot         -0.000   0.000   0.000   0.000
 


 magnetization (y)
 
# of ion       s       p       d       tot
------------------------------------------
    1        0.000  -0.000   0.000  -0.000
    2        0.000  -0.000   0.000  -0.000
    3        0.000   0.000   0.000   0.000
    4       -0.000  -0.000   0.000  -0.000
    5        0.000  -0.000   0.000  -0.000
    6        0.000  -0.000   0.000  -0.000
    7        0.000   0.000   0.000   0.000
    8       -0.000  -0.000   0.000  -0.000
    9       -0.000  -0.000   0.000   0.000
   10        0.000  -0.000   0.000   0.000
   11       -0.000  -0.000   0.000   0.000
   12        0.000  -0.000   0.000   0.000
   13        0.000  -0.000  -0.000  -0.000
   14        0.000  -0.000  -0.000  -0.000
   15        0.000  -0.000  -0.000  -0.000
   16        0.000  -0.000  -0.000  -0.000
--------------------------------------------------
tot          0.000  -0.000  -0.000  -0.000
 


 magnetization (z)
 
# of ion       s       p       d       tot
------------------------------------------
    1        0.000  -0.003   0.000  -0.003
    2        0.000  -0.003   0.000  -0.003
    3       -0.000   0.003   0.000   0.003
    4       -0.000   0.003   0.000   0.003
    5        0.000  -0.003   0.000  -0.003
    6        0.000  -0.003   0.000  -0.003
    7       -0.000   0.003   0.000   0.003
    8       -0.000   0.003   0.000   0.003
    9        0.000   0.001  -0.004  -0.002
   10       -0.000  -0.001   0.003   0.002
   11        0.000   0.001  -0.004  -0.002
   12       -0.000  -0.001   0.003   0.002
   13        0.019   0.055   3.654   3.728
   14       -0.019  -0.055  -3.653  -3.728
   15        0.019   0.055   3.654   3.728
   16       -0.019  -0.055  -3.653  -3.728
--------------------------------------------------
tot         -0.000   0.000  -0.000  -0.000
 
 BZINTS: Fermi energy:  5.009280;172.000000 electrons
         Band energy:***********;  BLOECHL correction:  0.000000
 BZINTS: Fermi energy:  5.009280;172.000000 electrons
         Band energy:***********;  BLOECHL correction:  0.000000
 BZINTS: Fermi energy:  5.009280;172.000000 electrons
         Band energy:***********;  BLOECHL correction:  0.000000
 BZINTS: Fermi energy:  5.009280;172.000000 electrons
         Band energy:***********;  BLOECHL correction:  0.000000

 total amount of memory used by VASP MPI-rank0    78837. kBytes
=======================================================================

   base      :      30000. kBytes
   nonl-proj :       5943. kBytes
   fftplans  :       1363. kBytes
   grid      :       5529. kBytes
   one-center:         62. kBytes
   wavefun   :      35940. kBytes
 
  
  
 General timing and accounting informations for this job:
 ========================================================
  
                  Total CPU time used (sec):      399.921
                            User time (sec):      388.893
                          System time (sec):       11.028
                         Elapsed time (sec):      405.701
  
                   Maximum memory used (kb):      524584.
                   Average memory used (kb):           0.
  
                          Minor page faults:       361378
                          Major page faults:         2951
                 Voluntary context switches:         6616
