       N       E                     dE             d eps       ncg     rms          rms(c)
DAV:   1     0.605517509638E+04    0.60552E+04   -0.51591E+05 16384   0.196E+03
DAV:   2    -0.813644902076E+02   -0.61365E+04   -0.60267E+04 18176   0.445E+02
DAV:   3    -0.329028917194E+03   -0.24766E+03   -0.24678E+03 22784   0.974E+01
DAV:   4    -0.332448559312E+03   -0.34196E+01   -0.34195E+01 19200   0.115E+01
DAV:   5    -0.332552045377E+03   -0.10349E+00   -0.10349E+00 22272   0.197E+00    0.159E+01
DAV:   6    -0.329195888216E+03    0.33562E+01   -0.24315E+00 22272   0.490E+00    0.841E+00
DAV:   7    -0.328174227448E+03    0.10217E+01   -0.25892E+00 26112   0.387E+00    0.534E+00
DAV:   8    -0.328130757043E+03    0.43470E-01   -0.10335E+00 22784   0.275E+00    0.315E+00
DAV:   9    -0.328117985326E+03    0.12772E-01   -0.40476E-01 22784   0.190E+00    0.147E+00
DAV:  10    -0.328119129984E+03   -0.11447E-02   -0.13493E-01 19456   0.999E-01    0.998E-01
DAV:  11    -0.328120132047E+03   -0.10021E-02   -0.45104E-02 25600   0.547E-01    0.401E-01
DAV:  12    -0.328122005786E+03   -0.18737E-02   -0.70474E-03 20736   0.145E-01    0.146E-01
DAV:  13    -0.328122280010E+03   -0.27422E-03   -0.10893E-03 20992   0.818E-02    0.909E-02
DAV:  14    -0.328122458954E+03   -0.17894E-03   -0.58987E-04 23552   0.442E-02    0.473E-02
DAV:  15    -0.328122561394E+03   -0.10244E-03   -0.28925E-04 22784   0.185E-02    0.257E-02
DAV:  16    -0.328122598973E+03   -0.37578E-04   -0.10865E-04 18432   0.106E-02    0.177E-02
DAV:  17    -0.328122619744E+03   -0.20771E-04   -0.12029E-04 21504   0.107E-02    0.810E-03
DAV:  18    -0.328122622985E+03   -0.32409E-05   -0.21805E-05 17920   0.526E-03    0.463E-03
DAV:  19    -0.328122623271E+03   -0.28595E-06   -0.10344E-06 21248   0.159E-03    0.260E-03
DAV:  20    -0.328122623410E+03   -0.13917E-06   -0.12383E-06 23040   0.142E-03    0.109E-03
DAV:  21    -0.328122623444E+03   -0.34081E-07   -0.96469E-08 24832   0.502E-04    0.571E-04
DAV:  22    -0.328122623454E+03   -0.96625E-08   -0.74329E-09 16128   0.164E-04
   1 F= -.32812262E+03 E0= -.32812262E+03  d E =0.000000E+00  mag=     0.0000
