 vasp.5.4.4.18Apr17-6-g9f103f2a35 (build Oct 30 2023 17:30:16) complex          
  
 executed on             LinuxIFC date 2024.06.30  18:48:50
 running on  256 total cores
 distrk:  each k-point on  256 cores,    1 groups
 distr:  one band on NCORES_PER_BAND=   1 cores,  256 groups


--------------------------------------------------------------------------------------------------------


 INCAR:
 POTCAR:    PAW_PBE S 06Sep2000                   
 POTCAR:     PAW_PBE Cu_pv 06Sep2000              
 POTCAR:     PAW_PBE Fe_pv 02Aug2007              

 ----------------------------------------------------------------------------- 
|                                                                             |
|           W    W    AA    RRRRR   N    N  II  N    N   GGGG   !!!           |
|           W    W   A  A   R    R  NN   N  II  NN   N  G    G  !!!           |
|           W    W  A    A  R    R  N N  N  II  N N  N  G       !!!           |
|           W WW W  AAAAAA  RRRRR   N  N N  II  N  N N  G  GGG   !            |
|           WW  WW  A    A  R   R   N   NN  II  N   NN  G    G                |
|           W    W  A    A  R    R  N    N  II  N    N   GGGG   !!!           |
|                                                                             |
|      For optimal performance we recommend to set                            |
|        NCORE= 4 - approx SQRT( number of cores)                             |
|      NCORE specifies how many cores store one orbital (NPAR=cpu/NCORE).     |
|      This setting can  greatly improve the performance of VASP for DFT.     |
|      The default,   NCORE=1            might be grossly inefficient         |
|      on modern multi-core architectures or massively parallel machines.     |
|      Do your own testing !!!!                                               |
|      Unfortunately you need to use the default for GW and RPA calculations. |
|      (for HF NCORE is supported but not extensively tested yet)             |
|                                                                             |
 ----------------------------------------------------------------------------- 

 POTCAR:    PAW_PBE S 06Sep2000                   
   SHA256 =  0fc7481fb0695f01bdc6462160264c5c84044ae9ec85a907d398b887a2bc3132 S/
   COPYR  = (c) Copyright 06Sep2000 Georg Kresse                                
   COPYR  = This file is part of the software VASP. Any use, copying, and all ot
   COPYR  = If you do not have a valid VASP license, you may not use, copy or di
   VRHFIN =S : s2p4                                                             
   LEXCH  = PE                                                                  
   EATOM  =   276.8230 eV,   20.3459 Ry                                         
                                                                                
   TITEL  = PAW_PBE S 06Sep2000                                                 
   LULTRA =        F    use ultrasoft PP ?                                      
   IUNSCR =        1    unscreen: 0-lin 1-nonlin 2-no                           
   RPACOR =    1.500    partial core radius                                     
   POMASS =   32.066; ZVAL   =    6.000    mass and valenz                      
   RCORE  =    1.900    outmost cutoff radius                                   
   RWIGS  =    2.200; RWIGS  =    1.164    wigner-seitz radius (au A)           
   ENMAX  =  258.689; ENMIN  =  194.016 eV                                      
   ICORE  =        2    local potential                                         
   LCOR   =        T    correct aug charges                                     
   LPAW   =        T    paw PP                                                  
   EAUG   =  335.092                                                            
   DEXC   =    0.000                                                            
   RMAX   =    1.942    core radius for proj-oper                               
   RAUG   =    1.300    factor for augmentation sphere                          
   RDEP   =    1.954    radius for radial grids                                 
   RDEPT  =    1.744    core radius for aug-charge                              
                                                                                
   Atomic configuration                                                         
    6 entries                                                                   
     n  l   j            E        occ.                                          
     1  0  0.50     -2405.8406   2.0000                                         
     2  0  0.50      -211.7007   2.0000                                         
     2  1  1.50      -156.4958   6.0000                                         
     3  0  0.50       -17.2562   2.0000                                         
     3  1  0.50        -7.0085   4.0000                                         
     3  2  1.50        -6.8029   0.0000                                         
   Description                                                                  
     l       E           TYP  RCUT    TYP  RCUT                                 
     0    -17.2561641     23  1.900                                             
     0    -15.8743224     23  1.900                                             
     1     -7.0085400     23  1.900                                             
     1     -2.7779785     23  1.900                                             
     2     -6.8029130     23  1.900                                             
  local pseudopotential read in
  partial core-charges read in
  partial kinetic energy density read in
  atomic valenz-charges read in
  non local Contribution for L=           0  read in
    real space projection operators read in
  non local Contribution for L=           0  read in
    real space projection operators read in
  non local Contribution for L=           1  read in
    real space projection operators read in
  non local Contribution for L=           1  read in
    real space projection operators read in
    PAW grid and wavefunctions read in
 
   number of l-projection  operators is LMAX  =           4
   number of lm-projection operators is LMMAX =           8
 
 POTCAR:     PAW_PBE Cu_pv 06Sep2000              
   SHA256 =  cb7b504e2ea725fe1f25c85a9ac77d4012ce94cd394135b722c4e25ec297f1cb Cu
   COPYR  = (c) Copyright 06Sep2000 Georg Kresse                                
   COPYR  = This file is part of the software VASP. Any use, copying, and all ot
   COPYR  = If you do not have a valid VASP license, you may not use, copy or di
   VRHFIN =Cu: d10 p1                                                           
   LEXCH  = PE                                                                  
   EATOM  =  4120.1201 eV,  302.8203 Ry                                         
                                                                                
   TITEL  = PAW_PBE Cu_pv 06Sep2000                                             
   LULTRA =        F    use ultrasoft PP ?                                      
   IUNSCR =        1    unscreen: 0-lin 1-nonlin 2-no                           
   RPACOR =    1.500    partial core radius                                     
   POMASS =   63.546; ZVAL   =   17.000    mass and valenz                      
   RCORE  =    2.000    outmost cutoff radius                                   
   RWIGS  =    2.000; RWIGS  =    1.058    wigner-seitz radius (au A)           
   ENMAX  =  368.648; ENMIN  =  276.486 eV                                      
   RCLOC  =    1.304    cutoff for local pot                                    
   LCOR   =        T    correct aug charges                                     
   LPAW   =        T    paw PP                                                  
   EAUG   =  758.233                                                            
   DEXC   =    0.000                                                            
   RMAX   =    2.046    core radius for proj-oper                               
   RAUG   =    1.300    factor for augmentation sphere                          
   RDEP   =    2.025    radius for radial grids                                 
   RDEPT  =    1.558    core radius for aug-charge                              
                                                                                
   Atomic configuration                                                         
    8 entries                                                                   
     n  l   j            E        occ.                                          
     1  0  0.50     -8850.2467   2.0000                                         
     2  0  0.50     -1062.3498   2.0000                                         
     2  1  1.50      -916.8226   6.0000                                         
     3  0  0.50      -114.6929   2.0000                                         
     3  1  1.50       -72.1325   6.0000                                         
     3  2  2.50        -5.0394  10.0000                                         
     4  0  0.50        -4.6097   1.0000                                         
     4  3  2.50        -1.3606   0.0000                                         
   Description                                                                  
     l       E           TYP  RCUT    TYP  RCUT                                 
     1    -72.1324777     23  1.700                                             
     1     -1.3605826     23  1.700                                             
     2     -5.0393776     23  2.000                                             
     2     -6.3999602     23  2.000                                             
     0     -4.6097062     23  1.800                                             
     0     14.1620818     23  1.800                                             
  local pseudopotential read in
  partial core-charges read in
  partial kinetic energy density read in
  atomic valenz-charges read in
  non local Contribution for L=           1  read in
    real space projection operators read in
  non local Contribution for L=           1  read in
    real space projection operators read in
  non local Contribution for L=           2  read in
    real space projection operators read in
  non local Contribution for L=           2  read in
    real space projection operators read in
  non local Contribution for L=           0  read in
    real space projection operators read in
  non local Contribution for L=           0  read in
    real space projection operators read in
    PAW grid and wavefunctions read in
 
   number of l-projection  operators is LMAX  =           6
   number of lm-projection operators is LMMAX =          18
 
 POTCAR:     PAW_PBE Fe_pv 02Aug2007              
   SHA256 =  5d22e414b1f82158bf2c7ecb8b97b28fd0923e48cadc1c3bf74d524558f5dd32 Fe
   COPYR  = (c) Copyright 02Aug2007 Georg Kresse                                
   COPYR  = This file is part of the software VASP. Any use, copying, and all ot
   COPYR  = If you do not have a valid VASP license, you may not use, copy or di
   VRHFIN =Fe:  3pd7s1                                                          
   LEXCH  = PE                                                                  
   EATOM  =  2457.4239 eV,  180.6156 Ry                                         
                                                                                
   TITEL  = PAW_PBE Fe_pv 02Aug2007                                             
   LULTRA =        F    use ultrasoft PP ?                                      
   IUNSCR =        1    unscreen: 0-lin 1-nonlin 2-no                           
   RPACOR =    1.750    partial core radius                                     
   POMASS =   55.847; ZVAL   =   14.000    mass and valenz                      
   RCORE  =    2.200    outmost cutoff radius                                   
   RWIGS  =    2.200; RWIGS  =    1.164    wigner-seitz radius (au A)           
   ENMAX  =  293.238; ENMIN  =  219.928 eV                                      
   ICORE  =        3    local potential                                         
   LCOR   =        T    correct aug charges                                     
   LPAW   =        T    paw PP                                                  
   EAUG   =  578.342                                                            
   DEXC   =    0.000                                                            
   RMAX   =    2.249    core radius for proj-oper                               
   RAUG   =    1.300    factor for augmentation sphere                          
   RDEP   =    2.296    radius for radial grids                                 
   RDEPT  =    1.766    core radius for aug-charge                              
                                                                                
   Atomic configuration                                                         
    8 entries                                                                   
     n  l   j            E        occ.                                          
     1  0  0.50     -6993.8440   2.0000                                         
     2  0  0.50      -814.6047   2.0000                                         
     2  1  1.50      -693.3689   6.0000                                         
     3  0  0.50       -89.4732   2.0000                                         
     3  1  1.50       -55.6373   6.0000                                         
     3  2  2.50        -3.8151   7.0000                                         
     4  0  0.50        -4.2551   1.0000                                         
     4  3  2.50        -1.3606   0.0000                                         
   Description                                                                  
     l       E           TYP  RCUT    TYP  RCUT                                 
     1    -55.6372668     23  2.000                                             
     1     -5.4423304     23  2.000                                             
     2     -3.8151096     23  2.200                                             
     2     -5.1756922     23  2.200                                             
     0     -4.2550951     23  2.200                                             
     0     27.2116520     23  2.200                                             
     3     -1.3605826     23  2.200                                             
  local pseudopotential read in
  partial core-charges read in
  partial kinetic energy density read in
  atomic valenz-charges read in
  non local Contribution for L=           1  read in
    real space projection operators read in
  non local Contribution for L=           1  read in
    real space projection operators read in
  non local Contribution for L=           2  read in
    real space projection operators read in
  non local Contribution for L=           2  read in
    real space projection operators read in
  non local Contribution for L=           0  read in
    real space projection operators read in
  non local Contribution for L=           0  read in
    real space projection operators read in
    PAW grid and wavefunctions read in
 
   number of l-projection  operators is LMAX  =           6
   number of lm-projection operators is LMMAX =          18
 

 ----------------------------------------------------------------------------- 
|                                                                             |
|  ADVICE TO THIS USER RUNNING 'VASP/VAMP'   (HEAR YOUR MASTER'S VOICE ...):  |
|                                                                             |
|      You have a (more or less) 'large supercell' and for larger cells       |
|      it might be more efficient to use real space projection opertators     |
|      So try LREAL= Auto  in the INCAR   file.                               |
|      Mind:          For very  accurate calculation you might also keep the  |
|      reciprocal projection scheme          (i.e. LREAL=.FALSE.)             |
|                                                                             |
 ----------------------------------------------------------------------------- 


 ----------------------------------------------------------------------------- 
|                                                                             |
|  ADVICE TO THIS USER RUNNING 'VASP/VAMP'   (HEAR YOUR MASTER'S VOICE ...):  |
|                                                                             |
|      You enforced a specific xc-type in the INCAR file,                     |
|      a different type was found on the POTCAR file                          |
|          I HOPE YOU KNOW, WHAT YOU ARE  DOING                               |
|                                                                             |
 ----------------------------------------------------------------------------- 

  PAW_PBE S 06Sep2000                   :
 energy of atom  1       EATOM= -276.8230
 kinetic energy error for atom=    0.0007 (will be added to EATOM!!)
   PAW_PBE Cu_pv 06Sep2000              :
 energy of atom  2       EATOM=-4120.1201
 kinetic energy error for atom=    0.0094 (will be added to EATOM!!)
   PAW_PBE Fe_pv 02Aug2007              :
 energy of atom  3       EATOM=-2457.4239
 kinetic energy error for atom=    0.0025 (will be added to EATOM!!)
 
 
 POSCAR: Fe16 Cu16 S32                           
  positions in direct lattice
  No initial velocities read in
 exchange correlation table for  LEXCH =       14
   RHO(1)=    0.500       N(1)  =     2000
   RHO(2)=  100.500       N(2)  =     4000
 


--------------------------------------------------------------------------------------------------------


 ion  position               nearest neighbor table
   1  0.126  0.125  0.125-  41 2.26  37 2.26  61 2.28  49 2.28
   2  0.626  0.125  0.125-  42 2.26  38 2.26  62 2.28  50 2.28
   3  0.126  0.625  0.125-  43 2.26  39 2.26  63 2.28  51 2.28
   4  0.626  0.625  0.125-  44 2.26  40 2.26  64 2.28  52 2.28
   5  0.374  0.375  0.125-  39 2.26  41 2.26  52 2.28  62 2.28
   6  0.874  0.375  0.125-  40 2.26  42 2.26  51 2.28  61 2.28
   7  0.374  0.875  0.125-  37 2.26  43 2.26  50 2.28  64 2.28
   8  0.874  0.875  0.125-  38 2.26  44 2.26  49 2.28  63 2.28
   9  0.125  0.374  0.875-  41 2.26  45 2.26  51 2.28  55 2.28
  10  0.625  0.374  0.875-  42 2.26  46 2.26  52 2.28  56 2.28
  11  0.125  0.874  0.875-  43 2.26  47 2.26  49 2.28  53 2.28
  12  0.625  0.874  0.875-  44 2.26  48 2.26  50 2.28  54 2.28
  13  0.375  0.126  0.875-  41 2.26  46 2.26  50 2.28  53 2.28
  14  0.875  0.126  0.875-  42 2.26  45 2.26  49 2.28  54 2.28
  15  0.375  0.626  0.875-  43 2.26  48 2.26  52 2.28  55 2.28
  16  0.875  0.626  0.875-  44 2.26  47 2.26  51 2.28  56 2.28
  17  0.124  0.125  0.625-  45 2.26  33 2.26  57 2.28  53 2.28
  18  0.624  0.125  0.625-  46 2.26  34 2.26  58 2.28  54 2.28
  19  0.124  0.625  0.625-  47 2.26  35 2.26  59 2.28  55 2.28
  20  0.624  0.625  0.625-  48 2.26  36 2.26  60 2.28  56 2.28
  21  0.376  0.375  0.625-  36 2.26  46 2.26  55 2.28  57 2.28
  22  0.876  0.375  0.625-  35 2.26  45 2.26  56 2.28  58 2.28
  23  0.376  0.875  0.625-  34 2.26  48 2.26  53 2.28  59 2.28
  24  0.876  0.875  0.625-  33 2.26  47 2.26  54 2.28  60 2.28
  25  0.375  0.124  0.375-  34 2.26  37 2.26  57 2.28  62 2.28
  26  0.875  0.124  0.375-  33 2.26  38 2.26  58 2.28  61 2.28
  27  0.375  0.624  0.375-  36 2.26  39 2.26  59 2.28  64 2.28
  28  0.875  0.624  0.375-  35 2.26  40 2.26  60 2.28  63 2.28
  29  0.125  0.376  0.375-  35 2.26  39 2.26  57 2.28  61 2.28
  30  0.625  0.376  0.375-  36 2.26  40 2.26  58 2.28  62 2.28
  31  0.125  0.876  0.375-  33 2.26  37 2.26  59 2.28  63 2.28
  32  0.625  0.876  0.375-  34 2.26  38 2.26  60 2.28  64 2.28
  33  1.000  0.000  0.500-  24 2.26  31 2.26  26 2.26  17 2.26
  34  0.500  0.000  0.500-  23 2.26  32 2.26  25 2.26  18 2.26
  35  1.000  0.500  0.500-  22 2.26  29 2.26  28 2.26  19 2.26
  36  0.500  0.500  0.500-  21 2.26  30 2.26  27 2.26  20 2.26
  37  0.250  0.000  0.250-   7 2.26  31 2.26  25 2.26   1 2.26
  38  0.750  0.000  0.250-   8 2.26  32 2.26  26 2.26   2 2.26
  39  0.250  0.500  0.250-   5 2.26  29 2.26  27 2.26   3 2.26
  40  0.750  0.500  0.250-   6 2.26  30 2.26  28 2.26   4 2.26
  41  0.250  0.250  0.000-   1 2.26  13 2.26   9 2.26   5 2.26
  42  0.750  0.250  0.000-   2 2.26  14 2.26  10 2.26   6 2.26
  43  0.250  0.750  0.000-   3 2.26  15 2.26  11 2.26   7 2.26
  44  0.750  0.750  0.000-   4 2.26  16 2.26  12 2.26   8 2.26
  45  0.000  0.250  0.750-  17 2.26  14 2.26   9 2.26  22 2.26
  46  0.500  0.250  0.750-  18 2.26  13 2.26  10 2.26  21 2.26
  47  0.000  0.750  0.750-  19 2.26  16 2.26  11 2.26  24 2.26
  48  0.500  0.750  0.750-  20 2.26  15 2.26  12 2.26  23 2.26
  49  1.000  0.000  0.000-   8 2.28  11 2.28  14 2.28   1 2.28
  50  0.500  0.000  0.000-   7 2.28  12 2.28  13 2.28   2 2.28
  51  1.000  0.500  0.000-   6 2.28   9 2.28  16 2.28   3 2.28
  52  0.500  0.500  0.000-   5 2.28  10 2.28  15 2.28   4 2.28
  53  0.250  0.000  0.750-  23 2.28  11 2.28  13 2.28  17 2.28
  54  0.750  0.000  0.750-  24 2.28  12 2.28  14 2.28  18 2.28
  55  0.250  0.500  0.750-  21 2.28   9 2.28  15 2.28  19 2.28
  56  0.750  0.500  0.750-  22 2.28  10 2.28  16 2.28  20 2.28
  57  0.250  0.250  0.500-  17 2.28  25 2.28  29 2.28  21 2.28
  58  0.750  0.250  0.500-  18 2.28  26 2.28  30 2.28  22 2.28
  59  0.250  0.750  0.500-  19 2.28  27 2.28  31 2.28  23 2.28
  60  0.750  0.750  0.500-  20 2.28  28 2.28  32 2.28  24 2.28
  61  0.000  0.250  0.250-   1 2.28  26 2.28  29 2.28   6 2.28
  62  0.500  0.250  0.250-   2 2.28  25 2.28  30 2.28   5 2.28
  63  0.000  0.750  0.250-   3 2.28  28 2.28  31 2.28   8 2.28
  64  0.500  0.750  0.250-   4 2.28  27 2.28  32 2.28   7 2.28
 
  LATTYP: Found a simple monoclinic cell.
 ALAT       =    14.8232586604
 B/A-ratio  =     0.7094288267
 C/A-ratio  =     1.5758330024
 COS(beta)  =    -0.9487022070
  
  Lattice vectors:
  
 A1 = ( -10.5339430000,   0.0000000000, -10.4290480000)
 A2 = (   0.0000000000, -10.5160470000,   0.0000000000)
 A3 = (  10.5521120000,   0.0000000000,  20.8397430000)


Analysis of symmetry for initial positions (statically):
=====================================================================
 Subroutine PRICEL returns following result:
 
  LATTYP: Found a base centered monoclinic cell.
 ALAT       =    11.6467262278
 B/A-ratio  =     0.4514593541
 C/A-ratio  =     0.8938744374
 COS(beta)  =    -0.8132615987
  
  Lattice vectors:
  
 A1 = (  -2.6198590000,  -2.6290117500,   5.2007592500)
 A2 = (  -2.6198590000,   2.6290117500,   5.2007592500)
 A3 = (  -0.0181690000,   0.0000000000, -10.4106950000)
 
   8 primitive cells build up your supercell.
 

 Routine SETGRP: Setting up the symmetry group for a 
 simple monoclinic supercell.


 Subroutine GETGRP returns: Found  2 space group operations
 (whereof  1 operations were pure point group operations)
 out of a pool of  4 trial point group operations.


The static configuration has the point symmetry C_1 .
 The point group associated with its full space group is C_2 .


Analysis of symmetry for dynamics (positions and initial velocities):
=====================================================================
 Subroutine PRICEL returns following result:
 
  LATTYP: Found a base centered monoclinic cell.
 ALAT       =    11.6467262278
 B/A-ratio  =     0.4514593541
 C/A-ratio  =     0.8938744374
 COS(beta)  =    -0.8132615987
  
  Lattice vectors:
  
 A1 = (  -2.6198590000,  -2.6290117500,   5.2007592500)
 A2 = (  -2.6198590000,   2.6290117500,   5.2007592500)
 A3 = (  -0.0181690000,   0.0000000000, -10.4106950000)
 
   8 primitive cells build up your supercell.
 

 Routine SETGRP: Setting up the symmetry group for a 
 simple monoclinic supercell.


 Subroutine GETGRP returns: Found  2 space group operations
 (whereof  1 operations were pure point group operations)
 out of a pool of  4 trial point group operations.


The dynamic configuration has the point symmetry C_1 .
 The point group associated with its full space group is C_2 .


Analysis of structural, dynamic, and magnetic symmetry:
=====================================================================
 Subroutine PRICEL returns following result:
 
  LATTYP: Found a base centered monoclinic cell.
 ALAT       =    11.6467262278
 B/A-ratio  =     0.4514593541
 C/A-ratio  =     0.8938744374
 COS(beta)  =    -0.8132615987
  
  Lattice vectors:
  
 A1 = (  -2.6198590000,  -2.6290117500,   5.2007592500)
 A2 = (  -2.6198590000,   2.6290117500,   5.2007592500)
 A3 = (  -0.0181690000,   0.0000000000, -10.4106950000)
 
   8 primitive cells build up your supercell.
 

 Routine SETGRP: Setting up the symmetry group for a 
 simple monoclinic supercell.


 Subroutine GETGRP returns: Found  2 space group operations
 (whereof  1 operations were pure point group operations)
 out of a pool of  4 trial point group operations.


The magnetic configuration has the point symmetry C_1 .
 The point group associated with its full space group is C_2 .


 Subroutine INISYM returns: Found  2 space group operations
 (whereof  1 operations are pure point group operations),
 and found     8 'primitive' translations

 
 
 KPOINTS: Automatic mesh                          

Automatic generation of k-mesh.
Space group operators:
 irot       det(A)        alpha          n_x          n_y          n_z        tau_x        tau_y        tau_z
    1     1.000000     0.000000     1.000000     0.000000     0.000000     0.000000     0.000000     0.000000
    2     1.000000   179.999999     0.000000     1.000000     0.000000    -0.250000     0.000000    -0.250000
 
 Subroutine IBZKPT returns following result:
 ===========================================
 
 Found      8 irreducible k-points:
 
 Following reciprocal coordinates:
            Coordinates               Weight
  0.000000  0.000000  0.000000      1.000000
  0.500000  0.000000  0.000000      1.000000
  0.000000  0.500000  0.000000      1.000000
  0.500000  0.500000  0.000000      1.000000
 -0.000000  0.000000  0.500000      1.000000
  0.500000  0.000000  0.500000      1.000000
 -0.000000  0.500000  0.500000      1.000000
  0.500000  0.500000  0.500000      1.000000
 
 Following cartesian coordinates:
            Coordinates               Weight
  0.000000  0.000000  0.000000      1.000000
  0.047548  0.000000 -0.000083      1.000000
  0.000000  0.047546  0.000000      1.000000
  0.047548  0.047546 -0.000083      1.000000
 -0.000084  0.000000  0.048028      1.000000
  0.047464  0.000000  0.047945      1.000000
 -0.000084  0.047546  0.048028      1.000000
  0.047464  0.047546  0.047945      1.000000
 
 TETIRR: Found     24 inequivalent tetrahedra from       48
 
 Subroutine IBZKPT_HF returns following result:
 ==============================================
 
 Found      8 k-points in 1st BZ
 the following      8 k-points will be used (e.g. in the exchange kernel)
 Following reciprocal coordinates:   # in IRBZ
  0.000000  0.000000  0.000000    0.12500000   1 t-inv F
  0.500000  0.000000  0.000000    0.12500000   2 t-inv F
  0.000000  0.500000  0.000000    0.12500000   3 t-inv F
  0.500000  0.500000  0.000000    0.12500000   4 t-inv F
 -0.000000  0.000000  0.500000    0.12500000   5 t-inv F
  0.500000  0.000000  0.500000    0.12500000   6 t-inv F
 -0.000000  0.500000  0.500000    0.12500000   7 t-inv F
  0.500000  0.500000  0.500000    0.12500000   8 t-inv F


--------------------------------------------------------------------------------------------------------




 Dimension of arrays:
   k-points           NKPTS =      8   k-points in BZ     NKDIM =      8   number of bands    NBANDS=    512
   number of dos      NEDOS =    301   number of ions     NIONS =     64
   non local maximal  LDIM  =      6   non local SUM 2l+1 LMDIM =     18
   total plane-waves  NPLWV = 829440
   max r-space proj   IRMAX =      1   max aug-charges    IRDMAX=  22895
   dimension x,y,z NGX =    96 NGY =   96 NGZ =   90
   dimension x,y,z NGXF=   192 NGYF=  192 NGZF=  180
   support grid    NGXF=   192 NGYF=  192 NGZF=  180
   ions per type =              32  16  16
   NGX,Y,Z   is equivalent  to a cutoff of  15.18, 15.18, 14.37 a.u.
   NGXF,Y,Z  is equivalent  to a cutoff of  30.35, 30.35, 28.74 a.u.

 SYSTEM =  CuFeS2                                  
 POSCAR =  Fe16 Cu16 S32                           

 Startparameter for this run:
   NWRITE =      2    write-flag & timer
   PREC   = accura    normal or accurate (medium, high low for compatibility)
   ISTART =      0    job   : 0-new  1-cont  2-samecut
   ICHARG =      1    charge: 1-file 2-atom 10-const
   ISPIN  =      2    spin polarized calculation?
   LNONCOLLINEAR =      F non collinear calculations
   LSORBIT =      F    spin-orbit coupling
   INIWAV =      1    electr: 0-lowe 1-rand  2-diag
   LASPH  =      F    aspherical Exc in radial PAW
   METAGGA=      F    non-selfconsistent MetaGGA calc.

 Electronic Relaxation 1
   ENCUT  =  700.0 eV  51.45 Ry    7.17 a.u.  22.69 22.69 22.46*2*pi/ulx,y,z
   ENINI  =  700.0     initial cutoff
   ENAUG  =  758.2 eV  augmentation charge cutoff
   NELM   =    500;   NELMIN=  2; NELMDL= -5     # of ELM steps 
   EDIFF  = 0.1E-07   stopping-criterion for ELM
   LREAL  =      F    real-space projection
   NLSPLINE    = F    spline interpolate recip. space projectors
   LCOMPAT=      F    compatible to vasp.4.4
   GGA_COMPAT  = T    GGA compatible to vasp.4.4-vasp.4.6
   LMAXPAW     = -100 max onsite density
   LMAXMIX     =    4 max onsite mixed and CHGCAR
   VOSKOWN=      0    Vosko Wilk Nusair interpolation
   ROPT   =    0.00000   0.00000   0.00000
 Ionic relaxation
   EDIFFG = -.1E-04   stopping-criterion for IOM
   NSW    =      0    number of steps for IOM
   NBLOCK =      1;   KBLOCK =      1    inner block; outer block 
   IBRION =     -1    ionic relax: 0-MD 1-quasi-New 2-CG
   NFREE  =      0    steps in history (QN), initial steepest desc. (CG)
   ISIF   =      2    stress and relaxation
   IWAVPR =     10    prediction:  0-non 1-charg 2-wave 3-comb
   ISYM   =      2    0-nonsym 1-usesym 2-fastsym
   LCORR  =      T    Harris-Foulkes like correction to forces

   POTIM  = 0.5000    time-step for ionic-motion
   TEIN   =    0.0    initial temperature
   TEBEG  =    0.0;   TEEND  =   0.0 temperature during run
   SMASS  =  -3.00    Nose mass-parameter (am)
   estimated Nose-frequenzy (Omega)   =  0.10E-29 period in steps =****** mass=  -0.253E-26a.u.
   SCALEE = 1.0000    scale energy and forces
   NPACO  =    256;   APACO  = 16.0  distance and # of slots for P.C.
   PSTRESS=    0.0 pullay stress

  Mass of Ions in am
   POMASS =  32.07 63.55 55.85
  Ionic Valenz
   ZVAL   =   6.00 17.00 14.00
  Atomic Wigner-Seitz radii
   RWIGS  =  -1.00 -1.00 -1.00
  virtual crystal weights 
   VCA    =   1.00  1.00  1.00
   NELECT =     688.0000    total number of electrons
   NUPDOWN=      -1.0000    fix difference up-down

 DOS related values:
   EMIN   =  10.00;   EMAX   =-10.00  energy-range for DOS
   EFERMI =   0.00
   ISMEAR =    -5;   SIGMA  =   0.03  broadening in eV -4-tet -1-fermi 0-gaus

 Electronic relaxation 2 (details)
   IALGO  =     38    algorithm
   LDIAG  =      T    sub-space diagonalisation (order eigenvalues)
   LSUBROT=      F    optimize rotation matrix (better conditioning)
   TURBO    =      0    0=normal 1=particle mesh
   IRESTART =      0    0=no restart 2=restart with 2 vectors
   NREBOOT  =      0    no. of reboots
   NMIN     =      0    reboot dimension
   EREF     =   0.00    reference energy to select bands
   IMIX   =      4    mixing-type and parameters
     AMIX     =   0.40;   BMIX     =  1.00
     AMIX_MAG =   1.60;   BMIX_MAG =  1.00
     AMIN     =   0.10
     WC   =   100.;   INIMIX=   1;  MIXPRE=   1;  MAXMIX= -45

 Intra band minimization:
   WEIMIN = 0.0000     energy-eigenvalue tresh-hold
   EBREAK =  0.49E-11  absolut break condition
   DEPER  =   0.30     relativ break condition  

   TIME   =   0.40     timestep for ELM

  volume/ion in A,a.u.               =      17.99       121.39
  Fermi-wavevector in a.u.,A,eV,Ry     =   1.378945  2.605828 25.871330  1.901489
  Thomas-Fermi vector in A             =   2.503960
 
 Write flags
   LWAVE        =      T    write WAVECAR
   LDOWNSAMPLE  =      F    k-point downsampling of WAVECAR
   LCHARG       =      T    write CHGCAR
   LVTOT        =      F    write LOCPOT, total local potential
   LVHAR        =      F    write LOCPOT, Hartree potential only
   LELF         =      F    write electronic localiz. function (ELF)
   LORBIT       =     11    0 simple, 1 ext, 2 COOP (PROOUT), +10 PAW based schemes


 Dipole corrections
   LMONO  =      F    monopole corrections only (constant potential shift)
   LDIPOL =      F    correct potential (dipole corrections)
   IDIPOL =      0    1-x, 2-y, 3-z, 4-all directions 
   EPSILON=  1.0000000 bulk dielectric constant

 LDA+U is selected, type is set to LDAUTYPE =  2
   angular momentum for each species LDAUL =     2    2    2
   U (eV)           for each species LDAUU =   0.0  0.1  4.7
   J (eV)           for each species LDAUJ =   0.0  0.0  0.0
 Exchange correlation treatment:
   GGA     =    PS    GGA type
   LEXCH   =    14    internal setting for exchange type
   VOSKOWN=      0    Vosko Wilk Nusair interpolation
   LHFCALC =     F    Hartree Fock is set to
   LHFONE  =     F    Hartree Fock one center treatment
   AEXX    =    0.0000 exact exchange contribution

 Linear response parameters
   LEPSILON=     F    determine dielectric tensor
   LRPA    =     F    only Hartree local field effects (RPA)
   LNABLA  =     F    use nabla operator in PAW spheres
   LVEL    =     F    velocity operator in full k-point grid
   LINTERFAST=   F  fast interpolation
   KINTER  =     0    interpolate to denser k-point grid
   CSHIFT  =0.1000    complex shift for real part using Kramers Kronig
   OMEGAMAX=  -1.0    maximum frequency
   DEG_THRESHOLD= 0.2000000E-02 threshold for treating states as degnerate
   RTIME   =   -0.100 relaxation time in fs
  (WPLASMAI=    0.000 imaginary part of plasma frequency in eV, 0.658/RTIME)
   DFIELD  = 0.0000000 0.0000000 0.0000000 field for delta impulse in time
 
 Orbital magnetization related:
   ORBITALMAG=     F  switch on orbital magnetization
   LCHIMAG   =     F  perturbation theory with respect to B field
   DQ        =  0.001000  dq finite difference perturbation B field
   LLRAUG    =     F  two centre corrections for induced B field

 PEAD related settings:
   LPEAD      =     T    switch on PEAD
   IPEAD      =     4    finite difference order for dpsi/dk
   LCALCPOL   =     T    calculate macroscopic polarization
   LCALCEPS   =     F    calculate dielectric tensor
   EFIELD_PEAD=    0.0000    0.0000    0.0000
   SKIP_EDOTP =     F
   LRPA       =     F
   SKIP_SCF   =     F


--------------------------------------------------------------------------------------------------------


 Static calculation
 charge density and potential will be updated during run
 spin polarized calculation
 Variant of blocked Davidson
 Davidson routine will perform the subspace rotation
 perform sub-space diagonalisation
    after iterative eigenvector-optimisation
 modified Broyden-mixing scheme, WC =      100.0
 initial mixing is a Kerker type mixing with AMIX =  0.4000 and BMIX =      1.0000
 Hartree-type preconditioning will be used
 using additional bands          168
 reciprocal scheme for non local part
 use partial core corrections
 calculate Harris-corrections to forces 
   (improved forces if not selfconsistent)
 use gradient corrections 
 use of overlap-Matrix (Vanderbilt PP)
 Fermi weights with tetrahedron method with Bloechl corrections


--------------------------------------------------------------------------------------------------------


  energy-cutoff  :      700.00
  volume of cell :     1151.26
      direct lattice vectors                 reciprocal lattice vectors
    10.515774000  0.000000000  0.018353000     0.095095525  0.000000000 -0.000165963
     0.000000000 10.516047000  0.000000000     0.000000000  0.095092766  0.000000000
     0.018169000  0.000000000 10.410695000    -0.000167644  0.000000000  0.096055359

  length of vectors
    10.515790016 10.516047000 10.410710854     0.095095669  0.095092766  0.096055505


 
 k-points in units of 2pi/SCALE and weight: Automatic mesh                          
   0.00000000  0.00000000  0.00000000       0.125
   0.04754776  0.00000000 -0.00008298       0.125
   0.00000000  0.04754638  0.00000000       0.125
   0.04754776  0.04754638 -0.00008298       0.125
  -0.00008382  0.00000000  0.04802768       0.125
   0.04746394  0.00000000  0.04794470       0.125
  -0.00008382  0.04754638  0.04802768       0.125
   0.04746394  0.04754638  0.04794470       0.125
 
 k-points in reciprocal lattice and weights: Automatic mesh                          
   0.00000000  0.00000000  0.00000000       0.125
   0.50000000  0.00000000  0.00000000       0.125
   0.00000000  0.50000000  0.00000000       0.125
   0.50000000  0.50000000  0.00000000       0.125
  -0.00000000  0.00000000  0.50000000       0.125
   0.50000000  0.00000000  0.50000000       0.125
  -0.00000000  0.50000000  0.50000000       0.125
   0.50000000  0.50000000  0.50000000       0.125
 
 position of ions in fractional coordinates (direct lattice) 
   0.12615900  0.12478400  0.12503500
   0.62615900  0.12478400  0.12503500
   0.12615900  0.62478400  0.12503500
   0.62615900  0.62478400  0.12503500
   0.37384100  0.37478400  0.12496500
   0.87384100  0.37478400  0.12496500
   0.37384100  0.87478400  0.12496500
   0.87384100  0.87478400  0.12496500
   0.12500000  0.37369100  0.87500000
   0.62500000  0.37369100  0.87500000
   0.12500000  0.87369100  0.87500000
   0.62500000  0.87369100  0.87500000
   0.37500000  0.12599800  0.87500000
   0.87500000  0.12599800  0.87500000
   0.37500000  0.62599800  0.87500000
   0.87500000  0.62599800  0.87500000
   0.12384100  0.12478400  0.62496500
   0.62384100  0.12478400  0.62496500
   0.12384100  0.62478400  0.62496500
   0.62384100  0.62478400  0.62496500
   0.37615900  0.37478400  0.62503500
   0.87615900  0.37478400  0.62503500
   0.37615900  0.87478400  0.62503500
   0.87615900  0.87478400  0.62503500
   0.37500000  0.12369100  0.37500000
   0.87500000  0.12369100  0.37500000
   0.37500000  0.62369100  0.37500000
   0.87500000  0.62369100  0.37500000
   0.12500000  0.37599800  0.37500000
   0.62500000  0.37599800  0.37500000
   0.12500000  0.87599800  0.37500000
   0.62500000  0.87599800  0.37500000
   0.99993700  0.00019000  0.50000000
   0.49993700  0.00019000  0.50000000
   0.99993700  0.50019000  0.50000000
   0.49993700  0.50019000  0.50000000
   0.25006300  0.00019000  0.25000000
   0.75006300  0.00019000  0.25000000
   0.25006300  0.50019000  0.25000000
   0.75006300  0.50019000  0.25000000
   0.24993700  0.25019000  0.00000000
   0.74993700  0.25019000  0.00000000
   0.24993700  0.75019000  0.00000000
   0.74993700  0.75019000  0.00000000
   0.00006300  0.25019000  0.75000000
   0.50006300  0.25019000  0.75000000
   0.00006300  0.75019000  0.75000000
   0.50006300  0.75019000  0.75000000
   0.99996900  0.00018200  0.00000600
   0.49996900  0.00018200  0.00000600
   0.99996900  0.50018200  0.00000600
   0.49996900  0.50018200  0.00000600
   0.25003100  0.00018200  0.74999400
   0.75003100  0.00018200  0.74999400
   0.25003100  0.50018200  0.74999400
   0.75003100  0.50018200  0.74999400
   0.24996900  0.25018200  0.50000600
   0.74996900  0.25018200  0.50000600
   0.24996900  0.75018200  0.50000600
   0.74996900  0.75018200  0.50000600
   0.00003100  0.25018200  0.24999400
   0.50003100  0.25018200  0.24999400
   0.00003100  0.75018200  0.24999400
   0.50003100  0.75018200  0.24999400
 
 position of ions in cartesian coordinates  (Angst):
   1.32893129  1.31223441  1.30401665
   6.58681829  1.31223441  1.31319315
   1.32893129  6.57025791  1.30401665
   6.58681829  6.57025791  1.31319315
   3.93349796  3.94124616  1.30783360
   9.19138496  3.94124616  1.31701010
   3.93349796  9.19926966  1.30783360
   9.19138496  9.19926966  1.31701010
   1.33036963  3.92975212  9.11165225
   6.58825663  3.92975212  9.12082875
   1.33036963  9.18777562  9.11165225
   6.58825663  9.18777562  9.12082875
   3.95931312  1.32500089  9.11624050
   9.21720013  1.32500089  9.12541700
   3.95931312  6.58302439  9.11624050
   9.21720013  6.58302439  9.12541700
   1.31363896  1.31223441  6.50859285
   6.57152596  1.31223441  6.51776935
   1.31363896  6.57025791  6.50859285
   6.57152596  6.57025791  6.51776935
   3.96695929  3.94124616  6.51395240
   9.22484629  3.94124616  6.52312890
   3.96695929  9.19926966  6.51395240
   9.22484629  9.19926966  6.52312890
   3.95022863  1.30074037  3.91089300
   9.20811563  1.30074037  3.92006950
   3.95022863  6.55876387  3.91089300
   9.20811563  6.55876387  3.92006950
   1.32128512  3.95401264  3.90630475
   6.57917213  3.95401264  3.91548125
   1.32128512  9.21203614  3.90630475
   6.57917213  9.21203614  3.91548125
  10.52419601  0.00199805  5.22369934
   5.26630901  0.00199805  5.21452284
  10.52419601  5.26002155  5.22369934
   5.26630901  5.26002155  5.21452284
   2.63414824  0.00199805  2.60726316
   7.89203524  0.00199805  2.61643966
   2.63414824  5.26002155  2.60726316
   7.89203524  5.26002155  2.61643966
   2.62828101  2.63100980  0.00458709
   7.88616801  2.63100980  0.01376359
   2.62828101  7.88903330  0.00458709
   7.88616801  7.88903330  0.01376359
   0.01428924  2.63100980  7.80802241
   5.27217624  2.63100980  7.81719891
   0.01428924  7.88903330  7.80802241
   5.27217624  7.88903330  7.81719891
  10.51544812  0.00191392  0.01841490
   5.25756112  0.00191392  0.00923840
  10.51544812  5.25993742  0.01841490
   5.25756112  5.25993742  0.00923840
   2.64289613  0.00191392  7.81254760
   7.90078313  0.00191392  7.82172410
   2.64289613  5.25993742  7.81254760
   7.90078313  5.25993742  7.82172410
   2.63770212  2.63092567  5.20999765
   7.89558912  2.63092567  5.21917415
   2.63770212  7.88894917  5.20999765
   7.89558912  7.88894917  5.21917415
   0.00486813  2.63092567  2.60261185
   5.26275513  2.63092567  2.61178835
   0.00486813  7.88894917  2.60261185
   5.26275513  7.88894917  2.61178835
 


--------------------------------------------------------------------------------------------------------


 k-point  1 :   0.0000 0.0000 0.0000  plane waves:   48431
 k-point  2 :   0.5000 0.0000 0.0000  plane waves:   48450
 k-point  3 :   0.0000 0.5000 0.0000  plane waves:   48434
 k-point  4 :   0.5000 0.5000 0.0000  plane waves:   48428
 k-point  5 :  -0.0000 0.0000 0.5000  plane waves:   48452
 k-point  6 :   0.5000 0.0000 0.5000  plane waves:   48412
 k-point  7 :  -0.0000 0.5000 0.5000  plane waves:   48416
 k-point  8 :   0.5000 0.5000 0.5000  plane waves:   48400

 maximum and minimum number of plane-waves per node :     48452    48400

 maximum number of plane-waves:     48452
 maximum index in each direction: 
   IXMAX=   22   IYMAX=   22   IZMAX=   22
   IXMIN=  -23   IYMIN=  -23   IZMIN=  -22


 serial   3D FFT for wavefunctions
 parallel 3D FFT for charge:
    minimum data exchange during FFTs selected (reduces bandwidth)


 total amount of memory used by VASP MPI-rank0   349631. kBytes
=======================================================================

   base      :      30000. kBytes
   nonl-proj :     217907. kBytes
   fftplans  :       4588. kBytes
   grid      :      69719. kBytes
   one-center:       1990. kBytes
   wavefun   :      25427. kBytes
 
     INWAV:  cpu time    0.0000: real time    0.0000
 Broyden mixing: mesh for mixing (old mesh)
   NGX = 45   NGY = 45   NGZ = 45
  (NGX  =192   NGY  =192   NGZ  =180)
  gives a total of  91125 points

 initial charge density was supplied:
 number of electron     688.0000287 magnetization       0.0000000
 keeping initial charge density in first step


--------------------------------------------------------------------------------------------------------


 Maximum index for augmentation-charges          899 (set IRDMAX)


--------------------------------------------------------------------------------------------------------


 First call to EWALD:  gamma=   0.169
 Maximum number of real-space cells 3x 3x 3
 Maximum number of reciprocal cells 3x 3x 3

    FEWALD:  cpu time    0.0026: real time    0.0026


--------------------------------------- Iteration      1(   1)  ---------------------------------------


    POTLOK:  cpu time    0.3291: real time    0.3512
    SETDIJ:  cpu time    0.0146: real time    0.0147
     EDDAV:  cpu time   84.8148: real time   85.5063
 BZINTS: Fermi energy: 14.927059;688.000000 electrons
         Band energy:***********;  BLOECHL correction: -0.027986
       DOS:  cpu time    0.0422: real time    0.0423
    --------------------------------------------
      LOOP:  cpu time   85.2007: real time   85.9145

 eigenvalue-minimisations  : 16384
 total energy-change (2. order) : 0.6055175E+04  (-0.5159115E+05)
 number of electron     688.0000287 magnetization       0.0000000
 augmentation part      688.0000287 magnetization       0.0000000

 Free energy of the ion-electron system (eV)
  ---------------------------------------------------
  alpha Z        PSCENC =      2354.94880897
  Ewald energy   TEWEN  =    -62456.57705548
  -Hartree energ DENC   =    -42942.56793798
  -exchange      EXHF   =         0.00000000
  -V(xc)+E(xc)   XCENC  =      3286.04219904
  PAW double counting   =    112259.81449706  -115953.62387450
  entropy T*S    EENTRO =         0.00000000
  eigenvalues    EBANDS =     -4512.92664834
  atomic energy  EATOM  =    114020.06510763
  Solvation  Ediel_sol  =         0.00000000
  ---------------------------------------------------
  free energy    TOTEN  =      6055.17509638 eV

  energy without entropy =     6055.17509638  energy(sigma->0) =     6055.17509638


--------------------------------------------------------------------------------------------------------




--------------------------------------- Iteration      1(   2)  ---------------------------------------


     EDDAV:  cpu time  102.2758: real time  103.0400
 BZINTS: Fermi energy:  5.482883;688.000000 electrons
         Band energy:***********;  BLOECHL correction:  0.000000
       DOS:  cpu time    0.0058: real time    0.0058
    --------------------------------------------
      LOOP:  cpu time  102.2815: real time  103.0458

 eigenvalue-minimisations  : 18176
 total energy-change (2. order) :-0.6136540E+04  (-0.6026726E+04)
 number of electron     688.0000287 magnetization       0.0000000
 augmentation part      688.0000287 magnetization       0.0000000

 Free energy of the ion-electron system (eV)
  ---------------------------------------------------
  alpha Z        PSCENC =      2354.94880897
  Ewald energy   TEWEN  =    -62456.57705548
  -Hartree energ DENC   =    -42942.56793798
  -exchange      EXHF   =         0.00000000
  -V(xc)+E(xc)   XCENC  =      3286.04219904
  PAW double counting   =    112259.81449706  -115953.62387450
  entropy T*S    EENTRO =         0.00000000
  eigenvalues    EBANDS =    -10649.46623493
  atomic energy  EATOM  =    114020.06510763
  Solvation  Ediel_sol  =         0.00000000
  ---------------------------------------------------
  free energy    TOTEN  =       -81.36449021 eV

  energy without entropy =      -81.36449021  energy(sigma->0) =      -81.36449021


--------------------------------------------------------------------------------------------------------




--------------------------------------- Iteration      1(   3)  ---------------------------------------


     EDDAV:  cpu time  157.0901: real time  158.1790
 BZINTS: Fermi energy:  4.894927;688.000000 electrons
         Band energy:***********;  BLOECHL correction:  0.000000
       DOS:  cpu time    0.0066: real time    0.0066
    --------------------------------------------
      LOOP:  cpu time  157.0967: real time  158.1856

 eigenvalue-minimisations  : 22784
 total energy-change (2. order) :-0.2476644E+03  (-0.2467788E+03)
 number of electron     688.0000287 magnetization       0.0000000
 augmentation part      688.0000287 magnetization       0.0000000

 Free energy of the ion-electron system (eV)
  ---------------------------------------------------
  alpha Z        PSCENC =      2354.94880897
  Ewald energy   TEWEN  =    -62456.57705548
  -Hartree energ DENC   =    -42942.56793798
  -exchange      EXHF   =         0.00000000
  -V(xc)+E(xc)   XCENC  =      3286.04219904
  PAW double counting   =    112259.81449706  -115953.62387450
  entropy T*S    EENTRO =         0.00000000
  eigenvalues    EBANDS =    -10897.13066192
  atomic energy  EATOM  =    114020.06510763
  Solvation  Ediel_sol  =         0.00000000
  ---------------------------------------------------
  free energy    TOTEN  =      -329.02891719 eV

  energy without entropy =     -329.02891719  energy(sigma->0) =     -329.02891719


--------------------------------------------------------------------------------------------------------




--------------------------------------- Iteration      1(   4)  ---------------------------------------


     EDDAV:  cpu time  117.6979: real time  118.5517
 BZINTS: Fermi energy:  4.812493;688.000000 electrons
         Band energy:***********;  BLOECHL correction:  0.000000
       DOS:  cpu time    0.0053: real time    0.0053
    --------------------------------------------
      LOOP:  cpu time  117.7031: real time  118.5569

 eigenvalue-minimisations  : 19200
 total energy-change (2. order) :-0.3419642E+01  (-0.3419505E+01)
 number of electron     688.0000287 magnetization       0.0000000
 augmentation part      688.0000287 magnetization       0.0000000

 Free energy of the ion-electron system (eV)
  ---------------------------------------------------
  alpha Z        PSCENC =      2354.94880897
  Ewald energy   TEWEN  =    -62456.57705548
  -Hartree energ DENC   =    -42942.56793798
  -exchange      EXHF   =         0.00000000
  -V(xc)+E(xc)   XCENC  =      3286.04219904
  PAW double counting   =    112259.81449706  -115953.62387450
  entropy T*S    EENTRO =         0.00000000
  eigenvalues    EBANDS =    -10900.55030404
  atomic energy  EATOM  =    114020.06510763
  Solvation  Ediel_sol  =         0.00000000
  ---------------------------------------------------
  free energy    TOTEN  =      -332.44855931 eV

  energy without entropy =     -332.44855931  energy(sigma->0) =     -332.44855931


--------------------------------------------------------------------------------------------------------




--------------------------------------- Iteration      1(   5)  ---------------------------------------


     EDDAV:  cpu time  153.5207: real time  154.5859
 BZINTS: Fermi energy:  4.984411;688.000000 electrons
         Band energy:***********;  BLOECHL correction:  0.000000
       DOS:  cpu time    0.0061: real time    0.0061
    CHARGE:  cpu time    1.4156: real time    1.4247
    MIXING:  cpu time    0.0027: real time    0.0027
    --------------------------------------------
      LOOP:  cpu time  154.9451: real time  156.0194

 eigenvalue-minimisations  : 22272
 total energy-change (2. order) :-0.1034861E+00  (-0.1034855E+00)
 number of electron     688.0000436 magnetization       0.0000000
 augmentation part      282.5118293 magnetization       0.0000000

 Broyden mixing:
  rms(total) = 0.15866E+01    rms(broyden)= 0.15863E+01
  rms(prec ) = 0.17833E+01
  weight for this iteration     100.00

 Free energy of the ion-electron system (eV)
  ---------------------------------------------------
  alpha Z        PSCENC =      2354.94880897
  Ewald energy   TEWEN  =    -62456.57705548
  -Hartree energ DENC   =    -42942.56793798
  -exchange      EXHF   =         0.00000000
  -V(xc)+E(xc)   XCENC  =      3286.04219904
  PAW double counting   =    112259.81449706  -115953.62387450
  entropy T*S    EENTRO =         0.00000000
  eigenvalues    EBANDS =    -10900.65379010
  atomic energy  EATOM  =    114020.06510763
  Solvation  Ediel_sol  =         0.00000000
  ---------------------------------------------------
  free energy    TOTEN  =      -332.55204538 eV

  energy without entropy =     -332.55204538  energy(sigma->0) =     -332.55204538


--------------------------------------------------------------------------------------------------------




--------------------------------------- Iteration      1(   6)  ---------------------------------------


    POTLOK:  cpu time    0.1312: real time    0.1338
    SETDIJ:  cpu time    0.0129: real time    0.0130
     EDDAV:  cpu time  149.9638: real time  151.0130
 BZINTS: Fermi energy:  5.007126;688.000000 electrons
         Band energy:***********;  BLOECHL correction:  0.000000
       DOS:  cpu time    0.0060: real time    0.0060
    CHARGE:  cpu time    1.4030: real time    1.4113
    MIXING:  cpu time    0.0025: real time    0.0232
    --------------------------------------------
      LOOP:  cpu time  151.5195: real time  152.6004

 eigenvalue-minimisations  : 22272
 total energy-change (2. order) : 0.3356157E+01  (-0.2431514E+00)
 number of electron     688.0000435 magnetization       0.0000000
 augmentation part      282.0327480 magnetization       0.0000000

 Broyden mixing:
  rms(total) = 0.84069E+00    rms(broyden)= 0.84067E+00
  rms(prec ) = 0.94553E+00
  weight for this iteration     100.00

 eigenvalues of (default mixing * dielectric matrix)
  average eigenvalue GAMMA=   0.9404
  0.9404

 Free energy of the ion-electron system (eV)
  ---------------------------------------------------
  alpha Z        PSCENC =      2354.94880897
  Ewald energy   TEWEN  =    -62456.57705548
  -Hartree energ DENC   =    -42967.89196684
  -exchange      EXHF   =         0.00000000
  -V(xc)+E(xc)   XCENC  =      3286.55904531
  PAW double counting   =    112619.14497797  -116316.46839575
  entropy T*S    EENTRO =         0.00000000
  eigenvalues    EBANDS =    -10868.97641002
  atomic energy  EATOM  =    114020.06510763
  Solvation  Ediel_sol  =         0.00000000
  ---------------------------------------------------
  free energy    TOTEN  =      -329.19588822 eV

  energy without entropy =     -329.19588822  energy(sigma->0) =     -329.19588822


--------------------------------------------------------------------------------------------------------




--------------------------------------- Iteration      1(   7)  ---------------------------------------


    POTLOK:  cpu time    0.1310: real time    0.1346
    SETDIJ:  cpu time    0.0131: real time    0.0132
     EDDAV:  cpu time  183.8611: real time  185.1172
 BZINTS: Fermi energy:  4.809196;688.000000 electrons
         Band energy:***********;  BLOECHL correction:  0.000000
       DOS:  cpu time    0.0051: real time    0.0051
    CHARGE:  cpu time    1.4018: real time    1.4102
    MIXING:  cpu time    0.0019: real time    0.0041
    --------------------------------------------
      LOOP:  cpu time  185.4141: real time  186.6843

 eigenvalue-minimisations  : 26112
 total energy-change (2. order) : 0.1021661E+01  (-0.2589150E+00)
 number of electron     688.0000436 magnetization       0.0000000
 augmentation part      282.4281685 magnetization       0.0000000

 Broyden mixing:
  rms(total) = 0.53377E+00    rms(broyden)= 0.53376E+00
  rms(prec ) = 0.56877E+00
  weight for this iteration     100.00

 eigenvalues of (default mixing * dielectric matrix)
  average eigenvalue GAMMA=   1.0597
  1.5322  0.5873

 Free energy of the ion-electron system (eV)
  ---------------------------------------------------
  alpha Z        PSCENC =      2354.94880897
  Ewald energy   TEWEN  =    -62456.57705548
  -Hartree energ DENC   =    -42952.20284007
  -exchange      EXHF   =         0.00000000
  -V(xc)+E(xc)   XCENC  =      3286.57701483
  PAW double counting   =    112557.03451395  -116249.26512402
  entropy T*S    EENTRO =         0.00000000
  eigenvalues    EBANDS =    -10888.75465326
  atomic energy  EATOM  =    114020.06510763
  Solvation  Ediel_sol  =         0.00000000
  ---------------------------------------------------
  free energy    TOTEN  =      -328.17422745 eV

  energy without entropy =     -328.17422745  energy(sigma->0) =     -328.17422745


--------------------------------------------------------------------------------------------------------




--------------------------------------- Iteration      1(   8)  ---------------------------------------


    POTLOK:  cpu time    0.1313: real time    0.1346
    SETDIJ:  cpu time    0.0130: real time    0.0131
     EDDAV:  cpu time  158.0367: real time  159.1257
 BZINTS: Fermi energy:  4.787062;688.000000 electrons
         Band energy:***********;  BLOECHL correction:  0.000000
       DOS:  cpu time    0.0051: real time    0.0051
    CHARGE:  cpu time    1.4034: real time    1.4112
    MIXING:  cpu time    0.0016: real time    0.0016
    --------------------------------------------
      LOOP:  cpu time  159.5911: real time  160.6914

 eigenvalue-minimisations  : 22784
 total energy-change (2. order) : 0.4347040E-01  (-0.1033525E+00)
 number of electron     688.0000435 magnetization       0.0000000
 augmentation part      282.2599511 magnetization       0.0000000

 Broyden mixing:
  rms(total) = 0.31458E+00    rms(broyden)= 0.31458E+00
  rms(prec ) = 0.34214E+00
  weight for this iteration     100.00

 eigenvalues of (default mixing * dielectric matrix)
  average eigenvalue GAMMA=   1.0150
  1.9065  0.6997  0.4389

 Free energy of the ion-electron system (eV)
  ---------------------------------------------------
  alpha Z        PSCENC =      2354.94880897
  Ewald energy   TEWEN  =    -62456.57705548
  -Hartree energ DENC   =    -42953.33925968
  -exchange      EXHF   =         0.00000000
  -V(xc)+E(xc)   XCENC  =      3286.17857203
  PAW double counting   =    112474.14171523  -116168.32712224
  entropy T*S    EENTRO =         0.00000000
  eigenvalues    EBANDS =    -10885.22152348
  atomic energy  EATOM  =    114020.06510763
  Solvation  Ediel_sol  =         0.00000000
  ---------------------------------------------------
  free energy    TOTEN  =      -328.13075704 eV

  energy without entropy =     -328.13075704  energy(sigma->0) =     -328.13075704


--------------------------------------------------------------------------------------------------------




--------------------------------------- Iteration      1(   9)  ---------------------------------------


    POTLOK:  cpu time    0.1319: real time    0.1329
    SETDIJ:  cpu time    0.0131: real time    0.0132
     EDDAV:  cpu time  159.9693: real time  161.0649
 BZINTS: Fermi energy:  5.011264;688.000000 electrons
         Band energy:***********;  BLOECHL correction:  0.000000
       DOS:  cpu time    0.0058: real time    0.0058
    CHARGE:  cpu time    1.4129: real time    1.4213
    MIXING:  cpu time    0.0017: real time    0.0017
    --------------------------------------------
      LOOP:  cpu time  161.5347: real time  162.6399

 eigenvalue-minimisations  : 22784
 total energy-change (2. order) : 0.1277172E-01  (-0.4047610E-01)
 number of electron     688.0000435 magnetization       0.0000000
 augmentation part      282.2033922 magnetization       0.0000000

 Broyden mixing:
  rms(total) = 0.14737E+00    rms(broyden)= 0.14736E+00
  rms(prec ) = 0.16220E+00
  weight for this iteration     100.00

 eigenvalues of (default mixing * dielectric matrix)
  average eigenvalue GAMMA=   0.9857
  1.8932  0.9815  0.6751  0.3930

 Free energy of the ion-electron system (eV)
  ---------------------------------------------------
  alpha Z        PSCENC =      2354.94880897
  Ewald energy   TEWEN  =    -62456.57705548
  -Hartree energ DENC   =    -42964.26202605
  -exchange      EXHF   =         0.00000000
  -V(xc)+E(xc)   XCENC  =      3286.67274699
  PAW double counting   =    112434.38432136  -116129.12232759
  entropy T*S    EENTRO =         0.00000000
  eigenvalues    EBANDS =    -10874.22756115
  atomic energy  EATOM  =    114020.06510763
  Solvation  Ediel_sol  =         0.00000000
  ---------------------------------------------------
  free energy    TOTEN  =      -328.11798533 eV

  energy without entropy =     -328.11798533  energy(sigma->0) =     -328.11798533


--------------------------------------------------------------------------------------------------------




--------------------------------------- Iteration      1(  10)  ---------------------------------------


    POTLOK:  cpu time    0.1315: real time    0.1325
    SETDIJ:  cpu time    0.0128: real time    0.0129
     EDDAV:  cpu time  119.4382: real time  120.3054
 BZINTS: Fermi energy:  4.996646;688.000000 electrons
         Band energy:***********;  BLOECHL correction:  0.000000
       DOS:  cpu time    0.0057: real time    0.0058
    CHARGE:  cpu time    1.4142: real time    1.4226
    MIXING:  cpu time    0.0018: real time    0.0018
    --------------------------------------------
      LOOP:  cpu time  121.0043: real time  121.8810

 eigenvalue-minimisations  : 19456
 total energy-change (2. order) :-0.1144659E-02  (-0.1349250E-01)
 number of electron     688.0000435 magnetization       0.0000000
 augmentation part      282.2072294 magnetization       0.0000000

 Broyden mixing:
  rms(total) = 0.99838E-01    rms(broyden)= 0.99836E-01
  rms(prec ) = 0.11141E+00
  weight for this iteration     100.00

 eigenvalues of (default mixing * dielectric matrix)
  average eigenvalue GAMMA=   1.0236
  1.7459  1.7459  0.6955  0.5886  0.3422

 Free energy of the ion-electron system (eV)
  ---------------------------------------------------
  alpha Z        PSCENC =      2354.94880897
  Ewald energy   TEWEN  =    -62456.57705548
  -Hartree energ DENC   =    -42958.90733368
  -exchange      EXHF   =         0.00000000
  -V(xc)+E(xc)   XCENC  =      3286.37801934
  PAW double counting   =    112368.35927455  -116062.42392845
  entropy T*S    EENTRO =         0.00000000
  eigenvalues    EBANDS =    -10879.96202286
  atomic energy  EATOM  =    114020.06510763
  Solvation  Ediel_sol  =         0.00000000
  ---------------------------------------------------
  free energy    TOTEN  =      -328.11912998 eV

  energy without entropy =     -328.11912998  energy(sigma->0) =     -328.11912998


--------------------------------------------------------------------------------------------------------




--------------------------------------- Iteration      1(  11)  ---------------------------------------


    POTLOK:  cpu time    0.1340: real time    0.1349
    SETDIJ:  cpu time    0.0134: real time    0.0135
     EDDAV:  cpu time  184.9854: real time  186.2362
 BZINTS: Fermi energy:  4.996009;688.000000 electrons
         Band energy:***********;  BLOECHL correction:  0.000000
       DOS:  cpu time    0.0057: real time    0.0057
    CHARGE:  cpu time    1.4102: real time    1.4189
    MIXING:  cpu time    0.0018: real time    0.0018
    --------------------------------------------
      LOOP:  cpu time  186.5505: real time  187.8111

 eigenvalue-minimisations  : 25600
 total energy-change (2. order) :-0.1002062E-02  (-0.4510373E-02)
 number of electron     688.0000435 magnetization       0.0000000
 augmentation part      282.2372056 magnetization       0.0000000

 Broyden mixing:
  rms(total) = 0.40137E-01    rms(broyden)= 0.40135E-01
  rms(prec ) = 0.42667E-01
  weight for this iteration     100.00

 eigenvalues of (default mixing * dielectric matrix)
  average eigenvalue GAMMA=   1.1737
  2.2143  2.2143  1.0059  0.6766  0.5958  0.3355

 Free energy of the ion-electron system (eV)
  ---------------------------------------------------
  alpha Z        PSCENC =      2354.94880897
  Ewald energy   TEWEN  =    -62456.57705548
  -Hartree energ DENC   =    -42959.99757501
  -exchange      EXHF   =         0.00000000
  -V(xc)+E(xc)   XCENC  =      3286.48900620
  PAW double counting   =    112316.15896026  -116010.07798773
  entropy T*S    EENTRO =         0.00000000
  eigenvalues    EBANDS =    -10879.12939688
  atomic energy  EATOM  =    114020.06510763
  Solvation  Ediel_sol  =         0.00000000
  ---------------------------------------------------
  free energy    TOTEN  =      -328.12013205 eV

  energy without entropy =     -328.12013205  energy(sigma->0) =     -328.12013205


--------------------------------------------------------------------------------------------------------




--------------------------------------- Iteration      1(  12)  ---------------------------------------


    POTLOK:  cpu time    0.1307: real time    0.1326
    SETDIJ:  cpu time    0.0132: real time    0.0132
     EDDAV:  cpu time  140.4287: real time  141.4070
 BZINTS: Fermi energy:  4.993304;688.000000 electrons
         Band energy:***********;  BLOECHL correction:  0.000000
       DOS:  cpu time    0.0058: real time    0.0058
    CHARGE:  cpu time    1.4022: real time    1.4104
    MIXING:  cpu time    0.0021: real time    0.0035
    --------------------------------------------
      LOOP:  cpu time  141.9826: real time  142.9726

 eigenvalue-minimisations  : 20736
 total energy-change (2. order) :-0.1873740E-02  (-0.7047439E-03)
 number of electron     688.0000435 magnetization       0.0000000
 augmentation part      282.2096542 magnetization       0.0000000

 Broyden mixing:
  rms(total) = 0.14592E-01    rms(broyden)= 0.14591E-01
  rms(prec ) = 0.15768E-01
  weight for this iteration     100.00

 eigenvalues of (default mixing * dielectric matrix)
  average eigenvalue GAMMA=   1.1420
  2.2620  2.2620  1.0392  0.7599  0.6675  0.6675  0.3360

 Free energy of the ion-electron system (eV)
  ---------------------------------------------------
  alpha Z        PSCENC =      2354.94880897
  Ewald energy   TEWEN  =    -62456.57705548
  -Hartree energ DENC   =    -42961.33699849
  -exchange      EXHF   =         0.00000000
  -V(xc)+E(xc)   XCENC  =      3286.49934878
  PAW double counting   =    112282.26387695  -115976.40323522
  entropy T*S    EENTRO =         0.00000000
  eigenvalues    EBANDS =    -10877.58185891
  atomic energy  EATOM  =    114020.06510763
  Solvation  Ediel_sol  =         0.00000000
  ---------------------------------------------------
  free energy    TOTEN  =      -328.12200579 eV

  energy without entropy =     -328.12200579  energy(sigma->0) =     -328.12200579


--------------------------------------------------------------------------------------------------------




--------------------------------------- Iteration      1(  13)  ---------------------------------------


    POTLOK:  cpu time    0.1321: real time    0.1330
    SETDIJ:  cpu time    0.0130: real time    0.0131
     EDDAV:  cpu time  142.8642: real time  143.8695
 BZINTS: Fermi energy:  4.990859;688.000000 electrons
         Band energy:***********;  BLOECHL correction:  0.000000
       DOS:  cpu time    0.0057: real time    0.0058
    CHARGE:  cpu time    1.4124: real time    1.4209
    MIXING:  cpu time    0.0017: real time    0.0018
    --------------------------------------------
      LOOP:  cpu time  144.4292: real time  145.4440

 eigenvalue-minimisations  : 20992
 total energy-change (2. order) :-0.2742239E-03  (-0.1089303E-03)
 number of electron     688.0000435 magnetization       0.0000000
 augmentation part      282.2248185 magnetization       0.0000000

 Broyden mixing:
  rms(total) = 0.90893E-02    rms(broyden)= 0.90890E-02
  rms(prec ) = 0.98358E-02
  weight for this iteration     100.00

 eigenvalues of (default mixing * dielectric matrix)
  average eigenvalue GAMMA=   1.1257
  2.2877  2.2877  1.0878  1.0878  0.3364  0.6215  0.6215  0.6754

 Free energy of the ion-electron system (eV)
  ---------------------------------------------------
  alpha Z        PSCENC =      2354.94880897
  Ewald energy   TEWEN  =    -62456.57705548
  -Hartree energ DENC   =    -42960.16949969
  -exchange      EXHF   =         0.00000000
  -V(xc)+E(xc)   XCENC  =      3286.47053534
  PAW double counting   =    112274.16439122  -115968.08040000
  entropy T*S    EENTRO =         0.00000000
  eigenvalues    EBANDS =    -10878.94416799
  atomic energy  EATOM  =    114020.06510763
  Solvation  Ediel_sol  =         0.00000000
  ---------------------------------------------------
  free energy    TOTEN  =      -328.12228001 eV

  energy without entropy =     -328.12228001  energy(sigma->0) =     -328.12228001


--------------------------------------------------------------------------------------------------------




--------------------------------------- Iteration      1(  14)  ---------------------------------------


    POTLOK:  cpu time    0.1313: real time    0.1323
    SETDIJ:  cpu time    0.0130: real time    0.0130
     EDDAV:  cpu time  164.9095: real time  166.0351
 BZINTS: Fermi energy:  4.990405;688.000000 electrons
         Band energy:***********;  BLOECHL correction:  0.000000
       DOS:  cpu time    0.0057: real time    0.0057
    CHARGE:  cpu time    1.4173: real time    1.4265
    MIXING:  cpu time    0.0020: real time    0.0020
    --------------------------------------------
      LOOP:  cpu time  166.4787: real time  167.6146

 eigenvalue-minimisations  : 23552
 total energy-change (2. order) :-0.1789438E-03  (-0.5898715E-04)
 number of electron     688.0000435 magnetization      -0.0000000
 augmentation part      282.2199640 magnetization      -0.0000000

 Broyden mixing:
  rms(total) = 0.47273E-02    rms(broyden)= 0.47271E-02
  rms(prec ) = 0.49592E-02
  weight for this iteration     100.00

 eigenvalues of (default mixing * dielectric matrix)
  average eigenvalue GAMMA=   1.2011
  2.4563  2.4563  1.4784  1.4784  0.3365  0.7272  0.6727  0.6018  0.6018

 Free energy of the ion-electron system (eV)
  ---------------------------------------------------
  alpha Z        PSCENC =      2354.94880897
  Ewald energy   TEWEN  =    -62456.57705548
  -Hartree energ DENC   =    -42960.67212811
  -exchange      EXHF   =         0.00000000
  -V(xc)+E(xc)   XCENC  =      3286.48524971
  PAW double counting   =    112271.57700480  -115965.59872305
  entropy T*S    EENTRO =         0.00000000
  eigenvalues    EBANDS =    -10878.35072342
  atomic energy  EATOM  =    114020.06510763
  Solvation  Ediel_sol  =         0.00000000
  ---------------------------------------------------
  free energy    TOTEN  =      -328.12245895 eV

  energy without entropy =     -328.12245895  energy(sigma->0) =     -328.12245895


--------------------------------------------------------------------------------------------------------




--------------------------------------- Iteration      1(  15)  ---------------------------------------


    POTLOK:  cpu time    0.1304: real time    0.1353
    SETDIJ:  cpu time    0.0130: real time    0.0131
     EDDAV:  cpu time  162.1428: real time  163.2349
 BZINTS: Fermi energy:  4.989599;688.000000 electrons
         Band energy:***********;  BLOECHL correction:  0.000000
       DOS:  cpu time    0.0057: real time    0.0057
    CHARGE:  cpu time    1.4031: real time    1.4122
    MIXING:  cpu time    0.0020: real time    0.0020
    --------------------------------------------
      LOOP:  cpu time  163.6971: real time  164.8032

 eigenvalue-minimisations  : 22784
 total energy-change (2. order) :-0.1024406E-03  (-0.2892524E-04)
 number of electron     688.0000435 magnetization       0.0000000
 augmentation part      282.2189840 magnetization       0.0000000

 Broyden mixing:
  rms(total) = 0.25658E-02    rms(broyden)= 0.25655E-02
  rms(prec ) = 0.27197E-02
  weight for this iteration     100.00

 eigenvalues of (default mixing * dielectric matrix)
  average eigenvalue GAMMA=   1.2256
  2.8508  2.2538  1.9330  1.1594  1.1594  0.3365  0.7046  0.6360  0.6113  0.6113

 Free energy of the ion-electron system (eV)
  ---------------------------------------------------
  alpha Z        PSCENC =      2354.94880897
  Ewald energy   TEWEN  =    -62456.57705548
  -Hartree energ DENC   =    -42960.67689658
  -exchange      EXHF   =         0.00000000
  -V(xc)+E(xc)   XCENC  =      3286.48425263
  PAW double counting   =    112270.58560341  -115964.60492294
  entropy T*S    EENTRO =         0.00000000
  eigenvalues    EBANDS =    -10878.34745901
  atomic energy  EATOM  =    114020.06510763
  Solvation  Ediel_sol  =         0.00000000
  ---------------------------------------------------
  free energy    TOTEN  =      -328.12256139 eV

  energy without entropy =     -328.12256139  energy(sigma->0) =     -328.12256139


--------------------------------------------------------------------------------------------------------




--------------------------------------- Iteration      1(  16)  ---------------------------------------


    POTLOK:  cpu time    0.1281: real time    0.1320
    SETDIJ:  cpu time    0.0130: real time    0.0130
     EDDAV:  cpu time  113.9302: real time  114.7503
 BZINTS: Fermi energy:  4.989487;688.000000 electrons
         Band energy:***********;  BLOECHL correction:  0.000000
       DOS:  cpu time    0.0058: real time    0.0058
    CHARGE:  cpu time    1.4428: real time    1.4513
    MIXING:  cpu time    0.0022: real time    0.0030
    --------------------------------------------
      LOOP:  cpu time  115.5221: real time  116.3555

 eigenvalue-minimisations  : 18432
 total energy-change (2. order) :-0.3757833E-04  (-0.1086485E-04)
 number of electron     688.0000435 magnetization       0.0000000
 augmentation part      282.2208782 magnetization       0.0000000

 Broyden mixing:
  rms(total) = 0.17655E-02    rms(broyden)= 0.17653E-02
  rms(prec ) = 0.18804E-02
  weight for this iteration     100.00

 eigenvalues of (default mixing * dielectric matrix)
  average eigenvalue GAMMA=   1.3148
  3.3527  2.2233  2.2233  1.4563  1.4563  0.3365  0.8714  0.6058  0.6058  0.7045
  0.6274

 Free energy of the ion-electron system (eV)
  ---------------------------------------------------
  alpha Z        PSCENC =      2354.94880897
  Ewald energy   TEWEN  =    -62456.57705548
  -Hartree energ DENC   =    -42960.59764330
  -exchange      EXHF   =         0.00000000
  -V(xc)+E(xc)   XCENC  =      3286.48311899
  PAW double counting   =    112270.41156378  -115964.41453777
  entropy T*S    EENTRO =         0.00000000
  eigenvalues    EBANDS =    -10878.44196179
  atomic energy  EATOM  =    114020.06510763
  Solvation  Ediel_sol  =         0.00000000
  ---------------------------------------------------
  free energy    TOTEN  =      -328.12259897 eV

  energy without entropy =     -328.12259897  energy(sigma->0) =     -328.12259897


--------------------------------------------------------------------------------------------------------




--------------------------------------- Iteration      1(  17)  ---------------------------------------


    POTLOK:  cpu time    0.1343: real time    0.1366
    SETDIJ:  cpu time    0.0137: real time    0.0138
     EDDAV:  cpu time  150.6014: real time  151.6229
 BZINTS: Fermi energy:  4.989421;688.000000 electrons
         Band energy:***********;  BLOECHL correction:  0.000000
       DOS:  cpu time    0.0057: real time    0.0057
    CHARGE:  cpu time    1.4120: real time    1.4212
    MIXING:  cpu time    0.0021: real time    0.0022
    --------------------------------------------
      LOOP:  cpu time  152.1693: real time  153.2024

 eigenvalue-minimisations  : 21504
 total energy-change (2. order) :-0.2077121E-04  (-0.1202908E-04)
 number of electron     688.0000435 magnetization       0.0000000
 augmentation part      282.2198344 magnetization       0.0000000

 Broyden mixing:
  rms(total) = 0.80950E-03    rms(broyden)= 0.80913E-03
  rms(prec ) = 0.86955E-03
  weight for this iteration     100.00

 eigenvalues of (default mixing * dielectric matrix)
  average eigenvalue GAMMA=   1.3854
  4.2037  2.3580  2.3580  1.5564  1.5564  1.0202  0.3365  0.6036  0.6036  0.7234
  0.6854  0.6196

 Free energy of the ion-electron system (eV)
  ---------------------------------------------------
  alpha Z        PSCENC =      2354.94880897
  Ewald energy   TEWEN  =    -62456.57705548
  -Hartree energ DENC   =    -42960.63743428
  -exchange      EXHF   =         0.00000000
  -V(xc)+E(xc)   XCENC  =      3286.48350694
  PAW double counting   =    112271.03433408  -115965.03828244
  entropy T*S    EENTRO =         0.00000000
  eigenvalues    EBANDS =    -10878.40160515
  atomic energy  EATOM  =    114020.06510763
  Solvation  Ediel_sol  =         0.00000000
  ---------------------------------------------------
  free energy    TOTEN  =      -328.12261974 eV

  energy without entropy =     -328.12261974  energy(sigma->0) =     -328.12261974


--------------------------------------------------------------------------------------------------------




--------------------------------------- Iteration      1(  18)  ---------------------------------------


    POTLOK:  cpu time    0.1313: real time    0.1323
    SETDIJ:  cpu time    0.0131: real time    0.0132
     EDDAV:  cpu time  109.2934: real time  110.0836
 BZINTS: Fermi energy:  4.989397;688.000000 electrons
         Band energy:***********;  BLOECHL correction:  0.000000
       DOS:  cpu time    0.0058: real time    0.0058
    CHARGE:  cpu time    1.4113: real time    1.4191
    MIXING:  cpu time    0.0023: real time    0.0023
    --------------------------------------------
      LOOP:  cpu time  110.8571: real time  111.6564

 eigenvalue-minimisations  : 17920
 total energy-change (2. order) :-0.3240857E-05  (-0.2180524E-05)
 number of electron     688.0000435 magnetization       0.0000000
 augmentation part      282.2203056 magnetization       0.0000000

 Broyden mixing:
  rms(total) = 0.46282E-03    rms(broyden)= 0.46265E-03
  rms(prec ) = 0.48569E-03
  weight for this iteration     100.00

 eigenvalues of (default mixing * dielectric matrix)
  average eigenvalue GAMMA=   1.3583
  4.3394  2.4031  2.4031  1.6974  1.1625  1.1625  0.3365  0.9640  0.6007  0.6007
  0.7270  0.6476  0.6135

 Free energy of the ion-electron system (eV)
  ---------------------------------------------------
  alpha Z        PSCENC =      2354.94880897
  Ewald energy   TEWEN  =    -62456.57705548
  -Hartree energ DENC   =    -42960.62077724
  -exchange      EXHF   =         0.00000000
  -V(xc)+E(xc)   XCENC  =      3286.48325473
  PAW double counting   =    112271.35285621  -115965.35666050
  entropy T*S    EENTRO =         0.00000000
  eigenvalues    EBANDS =    -10878.41815730
  atomic energy  EATOM  =    114020.06510763
  Solvation  Ediel_sol  =         0.00000000
  ---------------------------------------------------
  free energy    TOTEN  =      -328.12262298 eV

  energy without entropy =     -328.12262298  energy(sigma->0) =     -328.12262298


--------------------------------------------------------------------------------------------------------




--------------------------------------- Iteration      1(  19)  ---------------------------------------


    POTLOK:  cpu time    0.1314: real time    0.1332
    SETDIJ:  cpu time    0.0129: real time    0.0130
     EDDAV:  cpu time  149.0836: real time  150.0961
 BZINTS: Fermi energy:  4.989389;688.000000 electrons
         Band energy:***********;  BLOECHL correction:  0.000000
       DOS:  cpu time    0.0057: real time    0.0058
    CHARGE:  cpu time    1.4131: real time    1.4222
    MIXING:  cpu time    0.0024: real time    0.0024
    --------------------------------------------
      LOOP:  cpu time  150.6490: real time  151.6726

 eigenvalue-minimisations  : 21248
 total energy-change (2. order) :-0.2859451E-06  (-0.1034369E-06)
 number of electron     688.0000435 magnetization       0.0000000
 augmentation part      282.2201941 magnetization       0.0000000

 Broyden mixing:
[...]
   -.422E+02 0.121E+01 -.111E+00   0.430E+02 -.122E+01 0.112E+00   -.862E+00 0.786E-02 -.136E-02   -.580E-05 -.122E-04 -.110E-05
   -.422E+02 0.121E+01 -.111E+00   0.430E+02 -.122E+01 0.112E+00   -.862E+00 0.786E-02 -.136E-02   -.578E-05 -.122E-04 -.110E-05
   -.422E+02 0.121E+01 -.111E+00   0.430E+02 -.122E+01 0.112E+00   -.862E+00 0.786E-02 -.136E-02   -.580E-05 -.121E-04 -.110E-05
   -.422E+02 0.121E+01 -.111E+00   0.430E+02 -.122E+01 0.112E+00   -.862E+00 0.786E-02 -.136E-02   -.578E-05 -.121E-04 -.110E-05
   0.422E+02 0.121E+01 0.111E+00   -.430E+02 -.122E+01 -.112E+00   0.862E+00 0.786E-02 0.136E-02   0.579E-05 -.122E-04 0.110E-05
   0.422E+02 0.121E+01 0.111E+00   -.430E+02 -.122E+01 -.112E+00   0.862E+00 0.786E-02 0.136E-02   0.579E-05 -.122E-04 0.110E-05
   0.422E+02 0.121E+01 0.111E+00   -.430E+02 -.122E+01 -.112E+00   0.862E+00 0.786E-02 0.136E-02   0.579E-05 -.122E-04 0.110E-05
   0.422E+02 0.121E+01 0.111E+00   -.430E+02 -.122E+01 -.112E+00   0.862E+00 0.786E-02 0.136E-02   0.579E-05 -.122E-04 0.110E-05
   0.463E-07 -.412E+02 0.230E-06   -.604E-13 0.421E+02 -.320E-13   -.140E-24 -.854E+00 0.310E-24   -.346E-09 -.199E-04 0.342E-08
   0.463E-07 -.412E+02 0.230E-06   -.391E-13 0.421E+02 -.666E-13   0.760E-24 -.854E+00 -.155E-24   0.237E-09 -.199E-04 -.342E-08
   0.463E-07 -.412E+02 0.230E-06   -.568E-13 0.421E+02 -.568E-13   -.224E-24 -.854E+00 0.775E-25   -.346E-09 -.199E-04 0.342E-08
   0.463E-07 -.412E+02 0.230E-06   -.639E-13 0.421E+02 -.924E-13   -.351E-24 -.854E+00 0.000E+00   0.237E-09 -.199E-04 -.342E-08
   0.331E-07 0.431E+02 -.215E-06   0.568E-13 -.440E+02 0.249E-13   0.112E-24 0.870E+00 0.517E-25   -.123E-07 -.271E-05 0.144E-10
   0.331E-07 0.431E+02 -.215E-06   0.639E-13 -.440E+02 0.568E-13   0.841E-24 0.870E+00 0.517E-25   0.123E-07 -.271E-05 -.113E-10
   0.331E-07 0.431E+02 -.215E-06   0.497E-13 -.440E+02 -.355E-14   0.682E-24 0.870E+00 -.155E-24   -.123E-07 -.271E-05 0.144E-10
   0.331E-07 0.431E+02 -.215E-06   0.284E-13 -.440E+02 0.000E+00   -.568E-24 0.870E+00 0.517E-25   0.123E-07 -.271E-05 -.113E-10
   0.260E+00 -.115E+01 0.279E-01   -.257E+00 0.110E+01 -.284E-01   -.362E-02 0.466E-01 0.369E-03   0.155E-04 -.611E-04 0.139E-05
   0.260E+00 -.115E+01 0.279E-01   -.257E+00 0.110E+01 -.284E-01   -.362E-02 0.466E-01 0.369E-03   0.156E-04 -.611E-04 0.140E-05
   0.260E+00 -.115E+01 0.279E-01   -.257E+00 0.110E+01 -.284E-01   -.362E-02 0.466E-01 0.369E-03   0.155E-04 -.610E-04 0.138E-05
   0.260E+00 -.115E+01 0.279E-01   -.257E+00 0.110E+01 -.284E-01   -.362E-02 0.466E-01 0.369E-03   0.156E-04 -.610E-04 0.139E-05
   -.260E+00 -.115E+01 -.279E-01   0.257E+00 0.110E+01 0.284E-01   0.362E-02 0.466E-01 -.369E-03   -.156E-04 -.611E-04 -.139E-05
   -.260E+00 -.115E+01 -.279E-01   0.257E+00 0.110E+01 0.284E-01   0.362E-02 0.466E-01 -.369E-03   -.155E-04 -.611E-04 -.140E-05
   -.260E+00 -.115E+01 -.279E-01   0.257E+00 0.110E+01 0.284E-01   0.362E-02 0.466E-01 -.369E-03   -.156E-04 -.610E-04 -.138E-05
   -.260E+00 -.115E+01 -.279E-01   0.257E+00 0.110E+01 0.284E-01   0.362E-02 0.466E-01 -.369E-03   -.155E-04 -.610E-04 -.139E-05
   0.260E+00 -.115E+01 0.279E-01   -.257E+00 0.110E+01 -.284E-01   -.362E-02 0.466E-01 0.369E-03   0.155E-04 -.611E-04 0.139E-05
   0.260E+00 -.115E+01 0.279E-01   -.257E+00 0.110E+01 -.284E-01   -.362E-02 0.466E-01 0.369E-03   0.156E-04 -.611E-04 0.140E-05
   0.260E+00 -.115E+01 0.279E-01   -.257E+00 0.110E+01 -.284E-01   -.362E-02 0.466E-01 0.369E-03   0.155E-04 -.610E-04 0.138E-05
   0.260E+00 -.115E+01 0.279E-01   -.257E+00 0.110E+01 -.284E-01   -.362E-02 0.466E-01 0.369E-03   0.156E-04 -.610E-04 0.139E-05
   -.260E+00 -.115E+01 -.279E-01   0.257E+00 0.110E+01 0.284E-01   0.362E-02 0.466E-01 -.369E-03   -.156E-04 -.611E-04 -.139E-05
   -.260E+00 -.115E+01 -.279E-01   0.257E+00 0.110E+01 0.284E-01   0.362E-02 0.466E-01 -.369E-03   -.155E-04 -.611E-04 -.140E-05
   -.260E+00 -.115E+01 -.279E-01   0.257E+00 0.110E+01 0.284E-01   0.362E-02 0.466E-01 -.369E-03   -.156E-04 -.610E-04 -.138E-05
   -.260E+00 -.115E+01 -.279E-01   0.257E+00 0.110E+01 0.284E-01   0.362E-02 0.466E-01 -.369E-03   -.155E-04 -.610E-04 -.139E-05
   -.299E+00 -.113E+01 0.276E-01   0.292E+00 0.107E+01 -.284E-01   0.638E-02 0.616E-01 0.419E-03   -.457E-05 -.357E-04 0.188E-05
   -.299E+00 -.113E+01 0.276E-01   0.292E+00 0.107E+01 -.284E-01   0.638E-02 0.616E-01 0.419E-03   -.452E-05 -.357E-04 0.188E-05
   -.299E+00 -.113E+01 0.276E-01   0.292E+00 0.107E+01 -.284E-01   0.638E-02 0.616E-01 0.419E-03   -.457E-05 -.356E-04 0.189E-05
   -.299E+00 -.113E+01 0.276E-01   0.292E+00 0.107E+01 -.284E-01   0.638E-02 0.616E-01 0.419E-03   -.452E-05 -.356E-04 0.188E-05
   0.299E+00 -.113E+01 -.276E-01   -.292E+00 0.107E+01 0.284E-01   -.638E-02 0.616E-01 -.419E-03   0.453E-05 -.357E-04 -.188E-05
   0.299E+00 -.113E+01 -.276E-01   -.292E+00 0.107E+01 0.284E-01   -.638E-02 0.616E-01 -.419E-03   0.456E-05 -.357E-04 -.188E-05
   0.299E+00 -.113E+01 -.276E-01   -.292E+00 0.107E+01 0.284E-01   -.638E-02 0.616E-01 -.419E-03   0.453E-05 -.356E-04 -.189E-05
   0.299E+00 -.113E+01 -.276E-01   -.292E+00 0.107E+01 0.284E-01   -.638E-02 0.616E-01 -.419E-03   0.457E-05 -.356E-04 -.188E-05
   -.299E+00 -.113E+01 0.276E-01   0.292E+00 0.107E+01 -.284E-01   0.638E-02 0.616E-01 0.419E-03   -.457E-05 -.356E-04 0.188E-05
   -.299E+00 -.113E+01 0.276E-01   0.292E+00 0.107E+01 -.284E-01   0.638E-02 0.616E-01 0.419E-03   -.453E-05 -.356E-04 0.187E-05
   -.299E+00 -.113E+01 0.276E-01   0.292E+00 0.107E+01 -.284E-01   0.638E-02 0.616E-01 0.419E-03   -.457E-05 -.356E-04 0.189E-05
   -.299E+00 -.113E+01 0.276E-01   0.292E+00 0.107E+01 -.284E-01   0.638E-02 0.616E-01 0.419E-03   -.453E-05 -.356E-04 0.188E-05
   0.299E+00 -.113E+01 -.276E-01   -.292E+00 0.107E+01 0.284E-01   -.638E-02 0.616E-01 -.419E-03   0.452E-05 -.356E-04 -.188E-05
   0.299E+00 -.113E+01 -.276E-01   -.292E+00 0.107E+01 0.284E-01   -.638E-02 0.616E-01 -.419E-03   0.457E-05 -.356E-04 -.188E-05
   0.299E+00 -.113E+01 -.276E-01   -.292E+00 0.107E+01 0.284E-01   -.638E-02 0.616E-01 -.419E-03   0.452E-05 -.356E-04 -.189E-05
   0.299E+00 -.113E+01 -.276E-01   -.292E+00 0.107E+01 0.284E-01   -.638E-02 0.616E-01 -.419E-03   0.457E-05 -.356E-04 -.188E-05
 -----------------------------------------------------------------------------------------------
   0.576E-06 -.198E+01 0.746E-04   -.918E-13 -.295E-13 -.561E-12   0.774E-15 0.198E+01 0.363E-17   -.138E-10 -.192E-02 -.240E-10
 
 
 POSITION                                       TOTAL-FORCE (eV/Angst)
 -----------------------------------------------------------------------------------
      1.32893      1.31223      1.30402        -0.000303     -0.000102      0.000008
      6.58682      1.31223      1.31319        -0.000303     -0.000102      0.000008
      1.32893      6.57026      1.30402        -0.000303     -0.000102      0.000008
      6.58682      6.57026      1.31319        -0.000303     -0.000102      0.000008
      3.93350      3.94125      1.30783         0.000303     -0.000102     -0.000008
      9.19138      3.94125      1.31701         0.000303     -0.000102     -0.000008
      3.93350      9.19927      1.30783         0.000303     -0.000102     -0.000008
      9.19138      9.19927      1.31701         0.000303     -0.000102     -0.000008
      1.33037      3.92975      9.11165         0.000000      0.000188      0.000000
      6.58826      3.92975      9.12083         0.000000      0.000188      0.000000
      1.33037      9.18778      9.11165         0.000000      0.000188      0.000000
      6.58826      9.18778      9.12083         0.000000      0.000188      0.000000
      3.95931      1.32500      9.11624         0.000000     -0.000275      0.000000
      9.21720      1.32500      9.12542         0.000000     -0.000275      0.000000
      3.95931      6.58302      9.11624         0.000000     -0.000275      0.000000
      9.21720      6.58302      9.12542         0.000000     -0.000275      0.000000
      1.31364      1.31223      6.50859         0.000303     -0.000102     -0.000008
      6.57153      1.31223      6.51777         0.000303     -0.000102     -0.000008
      1.31364      6.57026      6.50859         0.000303     -0.000102     -0.000008
      6.57153      6.57026      6.51777         0.000303     -0.000102     -0.000008
      3.96696      3.94125      6.51395        -0.000303     -0.000102      0.000008
      9.22485      3.94125      6.52313        -0.000303     -0.000102      0.000008
      3.96696      9.19927      6.51395        -0.000303     -0.000102      0.000008
      9.22485      9.19927      6.52313        -0.000303     -0.000102      0.000008
      3.95023      1.30074      3.91089         0.000000      0.000188      0.000000
      9.20812      1.30074      3.92007         0.000000      0.000188      0.000000
      3.95023      6.55876      3.91089         0.000000      0.000188      0.000000
      9.20812      6.55876      3.92007         0.000000      0.000188      0.000000
      1.32129      3.95401      3.90630         0.000000     -0.000275      0.000000
      6.57917      3.95401      3.91548         0.000000     -0.000275      0.000000
      1.32129      9.21204      3.90630         0.000000     -0.000275      0.000000
      6.57917      9.21204      3.91548         0.000000     -0.000275      0.000000
     10.52420      0.00200      5.22370        -0.000197      0.000041     -0.000164
      5.26631      0.00200      5.21452        -0.000197      0.000041     -0.000164
     10.52420      5.26002      5.22370        -0.000197      0.000041     -0.000164
      5.26631      5.26002      5.21452        -0.000197      0.000041     -0.000164
      2.63415      0.00200      2.60726         0.000197      0.000041      0.000164
      7.89204      0.00200      2.61644         0.000197      0.000041      0.000164
      2.63415      5.26002      2.60726         0.000197      0.000041      0.000164
      7.89204      5.26002      2.61644         0.000197      0.000041      0.000164
      2.62828      2.63101      0.00459        -0.000197      0.000041     -0.000164
      7.88617      2.63101      0.01376        -0.000197      0.000041     -0.000164
      2.62828      7.88903      0.00459        -0.000197      0.000041     -0.000164
      7.88617      7.88903      0.01376        -0.000197      0.000041     -0.000164
      0.01429      2.63101      7.80802         0.000197      0.000041      0.000164
      5.27218      2.63101      7.81720         0.000197      0.000041      0.000164
      0.01429      7.88903      7.80802         0.000197      0.000041      0.000164
      5.27218      7.88903      7.81720         0.000197      0.000041      0.000164
     10.51545      0.00191      0.01841        -0.000051      0.000104     -0.000349
      5.25756      0.00191      0.00924        -0.000051      0.000104     -0.000349
     10.51545      5.25994      0.01841        -0.000051      0.000104     -0.000349
      5.25756      5.25994      0.00924        -0.000051      0.000104     -0.000349
      2.64290      0.00191      7.81255         0.000051      0.000104      0.000349
      7.90078      0.00191      7.82172         0.000051      0.000104      0.000349
      2.64290      5.25994      7.81255         0.000051      0.000104      0.000349
      7.90078      5.25994      7.82172         0.000051      0.000104      0.000349
      2.63770      2.63093      5.21000        -0.000051      0.000104     -0.000349
      7.89559      2.63093      5.21917        -0.000051      0.000104     -0.000349
      2.63770      7.88895      5.21000        -0.000051      0.000104     -0.000349
      7.89559      7.88895      5.21917        -0.000051      0.000104     -0.000349
      0.00487      2.63093      2.60261         0.000051      0.000104      0.000349
      5.26276      2.63093      2.61179         0.000051      0.000104      0.000349
      0.00487      7.88895      2.60261         0.000051      0.000104      0.000349
      5.26276      7.88895      2.61179         0.000051      0.000104      0.000349
 -----------------------------------------------------------------------------------
    total drift:                                0.000001     -0.002048      0.000075


--------------------------------------------------------------------------------------------------------



  FREE ENERGIE OF THE ION-ELECTRON SYSTEM (eV)
  ---------------------------------------------------
  free  energy   TOTEN  =      -328.12262345 eV

  energy  without entropy=     -328.12262345  energy(sigma->0) =     -328.12262345
 


--------------------------------------------------------------------------------------------------------


    POTLOK:  cpu time    0.1408: real time    0.1416


--------------------------------------------------------------------------------------------------------


 writing wavefunctions
     LOOP+:  cpu time 3350.4463: real time 3373.9940
    4ORBIT:  cpu time    0.0000: real time    0.0000
 


 total charge     
 
# of ion       s       p       d       tot
------------------------------------------
    1        1.313   2.410   0.000   3.724
    2        1.313   2.410   0.000   3.724
    3        1.313   2.410   0.000   3.724
    4        1.313   2.410   0.000   3.724
    5        1.313   2.410   0.000   3.724
    6        1.313   2.410   0.000   3.724
    7        1.313   2.410   0.000   3.724
    8        1.313   2.410   0.000   3.724
    9        1.313   2.410   0.000   3.724
   10        1.313   2.410   0.000   3.724
   11        1.313   2.410   0.000   3.724
   12        1.313   2.410   0.000   3.724
   13        1.313   2.410   0.000   3.724
   14        1.313   2.410   0.000   3.724
   15        1.313   2.410   0.000   3.724
   16        1.313   2.410   0.000   3.724
   17        1.313   2.410   0.000   3.724
   18        1.313   2.410   0.000   3.724
   19        1.313   2.410   0.000   3.724
   20        1.313   2.410   0.000   3.724
   21        1.313   2.410   0.000   3.724
   22        1.313   2.410   0.000   3.724
   23        1.313   2.410   0.000   3.724
   24        1.313   2.410   0.000   3.724
   25        1.313   2.410   0.000   3.724
   26        1.313   2.410   0.000   3.724
   27        1.313   2.410   0.000   3.724
   28        1.313   2.410   0.000   3.724
   29        1.313   2.410   0.000   3.724
   30        1.313   2.410   0.000   3.724
   31        1.313   2.410   0.000   3.724
   32        1.313   2.410   0.000   3.724
   33        0.260   6.202   8.917  15.378
   34        0.260   6.202   8.917  15.378
   35        0.260   6.202   8.917  15.378
   36        0.260   6.202   8.917  15.378
   37        0.260   6.202   8.917  15.378
   38        0.260   6.202   8.917  15.378
   39        0.260   6.202   8.917  15.378
   40        0.260   6.202   8.917  15.378
   41        0.260   6.202   8.917  15.378
   42        0.260   6.202   8.917  15.378
   43        0.260   6.202   8.917  15.378
   44        0.260   6.202   8.917  15.378
   45        0.260   6.202   8.917  15.378
   46        0.260   6.202   8.917  15.378
   47        0.260   6.202   8.917  15.378
   48        0.260   6.202   8.917  15.378
   49        0.350   6.351   5.820  12.521
   50        0.350   6.351   5.820  12.521
   51        0.350   6.351   5.820  12.521
   52        0.350   6.351   5.820  12.521
   53        0.350   6.351   5.820  12.521
   54        0.350   6.351   5.820  12.521
   55        0.350   6.351   5.820  12.521
   56        0.350   6.351   5.820  12.521
   57        0.350   6.351   5.820  12.521
   58        0.350   6.351   5.820  12.521
   59        0.350   6.351   5.820  12.521
   60        0.350   6.351   5.820  12.521
   61        0.350   6.351   5.820  12.521
   62        0.350   6.351   5.820  12.521
   63        0.350   6.351   5.820  12.521
   64        0.350   6.351   5.820  12.521
--------------------------------------------------
tot         51.789 277.976 235.778 565.543
 


 magnetization (x)
 
# of ion       s       p       d       tot
------------------------------------------
    1       -0.000  -0.001   0.000  -0.001
    2       -0.000  -0.001   0.000  -0.001
    3       -0.000  -0.001   0.000  -0.001
    4       -0.000  -0.001   0.000  -0.001
    5        0.000   0.001   0.000   0.001
    6        0.000   0.001   0.000   0.001
    7        0.000   0.001   0.000   0.001
    8        0.000   0.001   0.000   0.001
    9        0.000  -0.000   0.000  -0.000
   10       -0.000   0.000   0.000   0.000
   11        0.000  -0.000   0.000  -0.000
   12        0.000   0.000   0.000   0.000
   13       -0.000  -0.000   0.000  -0.000
   14       -0.000  -0.000   0.000  -0.000
   15       -0.000  -0.000   0.000  -0.000
   16       -0.000  -0.000   0.000  -0.000
   17        0.000   0.001   0.000   0.001
   18        0.000   0.001   0.000   0.001
   19        0.000   0.001   0.000   0.001
   20        0.000   0.001   0.000   0.001
   21       -0.000  -0.001   0.000  -0.001
   22       -0.000  -0.001   0.000  -0.001
   23       -0.000  -0.001   0.000  -0.001
   24       -0.000  -0.001   0.000  -0.001
   25        0.000   0.000   0.000   0.000
   26        0.000   0.000   0.000   0.000
   27        0.000   0.000   0.000   0.000
   28       -0.000   0.000   0.000   0.000
   29       -0.000   0.000   0.000   0.000
   30       -0.000  -0.000   0.000  -0.000
   31       -0.000   0.000   0.000   0.000
   32        0.000  -0.000   0.000  -0.000
   33        0.000   0.000  -0.001   0.000
   34        0.000   0.000  -0.001   0.000
   35        0.000   0.000  -0.001   0.000
   36        0.000   0.000  -0.001   0.000
   37       -0.000  -0.000   0.001  -0.000
   38       -0.000  -0.000   0.001  -0.000
   39       -0.000  -0.000   0.001  -0.000
   40       -0.000  -0.000   0.001  -0.000
   41        0.000   0.000  -0.001   0.000
   42        0.000   0.000  -0.001   0.000
   43        0.000   0.000  -0.001   0.000
   44        0.000   0.000  -0.001   0.000
   45       -0.000  -0.000   0.001  -0.000
   46       -0.000  -0.000   0.001  -0.000
   47       -0.000  -0.000   0.001  -0.000
   48       -0.000  -0.000   0.001  -0.000
   49        0.020   0.054   3.671   3.745
   50        0.020   0.054   3.671   3.745
   51        0.020   0.054   3.671   3.745
   52        0.020   0.054   3.671   3.745
   53       -0.020  -0.054  -3.671  -3.745
   54       -0.020  -0.054  -3.671  -3.745
   55       -0.020  -0.054  -3.671  -3.745
   56       -0.020  -0.054  -3.671  -3.745
   57        0.020   0.054   3.671   3.745
   58        0.020   0.054   3.671   3.745
   59        0.020   0.054   3.671   3.745
   60        0.020   0.054   3.671   3.745
   61       -0.020  -0.054  -3.671  -3.745
   62       -0.020  -0.054  -3.671  -3.745
   63       -0.020  -0.054  -3.671  -3.745
   64       -0.020  -0.054  -3.671  -3.745
--------------------------------------------------
tot         -0.000   0.000   0.000   0.000
 
 BZINTS: Fermi energy:  4.989377;688.000000 electrons
         Band energy:***********;  BLOECHL correction:  0.000000

 total amount of memory used by VASP MPI-rank0   349631. kBytes
=======================================================================

   base      :      30000. kBytes
   nonl-proj :     217907. kBytes
   fftplans  :       4588. kBytes
   grid      :      69719. kBytes
   one-center:       1990. kBytes
   wavefun   :      25427. kBytes
 
  
  
 General timing and accounting informations for this job:
 ========================================================
  
                  Total CPU time used (sec):     3409.659
                            User time (sec):     3398.395
                          System time (sec):       11.264
                         Elapsed time (sec):     3434.859
  
                   Maximum memory used (kb):      734480.
                   Average memory used (kb):           0.
  
                          Minor page faults:       326844
                          Major page faults:         5775
                 Voluntary context switches:         7209
