       N       E                     dE             d eps       ncg     rms          rms(c)
DAV:   1     0.619189948625E+04    0.61919E+04   -0.50372E+05 12288   0.194E+03
DAV:   2    -0.938890212388E+02   -0.62858E+04   -0.61546E+04 13312   0.440E+02
DAV:   3    -0.371893901578E+03   -0.27800E+03   -0.27681E+03 17408   0.101E+02
DAV:   4    -0.375765490950E+03   -0.38716E+01   -0.38714E+01 14080   0.122E+01
DAV:   5    -0.375869655788E+03   -0.10416E+00   -0.10416E+00 16896   0.201E+00    0.751E+01
DAV:   6    -0.334392635563E+03    0.41477E+02   -0.59180E+02 12288   0.815E+01    0.100E+02
DAV:   7    -0.329094122741E+03    0.52985E+01   -0.11470E+02 12800   0.275E+01    0.437E+01
DAV:   8    -0.329168800103E+03   -0.74677E-01   -0.37335E+01 14592   0.211E+01    0.327E+01
DAV:   9    -0.330920622454E+03   -0.17518E+01   -0.10423E+02 15616   0.244E+01    0.236E+01
DAV:  10    -0.327238323315E+03    0.36823E+01   -0.21360E+01 16128   0.156E+01    0.276E+00
DAV:  11    -0.327363339883E+03   -0.12502E+00   -0.13066E+00 17408   0.189E+00    0.356E+00
DAV:  12    -0.327353338829E+03    0.10001E-01   -0.49923E-01 15872   0.181E+00    0.133E+00
DAV:  13    -0.327360611771E+03   -0.72729E-02   -0.49271E-02 15360   0.391E-01    0.900E-01
DAV:  14    -0.327372425996E+03   -0.11814E-01   -0.67555E-02 16384   0.402E-01    0.427E-01
DAV:  15    -0.327372178990E+03    0.24701E-03   -0.56890E-03 13312   0.190E-01    0.186E-01
DAV:  16    -0.327372414258E+03   -0.23527E-03   -0.55134E-04 17408   0.329E-02    0.132E-01
DAV:  17    -0.327373140452E+03   -0.72619E-03   -0.36090E-03 14592   0.684E-02    0.830E-02
DAV:  18    -0.327373214551E+03   -0.74100E-04   -0.25028E-04 14848   0.237E-02    0.551E-02
DAV:  19    -0.327373218017E+03   -0.34654E-05   -0.64488E-05 17664   0.139E-02    0.342E-02
DAV:  20    -0.327373224603E+03   -0.65863E-05   -0.42307E-05 14848   0.783E-03    0.237E-02
DAV:  21    -0.327373225371E+03   -0.76772E-06   -0.31681E-05 17408   0.878E-03    0.158E-02
DAV:  22    -0.327373225698E+03   -0.32762E-06   -0.16704E-06 12288   0.232E-03    0.132E-02
DAV:  23    -0.327373226074E+03   -0.37572E-06   -0.52980E-07 17408   0.100E-03    0.642E-03
DAV:  24    -0.327373225980E+03    0.93802E-07   -0.88029E-07 14336   0.175E-03    0.199E-03
DAV:  25    -0.327373225939E+03    0.41007E-07   -0.26126E-07 19200   0.950E-04    0.141E-03
DAV:  26    -0.327373225937E+03    0.18626E-08   -0.45464E-08 10496   0.331E-04
   1 F= -.32737323E+03 E0= -.32737323E+03  d E =0.000000E+00  mag=    -0.0000
