 vasp.5.4.4.18Apr17-6-g9f103f2a35 (build Oct 30 2023 17:30:16) complex          
  
 executed on             LinuxIFC date 2024.06.29  00:49:03
 running on  256 total cores
 distrk:  each k-point on  256 cores,    1 groups
 distr:  one band on NCORES_PER_BAND=   1 cores,  256 groups


--------------------------------------------------------------------------------------------------------


 INCAR:
 POTCAR:    PAW_PBE S 06Sep2000                   
 POTCAR:     PAW_PBE Cu_pv 06Sep2000              
 POTCAR:     PAW_PBE Fe_pv 02Aug2007              

 ----------------------------------------------------------------------------- 
|                                                                             |
|           W    W    AA    RRRRR   N    N  II  N    N   GGGG   !!!           |
|           W    W   A  A   R    R  NN   N  II  NN   N  G    G  !!!           |
|           W    W  A    A  R    R  N N  N  II  N N  N  G       !!!           |
|           W WW W  AAAAAA  RRRRR   N  N N  II  N  N N  G  GGG   !            |
|           WW  WW  A    A  R   R   N   NN  II  N   NN  G    G                |
|           W    W  A    A  R    R  N    N  II  N    N   GGGG   !!!           |
|                                                                             |
|      For optimal performance we recommend to set                            |
|        NCORE= 4 - approx SQRT( number of cores)                             |
|      NCORE specifies how many cores store one orbital (NPAR=cpu/NCORE).     |
|      This setting can  greatly improve the performance of VASP for DFT.     |
|      The default,   NCORE=1            might be grossly inefficient         |
|      on modern multi-core architectures or massively parallel machines.     |
|      Do your own testing !!!!                                               |
|      Unfortunately you need to use the default for GW and RPA calculations. |
|      (for HF NCORE is supported but not extensively tested yet)             |
|                                                                             |
 ----------------------------------------------------------------------------- 

 POTCAR:    PAW_PBE S 06Sep2000                   
   SHA256 =  0fc7481fb0695f01bdc6462160264c5c84044ae9ec85a907d398b887a2bc3132 S/
   COPYR  = (c) Copyright 06Sep2000 Georg Kresse                                
   COPYR  = This file is part of the software VASP. Any use, copying, and all ot
   COPYR  = If you do not have a valid VASP license, you may not use, copy or di
   VRHFIN =S : s2p4                                                             
   LEXCH  = PE                                                                  
   EATOM  =   276.8230 eV,   20.3459 Ry                                         
                                                                                
   TITEL  = PAW_PBE S 06Sep2000                                                 
   LULTRA =        F    use ultrasoft PP ?                                      
   IUNSCR =        1    unscreen: 0-lin 1-nonlin 2-no                           
   RPACOR =    1.500    partial core radius                                     
   POMASS =   32.066; ZVAL   =    6.000    mass and valenz                      
   RCORE  =    1.900    outmost cutoff radius                                   
   RWIGS  =    2.200; RWIGS  =    1.164    wigner-seitz radius (au A)           
   ENMAX  =  258.689; ENMIN  =  194.016 eV                                      
   ICORE  =        2    local potential                                         
   LCOR   =        T    correct aug charges                                     
   LPAW   =        T    paw PP                                                  
   EAUG   =  335.092                                                            
   DEXC   =    0.000                                                            
   RMAX   =    1.942    core radius for proj-oper                               
   RAUG   =    1.300    factor for augmentation sphere                          
   RDEP   =    1.954    radius for radial grids                                 
   RDEPT  =    1.744    core radius for aug-charge                              
                                                                                
   Atomic configuration                                                         
    6 entries                                                                   
     n  l   j            E        occ.                                          
     1  0  0.50     -2405.8406   2.0000                                         
     2  0  0.50      -211.7007   2.0000                                         
     2  1  1.50      -156.4958   6.0000                                         
     3  0  0.50       -17.2562   2.0000                                         
     3  1  0.50        -7.0085   4.0000                                         
     3  2  1.50        -6.8029   0.0000                                         
   Description                                                                  
     l       E           TYP  RCUT    TYP  RCUT                                 
     0    -17.2561641     23  1.900                                             
     0    -15.8743224     23  1.900                                             
     1     -7.0085400     23  1.900                                             
     1     -2.7779785     23  1.900                                             
     2     -6.8029130     23  1.900                                             
  local pseudopotential read in
  partial core-charges read in
  partial kinetic energy density read in
  atomic valenz-charges read in
  non local Contribution for L=           0  read in
    real space projection operators read in
  non local Contribution for L=           0  read in
    real space projection operators read in
  non local Contribution for L=           1  read in
    real space projection operators read in
  non local Contribution for L=           1  read in
    real space projection operators read in
    PAW grid and wavefunctions read in
 
   number of l-projection  operators is LMAX  =           4
   number of lm-projection operators is LMMAX =           8
 
 POTCAR:     PAW_PBE Cu_pv 06Sep2000              
   SHA256 =  cb7b504e2ea725fe1f25c85a9ac77d4012ce94cd394135b722c4e25ec297f1cb Cu
   COPYR  = (c) Copyright 06Sep2000 Georg Kresse                                
   COPYR  = This file is part of the software VASP. Any use, copying, and all ot
   COPYR  = If you do not have a valid VASP license, you may not use, copy or di
   VRHFIN =Cu: d10 p1                                                           
   LEXCH  = PE                                                                  
   EATOM  =  4120.1201 eV,  302.8203 Ry                                         
                                                                                
   TITEL  = PAW_PBE Cu_pv 06Sep2000                                             
   LULTRA =        F    use ultrasoft PP ?                                      
   IUNSCR =        1    unscreen: 0-lin 1-nonlin 2-no                           
   RPACOR =    1.500    partial core radius                                     
   POMASS =   63.546; ZVAL   =   17.000    mass and valenz                      
   RCORE  =    2.000    outmost cutoff radius                                   
   RWIGS  =    2.000; RWIGS  =    1.058    wigner-seitz radius (au A)           
   ENMAX  =  368.648; ENMIN  =  276.486 eV                                      
   RCLOC  =    1.304    cutoff for local pot                                    
   LCOR   =        T    correct aug charges                                     
   LPAW   =        T    paw PP                                                  
   EAUG   =  758.233                                                            
   DEXC   =    0.000                                                            
   RMAX   =    2.046    core radius for proj-oper                               
   RAUG   =    1.300    factor for augmentation sphere                          
   RDEP   =    2.025    radius for radial grids                                 
   RDEPT  =    1.558    core radius for aug-charge                              
                                                                                
   Atomic configuration                                                         
    8 entries                                                                   
     n  l   j            E        occ.                                          
     1  0  0.50     -8850.2467   2.0000                                         
     2  0  0.50     -1062.3498   2.0000                                         
     2  1  1.50      -916.8226   6.0000                                         
     3  0  0.50      -114.6929   2.0000                                         
     3  1  1.50       -72.1325   6.0000                                         
     3  2  2.50        -5.0394  10.0000                                         
     4  0  0.50        -4.6097   1.0000                                         
     4  3  2.50        -1.3606   0.0000                                         
   Description                                                                  
     l       E           TYP  RCUT    TYP  RCUT                                 
     1    -72.1324777     23  1.700                                             
     1     -1.3605826     23  1.700                                             
     2     -5.0393776     23  2.000                                             
     2     -6.3999602     23  2.000                                             
     0     -4.6097062     23  1.800                                             
     0     14.1620818     23  1.800                                             
  local pseudopotential read in
  partial core-charges read in
  partial kinetic energy density read in
  atomic valenz-charges read in
  non local Contribution for L=           1  read in
    real space projection operators read in
  non local Contribution for L=           1  read in
    real space projection operators read in
  non local Contribution for L=           2  read in
    real space projection operators read in
  non local Contribution for L=           2  read in
    real space projection operators read in
  non local Contribution for L=           0  read in
    real space projection operators read in
  non local Contribution for L=           0  read in
    real space projection operators read in
    PAW grid and wavefunctions read in
 
   number of l-projection  operators is LMAX  =           6
   number of lm-projection operators is LMMAX =          18
 
 POTCAR:     PAW_PBE Fe_pv 02Aug2007              
   SHA256 =  5d22e414b1f82158bf2c7ecb8b97b28fd0923e48cadc1c3bf74d524558f5dd32 Fe
   COPYR  = (c) Copyright 02Aug2007 Georg Kresse                                
   COPYR  = This file is part of the software VASP. Any use, copying, and all ot
   COPYR  = If you do not have a valid VASP license, you may not use, copy or di
   VRHFIN =Fe:  3pd7s1                                                          
   LEXCH  = PE                                                                  
   EATOM  =  2457.4239 eV,  180.6156 Ry                                         
                                                                                
   TITEL  = PAW_PBE Fe_pv 02Aug2007                                             
   LULTRA =        F    use ultrasoft PP ?                                      
   IUNSCR =        1    unscreen: 0-lin 1-nonlin 2-no                           
   RPACOR =    1.750    partial core radius                                     
   POMASS =   55.847; ZVAL   =   14.000    mass and valenz                      
   RCORE  =    2.200    outmost cutoff radius                                   
   RWIGS  =    2.200; RWIGS  =    1.164    wigner-seitz radius (au A)           
   ENMAX  =  293.238; ENMIN  =  219.928 eV                                      
   ICORE  =        3    local potential                                         
   LCOR   =        T    correct aug charges                                     
   LPAW   =        T    paw PP                                                  
   EAUG   =  578.342                                                            
   DEXC   =    0.000                                                            
   RMAX   =    2.249    core radius for proj-oper                               
   RAUG   =    1.300    factor for augmentation sphere                          
   RDEP   =    2.296    radius for radial grids                                 
   RDEPT  =    1.766    core radius for aug-charge                              
                                                                                
   Atomic configuration                                                         
    8 entries                                                                   
     n  l   j            E        occ.                                          
     1  0  0.50     -6993.8440   2.0000                                         
     2  0  0.50      -814.6047   2.0000                                         
     2  1  1.50      -693.3689   6.0000                                         
     3  0  0.50       -89.4732   2.0000                                         
     3  1  1.50       -55.6373   6.0000                                         
     3  2  2.50        -3.8151   7.0000                                         
     4  0  0.50        -4.2551   1.0000                                         
     4  3  2.50        -1.3606   0.0000                                         
   Description                                                                  
     l       E           TYP  RCUT    TYP  RCUT                                 
     1    -55.6372668     23  2.000                                             
     1     -5.4423304     23  2.000                                             
     2     -3.8151096     23  2.200                                             
     2     -5.1756922     23  2.200                                             
     0     -4.2550951     23  2.200                                             
     0     27.2116520     23  2.200                                             
     3     -1.3605826     23  2.200                                             
  local pseudopotential read in
  partial core-charges read in
  partial kinetic energy density read in
  atomic valenz-charges read in
  non local Contribution for L=           1  read in
    real space projection operators read in
  non local Contribution for L=           1  read in
    real space projection operators read in
  non local Contribution for L=           2  read in
    real space projection operators read in
  non local Contribution for L=           2  read in
    real space projection operators read in
  non local Contribution for L=           0  read in
    real space projection operators read in
  non local Contribution for L=           0  read in
    real space projection operators read in
    PAW grid and wavefunctions read in
 
   number of l-projection  operators is LMAX  =           6
   number of lm-projection operators is LMMAX =          18
 

 ----------------------------------------------------------------------------- 
|                                                                             |
|  ADVICE TO THIS USER RUNNING 'VASP/VAMP'   (HEAR YOUR MASTER'S VOICE ...):  |
|                                                                             |
|      You have a (more or less) 'large supercell' and for larger cells       |
|      it might be more efficient to use real space projection opertators     |
|      So try LREAL= Auto  in the INCAR   file.                               |
|      Mind:          For very  accurate calculation you might also keep the  |
|      reciprocal projection scheme          (i.e. LREAL=.FALSE.)             |
|                                                                             |
 ----------------------------------------------------------------------------- 


 ----------------------------------------------------------------------------- 
|                                                                             |
|  ADVICE TO THIS USER RUNNING 'VASP/VAMP'   (HEAR YOUR MASTER'S VOICE ...):  |
|                                                                             |
|      You enforced a specific xc-type in the INCAR file,                     |
|      a different type was found on the POTCAR file                          |
|          I HOPE YOU KNOW, WHAT YOU ARE  DOING                               |
|                                                                             |
 ----------------------------------------------------------------------------- 

  PAW_PBE S 06Sep2000                   :
 energy of atom  1       EATOM= -276.8230
 kinetic energy error for atom=    0.0007 (will be added to EATOM!!)
   PAW_PBE Cu_pv 06Sep2000              :
 energy of atom  2       EATOM=-4120.1201
 kinetic energy error for atom=    0.0094 (will be added to EATOM!!)
   PAW_PBE Fe_pv 02Aug2007              :
 energy of atom  3       EATOM=-2457.4239
 kinetic energy error for atom=    0.0025 (will be added to EATOM!!)
 
 
 POSCAR: Fe16 Cu16 S32                           
  positions in direct lattice
  No initial velocities read in
 exchange correlation table for  LEXCH =       14
   RHO(1)=    0.500       N(1)  =     2000
   RHO(2)=  100.500       N(2)  =     4000
 


--------------------------------------------------------------------------------------------------------


 ion  position               nearest neighbor table
   1  0.126  0.125  0.120-  37 2.26  61 2.27  41 2.27  49 2.29
   2  0.626  0.125  0.120-  38 2.26  62 2.27  42 2.27  50 2.29
   3  0.126  0.625  0.120-  39 2.26  63 2.27  43 2.27  51 2.29
   4  0.626  0.625  0.120-  40 2.26  64 2.27  44 2.27  52 2.29
   5  0.374  0.375  0.120-  39 2.26  62 2.27  41 2.27  52 2.29
   6  0.874  0.375  0.120-  40 2.26  61 2.27  42 2.27  51 2.29
   7  0.374  0.875  0.120-  37 2.26  64 2.27  43 2.27  50 2.29
   8  0.874  0.875  0.120-  38 2.26  63 2.27  44 2.27  49 2.29
   9  0.125  0.374  0.870-  41 2.26  51 2.27  45 2.27  55 2.29
  10  0.625  0.374  0.870-  42 2.26  52 2.27  46 2.27  56 2.29
  11  0.125  0.874  0.870-  43 2.26  49 2.27  47 2.27  53 2.29
  12  0.625  0.874  0.870-  44 2.26  50 2.27  48 2.27  54 2.29
  13  0.375  0.126  0.870-  41 2.26  50 2.27  46 2.27  53 2.29
  14  0.875  0.126  0.870-  42 2.26  49 2.27  45 2.27  54 2.29
  15  0.375  0.626  0.870-  43 2.26  52 2.27  48 2.27  55 2.29
  16  0.875  0.626  0.870-  44 2.26  51 2.27  47 2.27  56 2.29
  17  0.124  0.125  0.620-  45 2.26  53 2.27  33 2.27  57 2.29
  18  0.624  0.125  0.620-  46 2.26  54 2.27  34 2.27  58 2.29
  19  0.124  0.625  0.620-  47 2.26  55 2.27  35 2.27  59 2.29
  20  0.624  0.625  0.620-  48 2.26  56 2.27  36 2.27  60 2.29
  21  0.376  0.375  0.620-  46 2.26  55 2.27  36 2.27  57 2.29
  22  0.876  0.375  0.620-  45 2.26  56 2.27  35 2.27  58 2.29
  23  0.376  0.875  0.620-  48 2.26  53 2.27  34 2.27  59 2.29
  24  0.876  0.875  0.620-  47 2.26  54 2.27  33 2.27  60 2.29
  25  0.375  0.124  0.370-  34 2.26  57 2.27  37 2.27  62 2.29
  26  0.875  0.124  0.370-  33 2.26  58 2.27  38 2.27  61 2.29
  27  0.375  0.624  0.370-  36 2.26  59 2.27  39 2.27  64 2.29
  28  0.875  0.624  0.370-  35 2.26  60 2.27  40 2.27  63 2.29
  29  0.125  0.376  0.370-  35 2.26  57 2.27  39 2.27  61 2.29
  30  0.625  0.376  0.370-  36 2.26  58 2.27  40 2.27  62 2.29
  31  0.125  0.876  0.370-  33 2.26  59 2.27  37 2.27  63 2.29
  32  0.625  0.876  0.370-  34 2.26  60 2.27  38 2.27  64 2.29
  33  0.000  0.000  0.504-  26 2.26  31 2.26  17 2.27  24 2.27
  34  0.500  0.000  0.504-  25 2.26  32 2.26  18 2.27  23 2.27
  35  0.000  0.500  0.504-  28 2.26  29 2.26  19 2.27  22 2.27
  36  0.500  0.500  0.504-  27 2.26  30 2.26  20 2.27  21 2.27
  37  0.250  0.000  0.254-   1 2.26   7 2.26  25 2.27  31 2.27
  38  0.750  0.000  0.254-   2 2.26   8 2.26  26 2.27  32 2.27
  39  0.250  0.500  0.254-   3 2.26   5 2.26  27 2.27  29 2.27
  40  0.750  0.500  0.254-   4 2.26   6 2.26  28 2.27  30 2.27
  41  0.250  0.250  0.004-   9 2.26  13 2.26   1 2.27   5 2.27
  42  0.750  0.250  0.004-  10 2.26  14 2.26   2 2.27   6 2.27
  43  0.250  0.750  0.004-  11 2.26  15 2.26   3 2.27   7 2.27
  44  0.750  0.750  0.004-  12 2.26  16 2.26   4 2.27   8 2.27
  45  0.000  0.250  0.754-  17 2.26  22 2.26   9 2.27  14 2.27
  46  0.500  0.250  0.754-  18 2.26  21 2.26  10 2.27  13 2.27
  47  0.000  0.750  0.754-  19 2.26  24 2.26  11 2.27  16 2.27
  48  0.500  0.750  0.754-  20 2.26  23 2.26  12 2.27  15 2.27
  49  0.000  0.000  0.005-  11 2.27  14 2.27   1 2.29   8 2.29
  50  0.500  0.000  0.005-  12 2.27  13 2.27   2 2.29   7 2.29
  51  0.000  0.500  0.005-   9 2.27  16 2.27   3 2.29   6 2.29
  52  0.500  0.500  0.005-  10 2.27  15 2.27   4 2.29   5 2.29
  53  0.250  0.000  0.755-  17 2.27  23 2.27  11 2.29  13 2.29
  54  0.750  0.000  0.755-  18 2.27  24 2.27  12 2.29  14 2.29
  55  0.250  0.500  0.755-  19 2.27  21 2.27   9 2.29  15 2.29
  56  0.750  0.500  0.755-  20 2.27  22 2.27  10 2.29  16 2.29
  57  0.250  0.250  0.505-  25 2.27  29 2.27  17 2.29  21 2.29
  58  0.750  0.250  0.505-  26 2.27  30 2.27  18 2.29  22 2.29
  59  0.250  0.750  0.505-  27 2.27  31 2.27  19 2.29  23 2.29
  60  0.750  0.750  0.505-  28 2.27  32 2.27  20 2.29  24 2.29
  61  0.000  0.250  0.255-   1 2.27   6 2.27  26 2.29  29 2.29
  62  0.500  0.250  0.255-   2 2.27   5 2.27  25 2.29  30 2.29
  63  0.000  0.750  0.255-   3 2.27   8 2.27  28 2.29  31 2.29
  64  0.500  0.750  0.255-   4 2.27   7 2.27  27 2.29  32 2.29
 
  LATTYP: Found a base centered orthorhombic cell.
 ALAT       =    14.2224572972
 B/A-ratio  =     1.0874892958
 C/A-ratio  =     0.7335366021
  
  Lattice vectors:
  
 A1 = (  10.4967270000,   0.4399310000,   0.0000000000)
 A2 = (  -0.4399310000, -10.4967270000,   0.0000000000)
 A3 = (   0.0000000000,   0.0000000000, -10.4326930000)


Analysis of symmetry for initial positions (statically):
=====================================================================
 Subroutine PRICEL returns following result:
 
  LATTYP: Found a face centered orthorhombic cell.
 ALAT       =     7.1112286486
 B/A-ratio  =     1.0874892958
 C/A-ratio  =     1.4670732043
  
  Lattice vectors:
  
 A1 = (  -2.7341645000,  -2.7341645000,   5.2163465000)
 A2 = (  -2.5141990000,   2.5141990000,   5.2163465000)
 A3 = (  -5.2483635000,  -0.2199655000,   0.0000000000)
 
   8 primitive cells build up your supercell.
 

 Routine SETGRP: Setting up the symmetry group for a 
 base centered orthorhombic supercell.


 Subroutine GETGRP returns: Found  4 space group operations
 (whereof  2 operations were pure point group operations)
 out of a pool of  8 trial point group operations.


The static configuration has the point symmetry C_2 .
 The point group associated with its full space group is C_2v.


Analysis of symmetry for dynamics (positions and initial velocities):
=====================================================================
 Subroutine PRICEL returns following result:
 
  LATTYP: Found a face centered orthorhombic cell.
 ALAT       =     7.1112286486
 B/A-ratio  =     1.0874892958
 C/A-ratio  =     1.4670732043
  
  Lattice vectors:
  
 A1 = (  -2.7341645000,  -2.7341645000,   5.2163465000)
 A2 = (  -2.5141990000,   2.5141990000,   5.2163465000)
 A3 = (  -5.2483635000,  -0.2199655000,   0.0000000000)
 
   8 primitive cells build up your supercell.
 

 Routine SETGRP: Setting up the symmetry group for a 
 base centered orthorhombic supercell.


 Subroutine GETGRP returns: Found  4 space group operations
 (whereof  2 operations were pure point group operations)
 out of a pool of  8 trial point group operations.


The dynamic configuration has the point symmetry C_2 .
 The point group associated with its full space group is C_2v.


Analysis of structural, dynamic, and magnetic symmetry:
=====================================================================
 Subroutine PRICEL returns following result:
 
  LATTYP: Found a face centered orthorhombic cell.
 ALAT       =     7.1112286486
 B/A-ratio  =     1.0874892958
 C/A-ratio  =     1.4670732043
  
  Lattice vectors:
  
 A1 = (  -2.7341645000,  -2.7341645000,   5.2163465000)
 A2 = (  -2.5141990000,   2.5141990000,   5.2163465000)
 A3 = (  -5.2483635000,  -0.2199655000,   0.0000000000)
 
   8 primitive cells build up your supercell.
 

 Routine SETGRP: Setting up the symmetry group for a 
 base centered orthorhombic supercell.


 Subroutine GETGRP returns: Found  4 space group operations
 (whereof  2 operations were pure point group operations)
 out of a pool of  8 trial point group operations.


The magnetic configuration has the point symmetry C_2 .
 The point group associated with its full space group is C_2v.


 Subroutine INISYM returns: Found  4 space group operations
 (whereof  2 operations are pure point group operations),
 and found     8 'primitive' translations

 
 
 KPOINTS: Automatic mesh                          

Automatic generation of k-mesh.
Space group operators:
 irot       det(A)        alpha          n_x          n_y          n_z        tau_x        tau_y        tau_z
    1     1.000000     0.000001     1.000000     0.000000     0.000000     0.000000     0.000000     0.000000
    2     1.000000   179.999999     0.000000     0.000000     1.000000     0.000000     0.000000     0.000000
    3    -1.000000   180.000000     0.707107     0.707107     0.000000    -0.750000    -0.000000     0.750000
    4    -1.000000   180.000000     0.707107    -0.707107     0.000000    -0.750000    -0.000000     0.750000
 
 Subroutine IBZKPT returns following result:
 ===========================================
 
 Found      6 irreducible k-points:
 
 Following reciprocal coordinates:
            Coordinates               Weight
  0.000000  0.000000  0.000000      1.000000
  0.500000 -0.000000  0.000000      2.000000
  0.500000  0.500000  0.000000      1.000000
  0.000000  0.000000  0.500000      1.000000
  0.500000 -0.000000  0.500000      2.000000
  0.500000  0.500000  0.500000      1.000000
 
 Following cartesian coordinates:
            Coordinates               Weight
  0.000000  0.000000  0.000000      1.000000
  0.047718 -0.002000  0.000000      2.000000
  0.045718  0.045718  0.000000      1.000000
  0.000000  0.000000  0.047926      1.000000
  0.047718 -0.002000  0.047926      2.000000
  0.045718  0.045718  0.047926      1.000000
 
 TETIRR: Found     12 inequivalent tetrahedra from       48
 
 Subroutine IBZKPT_HF returns following result:
 ==============================================
 
 Found      8 k-points in 1st BZ
 the following      8 k-points will be used (e.g. in the exchange kernel)
 Following reciprocal coordinates:   # in IRBZ
  0.000000  0.000000  0.000000    0.12500000   1 t-inv F
  0.500000 -0.000000  0.000000    0.12500000   2 t-inv F
  0.500000  0.500000  0.000000    0.12500000   3 t-inv F
  0.000000  0.000000  0.500000    0.12500000   4 t-inv F
  0.500000 -0.000000  0.500000    0.12500000   5 t-inv F
  0.500000  0.500000  0.500000    0.12500000   6 t-inv F
  0.000000 -0.500000  0.000000    0.12500000   2 t-inv F spinflp
  0.000000 -0.500000  0.500000    0.12500000   5 t-inv F spinflp


--------------------------------------------------------------------------------------------------------




 Dimension of arrays:
   k-points           NKPTS =      6   k-points in BZ     NKDIM =      6   number of bands    NBANDS=    512
   number of dos      NEDOS =    301   number of ions     NIONS =     64
   non local maximal  LDIM  =      6   non local SUM 2l+1 LMDIM =     18
   total plane-waves  NPLWV = 829440
   max r-space proj   IRMAX =      1   max aug-charges    IRDMAX=  22970
   dimension x,y,z NGX =    96 NGY =   96 NGZ =   90
   dimension x,y,z NGXF=   192 NGYF=  192 NGZF=  180
   support grid    NGXF=   192 NGYF=  192 NGZF=  180
   ions per type =              32  16  16
   NGX,Y,Z   is equivalent  to a cutoff of  15.19, 15.19, 14.34 a.u.
   NGXF,Y,Z  is equivalent  to a cutoff of  30.38, 30.38, 28.68 a.u.

 SYSTEM =  CuFeS2                                  
 POSCAR =  Fe16 Cu16 S32                           

 Startparameter for this run:
   NWRITE =      2    write-flag & timer
   PREC   = accura    normal or accurate (medium, high low for compatibility)
   ISTART =      0    job   : 0-new  1-cont  2-samecut
   ICHARG =      1    charge: 1-file 2-atom 10-const
   ISPIN  =      2    spin polarized calculation?
   LNONCOLLINEAR =      F non collinear calculations
   LSORBIT =      F    spin-orbit coupling
   INIWAV =      1    electr: 0-lowe 1-rand  2-diag
   LASPH  =      F    aspherical Exc in radial PAW
   METAGGA=      F    non-selfconsistent MetaGGA calc.

 Electronic Relaxation 1
   ENCUT  =  700.0 eV  51.45 Ry    7.17 a.u.  22.66 22.66 22.51*2*pi/ulx,y,z
   ENINI  =  700.0     initial cutoff
   ENAUG  =  758.2 eV  augmentation charge cutoff
   NELM   =    500;   NELMIN=  2; NELMDL=  0     # of ELM steps 
   EDIFF  = 0.1E-07   stopping-criterion for ELM
   LREAL  =      F    real-space projection
   NLSPLINE    = F    spline interpolate recip. space projectors
   LCOMPAT=      F    compatible to vasp.4.4
   GGA_COMPAT  = T    GGA compatible to vasp.4.4-vasp.4.6
   LMAXPAW     = -100 max onsite density
   LMAXMIX     =    4 max onsite mixed and CHGCAR
   VOSKOWN=      0    Vosko Wilk Nusair interpolation
   ROPT   =    0.00000   0.00000   0.00000
 Ionic relaxation
   EDIFFG = -.1E-04   stopping-criterion for IOM
   NSW    =      0    number of steps for IOM
   NBLOCK =      1;   KBLOCK =      1    inner block; outer block 
   IBRION =     -1    ionic relax: 0-MD 1-quasi-New 2-CG
   NFREE  =      0    steps in history (QN), initial steepest desc. (CG)
   ISIF   =      2    stress and relaxation
   IWAVPR =     10    prediction:  0-non 1-charg 2-wave 3-comb
   ISYM   =      2    0-nonsym 1-usesym 2-fastsym
   LCORR  =      T    Harris-Foulkes like correction to forces

   POTIM  = 0.5000    time-step for ionic-motion
   TEIN   =    0.0    initial temperature
   TEBEG  =    0.0;   TEEND  =   0.0 temperature during run
   SMASS  =  -3.00    Nose mass-parameter (am)
   estimated Nose-frequenzy (Omega)   =  0.10E-29 period in steps =****** mass=  -0.252E-26a.u.
   SCALEE = 1.0000    scale energy and forces
   NPACO  =    256;   APACO  = 16.0  distance and # of slots for P.C.
   PSTRESS=    0.0 pullay stress

  Mass of Ions in am
   POMASS =  32.07 63.55 55.85
  Ionic Valenz
   ZVAL   =   6.00 17.00 14.00
  Atomic Wigner-Seitz radii
   RWIGS  =  -1.00 -1.00 -1.00
  virtual crystal weights 
   VCA    =   1.00  1.00  1.00
   NELECT =     688.0000    total number of electrons
   NUPDOWN=      -1.0000    fix difference up-down

 DOS related values:
   EMIN   =  10.00;   EMAX   =-10.00  energy-range for DOS
   EFERMI =   0.00
   ISMEAR =    -5;   SIGMA  =   0.03  broadening in eV -4-tet -1-fermi 0-gaus

 Electronic relaxation 2 (details)
   IALGO  =     38    algorithm
   LDIAG  =      T    sub-space diagonalisation (order eigenvalues)
   LSUBROT=      F    optimize rotation matrix (better conditioning)
   TURBO    =      0    0=normal 1=particle mesh
   IRESTART =      0    0=no restart 2=restart with 2 vectors
   NREBOOT  =      0    no. of reboots
   NMIN     =      0    reboot dimension
   EREF     =   0.00    reference energy to select bands
   IMIX   =      4    mixing-type and parameters
     AMIX     =   0.40;   BMIX     =  1.00
     AMIX_MAG =   1.60;   BMIX_MAG =  1.00
     AMIN     =   0.10
     WC   =   100.;   INIMIX=   1;  MIXPRE=   1;  MAXMIX= -45

 Intra band minimization:
   WEIMIN = 0.0000     energy-eigenvalue tresh-hold
   EBREAK =  0.49E-11  absolut break condition
   DEPER  =   0.30     relativ break condition  

   TIME   =   0.40     timestep for ELM

  volume/ion in A,a.u.               =      17.93       120.99
  Fermi-wavevector in a.u.,A,eV,Ry     =   1.380461  2.608693 25.928242  1.905672
  Thomas-Fermi vector in A             =   2.505336
 
 Write flags
   LWAVE        =      T    write WAVECAR
   LDOWNSAMPLE  =      F    k-point downsampling of WAVECAR
   LCHARG       =      T    write CHGCAR
   LVTOT        =      F    write LOCPOT, total local potential
   LVHAR        =      F    write LOCPOT, Hartree potential only
   LELF         =      F    write electronic localiz. function (ELF)
   LORBIT       =     11    0 simple, 1 ext, 2 COOP (PROOUT), +10 PAW based schemes


 Dipole corrections
   LMONO  =      F    monopole corrections only (constant potential shift)
   LDIPOL =      F    correct potential (dipole corrections)
   IDIPOL =      0    1-x, 2-y, 3-z, 4-all directions 
   EPSILON=  1.0000000 bulk dielectric constant

 LDA+U is selected, type is set to LDAUTYPE =  2
   angular momentum for each species LDAUL =     2    2    2
   U (eV)           for each species LDAUU =   0.0  0.1  4.7
   J (eV)           for each species LDAUJ =   0.0  0.0  0.0
 Exchange correlation treatment:
   GGA     =    PS    GGA type
   LEXCH   =    14    internal setting for exchange type
   VOSKOWN=      0    Vosko Wilk Nusair interpolation
   LHFCALC =     F    Hartree Fock is set to
   LHFONE  =     F    Hartree Fock one center treatment
   AEXX    =    0.0000 exact exchange contribution

 Linear response parameters
   LEPSILON=     F    determine dielectric tensor
   LRPA    =     F    only Hartree local field effects (RPA)
   LNABLA  =     F    use nabla operator in PAW spheres
   LVEL    =     F    velocity operator in full k-point grid
   LINTERFAST=   F  fast interpolation
   KINTER  =     0    interpolate to denser k-point grid
   CSHIFT  =0.1000    complex shift for real part using Kramers Kronig
   OMEGAMAX=  -1.0    maximum frequency
   DEG_THRESHOLD= 0.2000000E-02 threshold for treating states as degnerate
   RTIME   =   -0.100 relaxation time in fs
  (WPLASMAI=    0.000 imaginary part of plasma frequency in eV, 0.658/RTIME)
   DFIELD  = 0.0000000 0.0000000 0.0000000 field for delta impulse in time
 
 Orbital magnetization related:
   ORBITALMAG=     F  switch on orbital magnetization
   LCHIMAG   =     F  perturbation theory with respect to B field
   DQ        =  0.001000  dq finite difference perturbation B field
   LLRAUG    =     F  two centre corrections for induced B field

 PEAD related settings:
   LPEAD      =     T    switch on PEAD
   IPEAD      =     4    finite difference order for dpsi/dk
   LCALCPOL   =     T    calculate macroscopic polarization
   LCALCEPS   =     F    calculate dielectric tensor
   EFIELD_PEAD=    0.0000    0.0000    0.0000
   SKIP_EDOTP =     F
   LRPA       =     F
   SKIP_SCF   =     F


--------------------------------------------------------------------------------------------------------


 Static calculation
 charge density and potential will be updated during run
 spin polarized calculation
 Variant of blocked Davidson
 Davidson routine will perform the subspace rotation
 perform sub-space diagonalisation
    after iterative eigenvector-optimisation
 modified Broyden-mixing scheme, WC =      100.0
 initial mixing is a Kerker type mixing with AMIX =  0.4000 and BMIX =      1.0000
 Hartree-type preconditioning will be used
 using additional bands          168
 reciprocal scheme for non local part
 use partial core corrections
 calculate Harris-corrections to forces 
   (improved forces if not selfconsistent)
 use gradient corrections 
 use of overlap-Matrix (Vanderbilt PP)
 Fermi weights with tetrahedron method with Bloechl corrections


--------------------------------------------------------------------------------------------------------


  energy-cutoff  :      700.00
  volume of cell :     1147.47
      direct lattice vectors                 reciprocal lattice vectors
    10.496727000  0.439931000  0.000000000     0.095435429 -0.003999819  0.000000000
     0.439931000 10.496727000  0.000000000    -0.003999819  0.095435429  0.000000000
     0.000000000  0.000000000 10.432693000     0.000000000  0.000000000  0.095852528

  length of vectors
    10.505941985 10.505941985 10.432693000     0.095519211  0.095519211  0.095852528


 
 k-points in units of 2pi/SCALE and weight: Automatic mesh                          
   0.00000000  0.00000000  0.00000000       0.125
   0.04771771 -0.00199991  0.00000000       0.250
   0.04571781  0.04571781  0.00000000       0.125
   0.00000000  0.00000000  0.04792626       0.125
   0.04771771 -0.00199991  0.04792626       0.250
   0.04571781  0.04571781  0.04792626       0.125
 
 k-points in reciprocal lattice and weights: Automatic mesh                          
   0.00000000  0.00000000  0.00000000       0.125
   0.50000000 -0.00000000  0.00000000       0.250
   0.50000000  0.50000000  0.00000000       0.125
   0.00000000  0.00000000  0.50000000       0.125
   0.50000000 -0.00000000  0.50000000       0.250
   0.50000000  0.50000000  0.50000000       0.125
 
 position of ions in fractional coordinates (direct lattice) 
   0.12609600  0.12547100  0.12038400
   0.62609600  0.12547100  0.12038400
   0.12609600  0.62547100  0.12038400
   0.62609600  0.62547100  0.12038400
   0.37390400  0.37452900  0.12038400
   0.87390400  0.37452900  0.12038400
   0.37390400  0.87452900  0.12038400
   0.87390400  0.87452900  0.12038400
   0.12452900  0.37390400  0.87038400
   0.62452900  0.37390400  0.87038400
   0.12452900  0.87390400  0.87038400
   0.62452900  0.87390400  0.87038400
   0.37547100  0.12609600  0.87038400
   0.87547100  0.12609600  0.87038400
   0.37547100  0.62609600  0.87038400
   0.87547100  0.62609600  0.87038400
   0.12390400  0.12452900  0.62038400
   0.62390400  0.12452900  0.62038400
   0.12390400  0.62452900  0.62038400
   0.62390400  0.62452900  0.62038400
   0.37609600  0.37547100  0.62038400
   0.87609600  0.37547100  0.62038400
   0.37609600  0.87547100  0.62038400
   0.87609600  0.87547100  0.62038400
   0.37452900  0.12390400  0.37038400
   0.87452900  0.12390400  0.37038400
   0.37452900  0.62390400  0.37038400
   0.87452900  0.62390400  0.37038400
   0.12547100  0.37609600  0.37038400
   0.62547100  0.37609600  0.37038400
   0.12547100  0.87609600  0.37038400
   0.62547100  0.87609600  0.37038400
   0.00000000  0.00000000  0.50402000
   0.50000000  0.00000000  0.50402000
   0.00000000  0.50000000  0.50402000
   0.50000000  0.50000000  0.50402000
   0.25000000  0.00000000  0.25402000
   0.75000000  0.00000000  0.25402000
   0.25000000  0.50000000  0.25402000
   0.75000000  0.50000000  0.25402000
   0.25000000  0.25000000  0.00402000
   0.75000000  0.25000000  0.00402000
   0.25000000  0.75000000  0.00402000
   0.75000000  0.75000000  0.00402000
   0.00000000  0.25000000  0.75402000
   0.50000000  0.25000000  0.75402000
   0.00000000  0.75000000  0.75402000
   0.50000000  0.75000000  0.75402000
   0.00000000  0.00000000  0.00521200
   0.50000000  0.00000000  0.00521200
   0.00000000  0.50000000  0.00521200
   0.50000000  0.50000000  0.00521200
   0.25000000  0.00000000  0.75521200
   0.75000000  0.00000000  0.75521200
   0.25000000  0.50000000  0.75521200
   0.75000000  0.50000000  0.75521200
   0.25000000  0.25000000  0.50521200
   0.75000000  0.25000000  0.50521200
   0.25000000  0.75000000  0.50521200
   0.75000000  0.75000000  0.50521200
   0.00000000  0.25000000  0.25521200
   0.50000000  0.25000000  0.25521200
   0.00000000  0.75000000  0.25521200
   0.50000000  0.75000000  0.25521200
 
 position of ions in cartesian coordinates  (Angst):
   1.37879387  1.37250837  1.25592931
   6.62715737  1.59247387  1.25592931
   1.59875937  6.62087187  1.25592931
   6.84712287  6.84083737  1.25592931
   4.08953513  4.09582063  1.25592931
   9.33789863  4.31578613  1.25592931
   4.30950063  9.34418413  1.25592931
   9.55786413  9.56414963  1.25592931
   1.47163888  3.97955238  9.08044906
   6.72000238  4.19951788  9.08044906
   1.69160438  9.22791588  9.08044906
   6.93996788  9.44788138  9.08044906
   3.99669012  1.48877662  9.08044906
   9.24505362  1.70874212  9.08044906
   4.21665562  6.73714012  9.08044906
   9.46501912  6.95710562  9.08044906
   1.35537063  1.36165613  6.47227581
   6.60373413  1.58162163  6.47227581
   1.57533613  6.61001963  6.47227581
   6.82369963  6.82998513  6.47227581
   4.11295837  4.10667287  6.47227581
   9.36132187  4.32663837  6.47227581
   4.33292387  9.35503637  6.47227581
   9.58128737  9.57500187  6.47227581
   3.98583788  1.46535338  3.86410256
   9.23420138  1.68531888  3.86410256
   4.20580338  6.71371688  3.86410256
   9.45416688  6.93368238  3.86410256
   1.48249112  4.00297562  3.86410256
   6.73085462  4.22294112  3.86410256
   1.70245662  9.25133912  3.86410256
   6.95082012  9.47130462  3.86410256
   0.00000000  0.00000000  5.25828593
   5.24836350  0.21996550  5.25828593
   0.21996550  5.24836350  5.25828593
   5.46832900  5.46832900  5.25828593
   2.62418175  0.10998275  2.65011268
   7.87254525  0.32994825  2.65011268
   2.84414725  5.35834625  2.65011268
   8.09251075  5.57831175  2.65011268
   2.73416450  2.73416450  0.04193943
   7.98252800  2.95413000  0.04193943
   2.95413000  7.98252800  0.04193943
   8.20249350  8.20249350  0.04193943
   0.10998275  2.62418175  7.86645918
   5.35834625  2.84414725  7.86645918
   0.32994825  7.87254525  7.86645918
   5.57831175  8.09251075  7.86645918
   0.00000000  0.00000000  0.05437520
   5.24836350  0.21996550  0.05437520
   0.21996550  5.24836350  0.05437520
   5.46832900  5.46832900  0.05437520
   2.62418175  0.10998275  7.87889495
   7.87254525  0.32994825  7.87889495
   2.84414725  5.35834625  7.87889495
   8.09251075  5.57831175  7.87889495
   2.73416450  2.73416450  5.27072170
   7.98252800  2.95413000  5.27072170
   2.95413000  7.98252800  5.27072170
   8.20249350  8.20249350  5.27072170
   0.10998275  2.62418175  2.66254845
   5.35834625  2.84414725  2.66254845
   0.32994825  7.87254525  2.66254845
   5.57831175  8.09251075  2.66254845
 


--------------------------------------------------------------------------------------------------------


 k-point  1 :   0.0000 0.0000 0.0000  plane waves:   48287
 k-point  2 :   0.5000-0.0000 0.0000  plane waves:   48256
 k-point  3 :   0.5000 0.5000 0.0000  plane waves:   48260
 k-point  4 :   0.0000 0.0000 0.5000  plane waves:   48246
 k-point  5 :   0.5000-0.0000 0.5000  plane waves:   48216
 k-point  6 :   0.5000 0.5000 0.5000  plane waves:   48140

 maximum and minimum number of plane-waves per node :     48287    48140

 maximum number of plane-waves:     48287
 maximum index in each direction: 
   IXMAX=   22   IYMAX=   22   IZMAX=   22
   IXMIN=  -23   IYMIN=  -23   IZMIN=  -23


 serial   3D FFT for wavefunctions
 parallel 3D FFT for charge:
    minimum data exchange during FFTs selected (reduces bandwidth)


 total amount of memory used by VASP MPI-rank0   300225. kBytes
=======================================================================

   base      :      30000. kBytes
   nonl-proj :     174956. kBytes
   fftplans  :       4588. kBytes
   grid      :      69719. kBytes
   one-center:       1990. kBytes
   wavefun   :      18972. kBytes
 
     INWAV:  cpu time    0.0000: real time    0.0000
 Broyden mixing: mesh for mixing (old mesh)
   NGX = 45   NGY = 45   NGZ = 45
  (NGX  =192   NGY  =192   NGZ  =180)
  gives a total of  91125 points

 initial charge density was supplied:
 charge density of overlapping atoms calculated
 number of electron     688.0000000 magnetization       0.0000000
 keeping initial charge density in first step


--------------------------------------------------------------------------------------------------------


 Maximum index for augmentation-charges          897 (set IRDMAX)


--------------------------------------------------------------------------------------------------------


 First call to EWALD:  gamma=   0.169
 Maximum number of real-space cells 3x 3x 3
 Maximum number of reciprocal cells 3x 3x 3

    FEWALD:  cpu time    0.0022: real time    0.0025


--------------------------------------- Iteration      1(   1)  ---------------------------------------


    POTLOK:  cpu time    0.3295: real time    0.3855
    SETDIJ:  cpu time    0.0145: real time    0.0146
     EDDAV:  cpu time   63.6987: real time   64.2257
 BZINTS: Fermi energy: 16.850540;688.000000 electrons
         Band energy:***********;  BLOECHL correction: -0.010639
       DOS:  cpu time    0.0202: real time    0.0203
    --------------------------------------------
      LOOP:  cpu time   64.0629: real time   64.6461

 eigenvalue-minimisations  : 12288
 total energy-change (2. order) : 0.6191899E+04  (-0.5037150E+05)
 number of electron     688.0000000 magnetization       0.0000000
 augmentation part      688.0000000 magnetization       0.0000000

 Free energy of the ion-electron system (eV)
  ---------------------------------------------------
  alpha Z        PSCENC =      2362.72367973
  Ewald energy   TEWEN  =    -62558.56168243
  -Hartree energ DENC   =    -44260.41213538
  -exchange      EXHF   =         0.00000000
  -V(xc)+E(xc)   XCENC  =      3320.12348471
  PAW double counting   =     94592.23312189   -98164.79192727
  entropy T*S    EENTRO =         0.00000000
  eigenvalues    EBANDS =     -3119.48016262
  atomic energy  EATOM  =    114020.06510763
  Solvation  Ediel_sol  =         0.00000000
  ---------------------------------------------------
  free energy    TOTEN  =      6191.89948625 eV

  energy without entropy =     6191.89948625  energy(sigma->0) =     6191.89948625


--------------------------------------------------------------------------------------------------------




--------------------------------------- Iteration      1(   2)  ---------------------------------------


     EDDAV:  cpu time   73.9522: real time   74.4985
 BZINTS: Fermi energy:  6.652416;688.000000 electrons
         Band energy:***********;  BLOECHL correction:  0.000000
       DOS:  cpu time    0.0028: real time    0.0029
    --------------------------------------------
      LOOP:  cpu time   73.9550: real time   74.5014

 eigenvalue-minimisations  : 13312
 total energy-change (2. order) :-0.6285789E+04  (-0.6154570E+04)
 number of electron     688.0000000 magnetization       0.0000000
 augmentation part      688.0000000 magnetization       0.0000000

 Free energy of the ion-electron system (eV)
  ---------------------------------------------------
  alpha Z        PSCENC =      2362.72367973
  Ewald energy   TEWEN  =    -62558.56168243
  -Hartree energ DENC   =    -44260.41213538
  -exchange      EXHF   =         0.00000000
  -V(xc)+E(xc)   XCENC  =      3320.12348471
  PAW double counting   =     94592.23312189   -98164.79192727
  entropy T*S    EENTRO =         0.00000000
  eigenvalues    EBANDS =     -9405.26867010
  atomic energy  EATOM  =    114020.06510763
  Solvation  Ediel_sol  =         0.00000000
  ---------------------------------------------------
  free energy    TOTEN  =       -93.88902124 eV

  energy without entropy =      -93.88902124  energy(sigma->0) =      -93.88902124


--------------------------------------------------------------------------------------------------------




--------------------------------------- Iteration      1(   3)  ---------------------------------------


     EDDAV:  cpu time  121.4064: real time  122.2264
 BZINTS: Fermi energy:  6.134241;688.000000 electrons
         Band energy:***********;  BLOECHL correction:  0.000000
       DOS:  cpu time    0.0029: real time    0.0029
    --------------------------------------------
      LOOP:  cpu time  121.4092: real time  122.2293

 eigenvalue-minimisations  : 17408
 total energy-change (2. order) :-0.2780049E+03  (-0.2768122E+03)
 number of electron     688.0000000 magnetization       0.0000000
 augmentation part      688.0000000 magnetization       0.0000000

 Free energy of the ion-electron system (eV)
  ---------------------------------------------------
  alpha Z        PSCENC =      2362.72367973
  Ewald energy   TEWEN  =    -62558.56168243
  -Hartree energ DENC   =    -44260.41213538
  -exchange      EXHF   =         0.00000000
  -V(xc)+E(xc)   XCENC  =      3320.12348471
  PAW double counting   =     94592.23312189   -98164.79192727
  entropy T*S    EENTRO =         0.00000000
  eigenvalues    EBANDS =     -9683.27355044
  atomic energy  EATOM  =    114020.06510763
  Solvation  Ediel_sol  =         0.00000000
  ---------------------------------------------------
  free energy    TOTEN  =      -371.89390158 eV

  energy without entropy =     -371.89390158  energy(sigma->0) =     -371.89390158


--------------------------------------------------------------------------------------------------------




--------------------------------------- Iteration      1(   4)  ---------------------------------------


     EDDAV:  cpu time   85.5363: real time   86.1501
 BZINTS: Fermi energy:  6.121397;688.000000 electrons
         Band energy:***********;  BLOECHL correction:  0.000000
       DOS:  cpu time    0.0033: real time    0.0033
    --------------------------------------------
      LOOP:  cpu time   85.5396: real time   86.1533

 eigenvalue-minimisations  : 14080
 total energy-change (2. order) :-0.3871589E+01  (-0.3871385E+01)
 number of electron     688.0000000 magnetization       0.0000000
 augmentation part      688.0000000 magnetization       0.0000000

 Free energy of the ion-electron system (eV)
  ---------------------------------------------------
  alpha Z        PSCENC =      2362.72367973
  Ewald energy   TEWEN  =    -62558.56168243
  -Hartree energ DENC   =    -44260.41213538
  -exchange      EXHF   =         0.00000000
  -V(xc)+E(xc)   XCENC  =      3320.12348471
  PAW double counting   =     94592.23312189   -98164.79192727
  entropy T*S    EENTRO =         0.00000000
  eigenvalues    EBANDS =     -9687.14513981
  atomic energy  EATOM  =    114020.06510763
  Solvation  Ediel_sol  =         0.00000000
  ---------------------------------------------------
  free energy    TOTEN  =      -375.76549095 eV

  energy without entropy =     -375.76549095  energy(sigma->0) =     -375.76549095


--------------------------------------------------------------------------------------------------------




--------------------------------------- Iteration      1(   5)  ---------------------------------------


     EDDAV:  cpu time  121.1612: real time  121.9726
 BZINTS: Fermi energy:  6.087976;688.000000 electrons
         Band energy:***********;  BLOECHL correction:  0.000000
       DOS:  cpu time    0.0028: real time    0.0028
    CHARGE:  cpu time    1.1942: real time    1.2015
    MIXING:  cpu time    0.0048: real time    0.0048
    --------------------------------------------
      LOOP:  cpu time  122.3630: real time  123.1818

 eigenvalue-minimisations  : 16896
 total energy-change (2. order) :-0.1041648E+00  (-0.1041641E+00)
 number of electron     688.0000374 magnetization       0.0000000
 augmentation part      260.9934584 magnetization       0.0000000

 Broyden mixing:
  rms(total) = 0.75080E+01    rms(broyden)= 0.75080E+01
  rms(prec ) = 0.90005E+01
  weight for this iteration     100.00

 Free energy of the ion-electron system (eV)
  ---------------------------------------------------
  alpha Z        PSCENC =      2362.72367973
  Ewald energy   TEWEN  =    -62558.56168243
  -Hartree energ DENC   =    -44260.41213538
  -exchange      EXHF   =         0.00000000
  -V(xc)+E(xc)   XCENC  =      3320.12348471
  PAW double counting   =     94592.23312189   -98164.79192727
  entropy T*S    EENTRO =         0.00000000
  eigenvalues    EBANDS =     -9687.24930465
  atomic energy  EATOM  =    114020.06510763
  Solvation  Ediel_sol  =         0.00000000
  ---------------------------------------------------
  free energy    TOTEN  =      -375.86965579 eV

  energy without entropy =     -375.86965579  energy(sigma->0) =     -375.86965579


--------------------------------------------------------------------------------------------------------




--------------------------------------- Iteration      1(   6)  ---------------------------------------


    POTLOK:  cpu time    0.1300: real time    0.1314
    SETDIJ:  cpu time    0.0130: real time    0.0131
     EDDAV:  cpu time   65.1115: real time   65.6099
 BZINTS: Fermi energy:  4.322376;688.000000 electrons
         Band energy:***********;  BLOECHL correction:  0.000000
       DOS:  cpu time    0.0032: real time    0.0032
    CHARGE:  cpu time    1.1927: real time    1.1999
    MIXING:  cpu time    0.0027: real time    0.0113
    --------------------------------------------
      LOOP:  cpu time   66.4531: real time   66.9687

 eigenvalue-minimisations  : 12288
 total energy-change (2. order) : 0.4147702E+02  (-0.5918042E+02)
 number of electron     688.0000402 magnetization       0.0000000
 augmentation part      296.4616217 magnetization       0.0000000

 Broyden mixing:
  rms(total) = 0.10021E+02    rms(broyden)= 0.10021E+02
  rms(prec ) = 0.10484E+02
  weight for this iteration     100.00

 eigenvalues of (default mixing * dielectric matrix)
  average eigenvalue GAMMA=   0.1693
  0.1693

 Free energy of the ion-electron system (eV)
  ---------------------------------------------------
  alpha Z        PSCENC =      2362.72367973
  Ewald energy   TEWEN  =    -62558.56168243
  -Hartree energ DENC   =    -42300.20372499
  -exchange      EXHF   =         0.00000000
  -V(xc)+E(xc)   XCENC  =      3267.47333812
  PAW double counting   =     96402.35935836   -99761.05025187
  entropy T*S    EENTRO =         0.00000000
  eigenvalues    EBANDS =    -11767.19846010
  atomic energy  EATOM  =    114020.06510763
  Solvation  Ediel_sol  =         0.00000000
  ---------------------------------------------------
  free energy    TOTEN  =      -334.39263556 eV

  energy without entropy =     -334.39263556  energy(sigma->0) =     -334.39263556


--------------------------------------------------------------------------------------------------------




--------------------------------------- Iteration      1(   7)  ---------------------------------------


    POTLOK:  cpu time    0.1297: real time    0.1311
    SETDIJ:  cpu time    0.0131: real time    0.0132
     EDDAV:  cpu time   70.9846: real time   71.5160
 BZINTS: Fermi energy:  4.758244;688.000000 electrons
         Band energy:***********;  BLOECHL correction:  0.000000
       DOS:  cpu time    0.0032: real time    0.0032
    CHARGE:  cpu time    1.1941: real time    1.2011
    MIXING:  cpu time    0.0019: real time    0.0034
    --------------------------------------------
      LOOP:  cpu time   72.3266: real time   72.8681

 eigenvalue-minimisations  : 12800
 total energy-change (2. order) : 0.5298513E+01  (-0.1147025E+02)
 number of electron     688.0000393 magnetization      -0.0000000
 augmentation part      286.0220663 magnetization      -0.0000000

 Broyden mixing:
  rms(total) = 0.43687E+01    rms(broyden)= 0.43687E+01
  rms(prec ) = 0.44451E+01
  weight for this iteration     100.00

 eigenvalues of (default mixing * dielectric matrix)
  average eigenvalue GAMMA=   0.6163
  0.7671  0.4655

 Free energy of the ion-electron system (eV)
  ---------------------------------------------------
  alpha Z        PSCENC =      2362.72367973
  Ewald energy   TEWEN  =    -62558.56168243
  -Hartree energ DENC   =    -42788.51986388
  -exchange      EXHF   =         0.00000000
  -V(xc)+E(xc)   XCENC  =      3278.94627775
  PAW double counting   =     99825.30532276  -103341.63690797
  entropy T*S    EENTRO =         0.00000000
  eigenvalues    EBANDS =    -11127.41605632
  atomic energy  EATOM  =    114020.06510763
  Solvation  Ediel_sol  =         0.00000000
  ---------------------------------------------------
  free energy    TOTEN  =      -329.09412274 eV

  energy without entropy =     -329.09412274  energy(sigma->0) =     -329.09412274


--------------------------------------------------------------------------------------------------------




--------------------------------------- Iteration      1(   8)  ---------------------------------------


    POTLOK:  cpu time    0.1295: real time    0.1305
    SETDIJ:  cpu time    0.0129: real time    0.0129
     EDDAV:  cpu time   92.0079: real time   92.6515
 BZINTS: Fermi energy:  5.287278;688.000000 electrons
         Band energy:***********;  BLOECHL correction:  0.000000
       DOS:  cpu time    0.0032: real time    0.0032
    CHARGE:  cpu time    1.2035: real time    1.2105
    MIXING:  cpu time    0.0016: real time    0.0016
    --------------------------------------------
      LOOP:  cpu time   93.3586: real time   94.0102

 eigenvalue-minimisations  : 14592
 total energy-change (2. order) :-0.7467736E-01  (-0.3733547E+01)
 number of electron     688.0000388 magnetization      -0.0000000
 augmentation part      281.5293675 magnetization      -0.0000000

 Broyden mixing:
  rms(total) = 0.32730E+01    rms(broyden)= 0.32729E+01
  rms(prec ) = 0.35548E+01
  weight for this iteration     100.00

 eigenvalues of (default mixing * dielectric matrix)
  average eigenvalue GAMMA=   0.8667
  1.5336  0.6212  0.4453

 Free energy of the ion-electron system (eV)
  ---------------------------------------------------
  alpha Z        PSCENC =      2362.72367973
  Ewald energy   TEWEN  =    -62558.56168243
  -Hartree energ DENC   =    -43046.54323662
  -exchange      EXHF   =         0.00000000
  -V(xc)+E(xc)   XCENC  =      3291.31681458
  PAW double counting   =    105287.25557591  -108902.77015478
  entropy T*S    EENTRO =         0.00000000
  eigenvalues    EBANDS =    -10782.65490413
  atomic energy  EATOM  =    114020.06510763
  Solvation  Ediel_sol  =         0.00000000
  ---------------------------------------------------
  free energy    TOTEN  =      -329.16880010 eV

  energy without entropy =     -329.16880010  energy(sigma->0) =     -329.16880010


--------------------------------------------------------------------------------------------------------




--------------------------------------- Iteration      1(   9)  ---------------------------------------


    POTLOK:  cpu time    0.1285: real time    0.1294
    SETDIJ:  cpu time    0.0132: real time    0.0132
     EDDAV:  cpu time  100.0846: real time  100.7803
 BZINTS: Fermi energy:  4.764092;688.000000 electrons
         Band energy:***********;  BLOECHL correction:  0.000000
       DOS:  cpu time    0.0032: real time    0.0032
    CHARGE:  cpu time    1.1972: real time    1.2043
    MIXING:  cpu time    0.0019: real time    0.0038
    --------------------------------------------
      LOOP:  cpu time  101.4285: real time  102.1343

 eigenvalue-minimisations  : 15616
 total energy-change (2. order) :-0.1751822E+01  (-0.1042252E+02)
 number of electron     688.0000390 magnetization      -0.0000000
 augmentation part      282.1401785 magnetization      -0.0000000

 Broyden mixing:
  rms(total) = 0.23583E+01    rms(broyden)= 0.23582E+01
  rms(prec ) = 0.28075E+01
  weight for this iteration     100.00

 eigenvalues of (default mixing * dielectric matrix)
  average eigenvalue GAMMA=   0.9791
  2.3903  0.5973  0.5973  0.3313

 Free energy of the ion-electron system (eV)
  ---------------------------------------------------
  alpha Z        PSCENC =      2362.72367973
  Ewald energy   TEWEN  =    -62558.56168243
  -Hartree energ DENC   =    -42832.41351872
  -exchange      EXHF   =         0.00000000
  -V(xc)+E(xc)   XCENC  =      3284.02182783
  PAW double counting   =    109659.29820575  -113310.71259099
  entropy T*S    EENTRO =         0.00000000
  eigenvalues    EBANDS =    -10955.34165124
  atomic energy  EATOM  =    114020.06510763
  Solvation  Ediel_sol  =         0.00000000
  ---------------------------------------------------
  free energy    TOTEN  =      -330.92062245 eV

  energy without entropy =     -330.92062245  energy(sigma->0) =     -330.92062245


--------------------------------------------------------------------------------------------------------




--------------------------------------- Iteration      1(  10)  ---------------------------------------


    POTLOK:  cpu time    0.1299: real time    0.1308
    SETDIJ:  cpu time    0.0129: real time    0.0130
     EDDAV:  cpu time  106.7238: real time  107.4626
 BZINTS: Fermi energy:  4.976171;688.000000 electrons
         Band energy:***********;  BLOECHL correction:  0.000000
       DOS:  cpu time    0.0028: real time    0.0028
    CHARGE:  cpu time    1.1947: real time    1.2016
    MIXING:  cpu time    0.0017: real time    0.0017
    --------------------------------------------
      LOOP:  cpu time  108.0658: real time  108.8126

 eigenvalue-minimisations  : 16128
 total energy-change (2. order) : 0.3682299E+01  (-0.2136029E+01)
 number of electron     688.0000388 magnetization      -0.0000000
 augmentation part      282.4092436 magnetization      -0.0000000

 Broyden mixing:
  rms(total) = 0.27567E+00    rms(broyden)= 0.27561E+00
  rms(prec ) = 0.30552E+00
  weight for this iteration     100.00

 eigenvalues of (default mixing * dielectric matrix)
  average eigenvalue GAMMA=   0.9218
  2.3564  0.7772  0.5763  0.5763  0.3227

 Free energy of the ion-electron system (eV)
  ---------------------------------------------------
  alpha Z        PSCENC =      2362.72367973
  Ewald energy   TEWEN  =    -62558.56168243
  -Hartree energ DENC   =    -42862.38499865
  -exchange      EXHF   =         0.00000000
  -V(xc)+E(xc)   XCENC  =      3287.31687708
  PAW double counting   =    113238.92375017  -116935.97275475
  entropy T*S    EENTRO =         0.00000000
  eigenvalues    EBANDS =    -10879.34830210
  atomic energy  EATOM  =    114020.06510763
  Solvation  Ediel_sol  =         0.00000000
  ---------------------------------------------------
  free energy    TOTEN  =      -327.23832332 eV

  energy without entropy =     -327.23832332  energy(sigma->0) =     -327.23832332


--------------------------------------------------------------------------------------------------------




--------------------------------------- Iteration      1(  11)  ---------------------------------------


    POTLOK:  cpu time    0.1316: real time    0.1349
    SETDIJ:  cpu time    0.0129: real time    0.0130
     EDDAV:  cpu time  119.0640: real time  119.8739
 BZINTS: Fermi energy:  4.990166;688.000000 electrons
         Band energy:***********;  BLOECHL correction:  0.000000
       DOS:  cpu time    0.0028: real time    0.0028
    CHARGE:  cpu time    1.1975: real time    1.2044
    MIXING:  cpu time    0.0017: real time    0.0017
    --------------------------------------------
      LOOP:  cpu time  120.4106: real time  121.2308

 eigenvalue-minimisations  : 17408
 total energy-change (2. order) :-0.1250166E+00  (-0.1306557E+00)
 number of electron     688.0000387 magnetization      -0.0000000
 augmentation part      282.3699105 magnetization      -0.0000000

 Broyden mixing:
  rms(total) = 0.35596E+00    rms(broyden)= 0.35594E+00
  rms(prec ) = 0.39263E+00
  weight for this iteration     100.00

 eigenvalues of (default mixing * dielectric matrix)
  average eigenvalue GAMMA=   0.9025
  2.2474  0.8014  0.7274  0.7274  0.5754  0.3362

 Free energy of the ion-electron system (eV)
  ---------------------------------------------------
  alpha Z        PSCENC =      2362.72367973
  Ewald energy   TEWEN  =    -62558.56168243
  -Hartree energ DENC   =    -42880.65692190
  -exchange      EXHF   =         0.00000000
  -V(xc)+E(xc)   XCENC  =      3287.06055281
  PAW double counting   =    113028.43534335  -116725.44929266
  entropy T*S    EENTRO =         0.00000000
  eigenvalues    EBANDS =    -10860.98012641
  atomic energy  EATOM  =    114020.06510763
  Solvation  Ediel_sol  =         0.00000000
  ---------------------------------------------------
  free energy    TOTEN  =      -327.36333988 eV

  energy without entropy =     -327.36333988  energy(sigma->0) =     -327.36333988


--------------------------------------------------------------------------------------------------------




--------------------------------------- Iteration      1(  12)  ---------------------------------------


    POTLOK:  cpu time    0.1323: real time    0.1350
    SETDIJ:  cpu time    0.0130: real time    0.0131
     EDDAV:  cpu time  107.6303: real time  108.3687
 BZINTS: Fermi energy:  4.973488;688.000000 electrons
         Band energy:***********;  BLOECHL correction:  0.000000
       DOS:  cpu time    0.0028: real time    0.0028
    CHARGE:  cpu time    1.1960: real time    1.2032
    MIXING:  cpu time    0.0019: real time    0.0019
    --------------------------------------------
      LOOP:  cpu time  108.9763: real time  109.7247

 eigenvalue-minimisations  : 15872
 total energy-change (2. order) : 0.1000105E-01  (-0.4992299E-01)
 number of electron     688.0000387 magnetization      -0.0000000
 augmentation part      282.2579181 magnetization      -0.0000000

 Broyden mixing:
  rms(total) = 0.13263E+00    rms(broyden)= 0.13262E+00
  rms(prec ) = 0.14781E+00
  weight for this iteration     100.00

 eigenvalues of (default mixing * dielectric matrix)
  average eigenvalue GAMMA=   0.9437
  2.2716  1.0899  1.0899  0.6221  0.6221  0.5743  0.3359

 Free energy of the ion-electron system (eV)
  ---------------------------------------------------
  alpha Z        PSCENC =      2362.72367973
  Ewald energy   TEWEN  =    -62558.56168243
  -Hartree energ DENC   =    -42879.88440364
  -exchange      EXHF   =         0.00000000
  -V(xc)+E(xc)   XCENC  =      3286.55709619
  PAW double counting   =    112637.46348417  -116331.36870046
  entropy T*S    EENTRO =         0.00000000
  eigenvalues    EBANDS =    -10864.34792002
  atomic energy  EATOM  =    114020.06510763
  Solvation  Ediel_sol  =         0.00000000
  ---------------------------------------------------
  free energy    TOTEN  =      -327.35333883 eV

  energy without entropy =     -327.35333883  energy(sigma->0) =     -327.35333883


--------------------------------------------------------------------------------------------------------




--------------------------------------- Iteration      1(  13)  ---------------------------------------


    POTLOK:  cpu time    0.1307: real time    0.1317
    SETDIJ:  cpu time    0.0130: real time    0.0130
     EDDAV:  cpu time  102.4191: real time  103.1303
 BZINTS: Fermi energy:  4.976276;688.000000 electrons
         Band energy:***********;  BLOECHL correction:  0.000000
       DOS:  cpu time    0.0028: real time    0.0028
    CHARGE:  cpu time    1.1936: real time    1.2012
    MIXING:  cpu time    0.0019: real time    0.0019
    --------------------------------------------
      LOOP:  cpu time  103.7611: real time  104.4810

 eigenvalue-minimisations  : 15360
 total energy-change (2. order) :-0.7272941E-02  (-0.4927129E-02)
 number of electron     688.0000387 magnetization       0.0000000
 augmentation part      282.2725103 magnetization       0.0000000

 Broyden mixing:
  rms(total) = 0.89985E-01    rms(broyden)= 0.89984E-01
  rms(prec ) = 0.92512E-01
  weight for this iteration     100.00

 eigenvalues of (default mixing * dielectric matrix)
  average eigenvalue GAMMA=   1.1298
  2.5558  2.5558  0.3359  0.8453  0.8453  0.6637  0.6637  0.5732

 Free energy of the ion-electron system (eV)
  ---------------------------------------------------
  alpha Z        PSCENC =      2362.72367973
  Ewald energy   TEWEN  =    -62558.56168243
  -Hartree energ DENC   =    -42885.55593763
  -exchange      EXHF   =         0.00000000
  -V(xc)+E(xc)   XCENC  =      3286.62561148
  PAW double counting   =    112390.33299296  -116084.09426581
  entropy T*S    EENTRO =         0.00000000
  eigenvalues    EBANDS =    -10858.89611770
  atomic energy  EATOM  =    114020.06510763
  Solvation  Ediel_sol  =         0.00000000
  ---------------------------------------------------
  free energy    TOTEN  =      -327.36061177 eV

  energy without entropy =     -327.36061177  energy(sigma->0) =     -327.36061177


--------------------------------------------------------------------------------------------------------




--------------------------------------- Iteration      1(  14)  ---------------------------------------


    POTLOK:  cpu time    0.1305: real time    0.1314
    SETDIJ:  cpu time    0.0129: real time    0.0130
     EDDAV:  cpu time  113.4391: real time  114.2065
 BZINTS: Fermi energy:  4.979158;688.000000 electrons
         Band energy:***********;  BLOECHL correction:  0.000000
       DOS:  cpu time    0.0028: real time    0.0028
    CHARGE:  cpu time    1.1921: real time    1.1988
    MIXING:  cpu time    0.0020: real time    0.0020
    --------------------------------------------
      LOOP:  cpu time  114.7793: real time  115.5544

 eigenvalue-minimisations  : 16384
 total energy-change (2. order) :-0.1181423E-01  (-0.6755492E-02)
 number of electron     688.0000387 magnetization       0.0000000
 augmentation part      282.2346847 magnetization       0.0000000

 Broyden mixing:
  rms(total) = 0.42691E-01    rms(broyden)= 0.42684E-01
  rms(prec ) = 0.47930E-01
  weight for this iteration     100.00

 eigenvalues of (default mixing * dielectric matrix)
  average eigenvalue GAMMA=   1.0563
  2.3973  2.3973  0.9366  0.9366  0.3358  0.6449  0.6449  0.5652  0.6478

 Free energy of the ion-electron system (eV)
  ---------------------------------------------------
  alpha Z        PSCENC =      2362.72367973
  Ewald energy   TEWEN  =    -62558.56168243
  -Hartree energ DENC   =    -42894.26055566
  -exchange      EXHF   =         0.00000000
  -V(xc)+E(xc)   XCENC  =      3286.44687667
  PAW double counting   =    112111.32287976  -115804.44634768
  entropy T*S    EENTRO =         0.00000000
  eigenvalues    EBANDS =    -10850.66238401
  atomic energy  EATOM  =    114020.06510763
  Solvation  Ediel_sol  =         0.00000000
  ---------------------------------------------------
  free energy    TOTEN  =      -327.37242600 eV

  energy without entropy =     -327.37242600  energy(sigma->0) =     -327.37242600


--------------------------------------------------------------------------------------------------------




--------------------------------------- Iteration      1(  15)  ---------------------------------------


    POTLOK:  cpu time    0.1295: real time    0.1315
    SETDIJ:  cpu time    0.0129: real time    0.0130
     EDDAV:  cpu time   80.1605: real time   80.7397
 BZINTS: Fermi energy:  4.978024;688.000000 electrons
         Band energy:***********;  BLOECHL correction:  0.000000
       DOS:  cpu time    0.0028: real time    0.0028
    CHARGE:  cpu time    1.1962: real time    1.2032
    MIXING:  cpu time    0.0020: real time    0.0020
    --------------------------------------------
      LOOP:  cpu time   81.5039: real time   82.0922

 eigenvalue-minimisations  : 13312
 total energy-change (2. order) : 0.2470059E-03  (-0.5689040E-03)
 number of electron     688.0000387 magnetization       0.0000000
 augmentation part      282.2336217 magnetization       0.0000000

 Broyden mixing:
  rms(total) = 0.18638E-01    rms(broyden)= 0.18638E-01
  rms(prec ) = 0.19642E-01
  weight for this iteration     100.00

 eigenvalues of (default mixing * dielectric matrix)
  average eigenvalue GAMMA=   0.9952
  2.3399  2.3399  0.9423  0.9423  0.3358  0.6273  0.6273  0.6032  0.5968  0.5968

 Free energy of the ion-electron system (eV)
  ---------------------------------------------------
  alpha Z        PSCENC =      2362.72367973
  Ewald energy   TEWEN  =    -62558.56168243
  -Hartree energ DENC   =    -42893.04887005
  -exchange      EXHF   =         0.00000000
  -V(xc)+E(xc)   XCENC  =      3286.42602412
  PAW double counting   =    112201.04815795  -115894.45301417
  entropy T*S    EENTRO =         0.00000000
  eigenvalues    EBANDS =    -10851.57158176
  atomic energy  EATOM  =    114020.06510763
  Solvation  Ediel_sol  =         0.00000000
  ---------------------------------------------------
  free energy    TOTEN  =      -327.37217899 eV

  energy without entropy =     -327.37217899  energy(sigma->0) =     -327.37217899


--------------------------------------------------------------------------------------------------------




--------------------------------------- Iteration      1(  16)  ---------------------------------------


    POTLOK:  cpu time    0.1304: real time    0.1314
    SETDIJ:  cpu time    0.0129: real time    0.0130
     EDDAV:  cpu time  133.6017: real time  134.4847
 BZINTS: Fermi energy:  4.978024;688.000000 electrons
         Band energy:***********;  BLOECHL correction:  0.000000
       DOS:  cpu time    0.0028: real time    0.0028
    CHARGE:  cpu time    1.4537: real time    1.4614
    MIXING:  cpu time    0.0025: real time    0.0030
    --------------------------------------------
      LOOP:  cpu time  135.2041: real time  136.0963

 eigenvalue-minimisations  : 17408
 total energy-change (2. order) :-0.2352681E-03  (-0.5513437E-04)
 number of electron     688.0000387 magnetization       0.0000000
 augmentation part      282.2352508 magnetization       0.0000000

 Broyden mixing:
  rms(total) = 0.13185E-01    rms(broyden)= 0.13185E-01
  rms(prec ) = 0.13778E-01
  weight for this iteration     100.00

 eigenvalues of (default mixing * dielectric matrix)
  average eigenvalue GAMMA=   1.1550
  2.5983  2.2049  2.2049  1.1469  0.3358  0.8366  0.8366  0.6679  0.6679  0.5692
  0.6360

 Free energy of the ion-electron system (eV)
  ---------------------------------------------------
  alpha Z        PSCENC =      2362.72367973
  Ewald energy   TEWEN  =    -62558.56168243
  -Hartree energ DENC   =    -42893.26091966
  -exchange      EXHF   =         0.00000000
  -V(xc)+E(xc)   XCENC  =      3286.44344005
  PAW double counting   =    112212.98269305  -115906.32194443
  entropy T*S    EENTRO =         0.00000000
  eigenvalues    EBANDS =    -10851.44278820
  atomic energy  EATOM  =    114020.06510763
  Solvation  Ediel_sol  =         0.00000000
  ---------------------------------------------------
  free energy    TOTEN  =      -327.37241426 eV

  energy without entropy =     -327.37241426  energy(sigma->0) =     -327.37241426


--------------------------------------------------------------------------------------------------------




--------------------------------------- Iteration      1(  17)  ---------------------------------------


    POTLOK:  cpu time    0.1451: real time    0.1461
    SETDIJ:  cpu time    0.0167: real time    0.0168
     EDDAV:  cpu time   94.1933: real time   94.8561
 BZINTS: Fermi energy:  4.978709;688.000000 electrons
         Band energy:***********;  BLOECHL correction:  0.000000
       DOS:  cpu time    0.0028: real time    0.0028
    CHARGE:  cpu time    1.1941: real time    1.2010
    MIXING:  cpu time    0.0021: real time    0.0021
    --------------------------------------------
      LOOP:  cpu time   95.5541: real time   96.2248

 eigenvalue-minimisations  : 14592
 total energy-change (2. order) :-0.7261937E-03  (-0.3609027E-03)
 number of electron     688.0000387 magnetization       0.0000000
 augmentation part      282.2262386 magnetization       0.0000000

 Broyden mixing:
  rms(total) = 0.83000E-02    rms(broyden)= 0.82987E-02
  rms(prec ) = 0.86987E-02
  weight for this iteration     100.00

 eigenvalues of (default mixing * dielectric matrix)
  average eigenvalue GAMMA=   1.1687
  3.4034  2.0932  1.9504  1.2211  0.9275  0.9275  0.3358  0.6532  0.6532  0.5811
  0.6392  0.6392

 Free energy of the ion-electron system (eV)
  ---------------------------------------------------
  alpha Z        PSCENC =      2362.72367973
  Ewald energy   TEWEN  =    -62558.56168243
  -Hartree energ DENC   =    -42895.07499918
  -exchange      EXHF   =         0.00000000
  -V(xc)+E(xc)   XCENC  =      3286.49463910
  PAW double counting   =    112212.77143571  -115905.89625957
  entropy T*S    EENTRO =         0.00000000
  eigenvalues    EBANDS =    -10849.89506144
  atomic energy  EATOM  =    114020.06510763
  Solvation  Ediel_sol  =         0.00000000
  ---------------------------------------------------
  free energy    TOTEN  =      -327.37314045 eV

  energy without entropy =     -327.37314045  energy(sigma->0) =     -327.37314045


--------------------------------------------------------------------------------------------------------




--------------------------------------- Iteration      1(  18)  ---------------------------------------


    POTLOK:  cpu time    0.1305: real time    0.1316
    SETDIJ:  cpu time    0.0132: real time    0.0133
     EDDAV:  cpu time  100.4392: real time  101.1292
 BZINTS: Fermi energy:  4.978613;688.000000 electrons
         Band energy:***********;  BLOECHL correction:  0.000000
       DOS:  cpu time    0.0028: real time    0.0028
    CHARGE:  cpu time    1.2006: real time    1.2078
    MIXING:  cpu time    0.0022: real time    0.0022
    --------------------------------------------
      LOOP:  cpu time  101.7886: real time  102.4870

 eigenvalue-minimisations  : 14848
 total energy-change (2. order) :-0.7409953E-04  (-0.2502800E-04)
 number of electron     688.0000387 magnetization       0.0000000
 augmentation part      282.2334278 magnetization       0.0000000

 Broyden mixing:
  rms(total) = 0.55085E-02    rms(broyden)= 0.55082E-02
  rms(prec ) = 0.64528E-02
  weight for this iteration     100.00

 eigenvalues of (default mixing * dielectric matrix)
  average eigenvalue GAMMA=   1.1505
  3.5500  2.1038  2.1038  1.0559  1.0559  0.3358  0.7417  0.7417  0.7894  0.6582
  0.6582  0.5811  0.5811

 Free energy of the ion-electron system (eV)
  ---------------------------------------------------
  alpha Z        PSCENC =      2362.72367973
  Ewald energy   TEWEN  =    -62558.56168243
  -Hartree energ DENC   =    -42894.92315483
  -exchange      EXHF   =         0.00000000
  -V(xc)+E(xc)   XCENC  =      3286.50076300
  PAW double counting   =    112216.61982107  -115909.71099661
  entropy T*S    EENTRO =         0.00000000
  eigenvalues    EBANDS =    -10850.08675211
  atomic energy  EATOM  =    114020.06510763
  Solvation  Ediel_sol  =         0.00000000
  ---------------------------------------------------
  free energy    TOTEN  =      -327.37321455 eV

  energy without entropy =     -327.37321455  energy(sigma->0) =     -327.37321455


--------------------------------------------------------------------------------------------------------




--------------------------------------- Iteration      1(  19)  ---------------------------------------


    POTLOK:  cpu time    0.1284: real time    0.1312
    SETDIJ:  cpu time    0.0130: real time    0.0131
     EDDAV:  cpu time  136.0746: real time  136.9557
 BZINTS: Fermi energy:  4.978460;688.000000 electrons
         Band energy:***********;  BLOECHL correction:  0.000000
       DOS:  cpu time    0.0028: real time    0.0028
    CHARGE:  cpu time    1.3565: real time    1.3641
    MIXING:  cpu time    0.0024: real time    0.0024
    --------------------------------------------
      LOOP:  cpu time  137.5777: real time  138.4692

 eigenvalue-minimisations  : 17664
 total energy-change (2. order) :-0.3465364E-05  (-0.6448788E-05)
 number of electron     688.0000387 magnetization       0.0000000
 augmentation part      282.2336717 magnetization       0.0000000

 Broyden mixing:
  rms(total) = 0.34154E-02    rms(broyden)= 0.34154E-02
  rms(prec ) = 0.37830E-02
  weight for this iteration     100.00

 eigenvalues of (default mixing * dielectric matrix)
  average eigenvalue GAMMA=   1.2054
  3.6562  2.3138  2.3138  1.2293  1.2293  0.9739  0.9739  0.3358  0.6620  0.6620
[...]
   -.419E+02 0.626E+00 0.258E+02   0.427E+02 -.597E+00 -.260E+02   -.848E+00 -.285E-01 0.250E+00   -.134E-03 -.738E-05 -.956E-05
   -.419E+02 0.626E+00 0.258E+02   0.427E+02 -.597E+00 -.260E+02   -.848E+00 -.285E-01 0.250E+00   -.134E-03 -.738E-05 -.956E-05
   -.419E+02 0.626E+00 0.258E+02   0.427E+02 -.597E+00 -.260E+02   -.848E+00 -.285E-01 0.250E+00   -.134E-03 -.738E-05 -.956E-05
   -.419E+02 0.626E+00 0.258E+02   0.427E+02 -.597E+00 -.260E+02   -.848E+00 -.285E-01 0.250E+00   -.134E-03 -.738E-05 -.956E-05
   0.419E+02 -.626E+00 0.258E+02   -.427E+02 0.597E+00 -.260E+02   0.848E+00 0.285E-01 0.250E+00   0.134E-03 0.738E-05 -.956E-05
   0.419E+02 -.626E+00 0.258E+02   -.427E+02 0.597E+00 -.260E+02   0.848E+00 0.285E-01 0.250E+00   0.134E-03 0.738E-05 -.956E-05
   0.419E+02 -.626E+00 0.258E+02   -.427E+02 0.597E+00 -.260E+02   0.848E+00 0.285E-01 0.250E+00   0.134E-03 0.738E-05 -.956E-05
   0.419E+02 -.626E+00 0.258E+02   -.427E+02 0.597E+00 -.260E+02   0.848E+00 0.285E-01 0.250E+00   0.134E-03 0.738E-05 -.956E-05
   0.626E+00 -.419E+02 0.258E+02   -.597E+00 0.427E+02 -.260E+02   -.285E-01 -.848E+00 0.250E+00   -.738E-05 -.134E-03 -.956E-05
   0.626E+00 -.419E+02 0.258E+02   -.597E+00 0.427E+02 -.260E+02   -.285E-01 -.848E+00 0.250E+00   -.738E-05 -.134E-03 -.956E-05
   0.626E+00 -.419E+02 0.258E+02   -.597E+00 0.427E+02 -.260E+02   -.285E-01 -.848E+00 0.250E+00   -.738E-05 -.134E-03 -.956E-05
   0.626E+00 -.419E+02 0.258E+02   -.597E+00 0.427E+02 -.260E+02   -.285E-01 -.848E+00 0.250E+00   -.738E-05 -.134E-03 -.956E-05
   -.626E+00 0.419E+02 0.258E+02   0.597E+00 -.427E+02 -.260E+02   0.285E-01 0.848E+00 0.250E+00   0.738E-05 0.134E-03 -.956E-05
   -.626E+00 0.419E+02 0.258E+02   0.597E+00 -.427E+02 -.260E+02   0.285E-01 0.848E+00 0.250E+00   0.738E-05 0.134E-03 -.956E-05
   -.626E+00 0.419E+02 0.258E+02   0.597E+00 -.427E+02 -.260E+02   0.285E-01 0.848E+00 0.250E+00   0.738E-05 0.134E-03 -.956E-05
   -.626E+00 0.419E+02 0.258E+02   0.597E+00 -.427E+02 -.260E+02   0.285E-01 0.848E+00 0.250E+00   0.738E-05 0.134E-03 -.956E-05
   -.106E-06 -.785E-07 -.302E+02   -.195E-13 -.270E-12 0.290E+02   0.129E-25 -.258E-25 0.122E+01   -.109E-12 0.437E-12 0.908E-04
   -.106E-06 -.785E-07 -.302E+02   -.195E-13 -.256E-12 0.290E+02   0.404E-25 0.284E-24 0.122E+01   -.388E-12 0.222E-12 0.908E-04
   -.106E-06 -.784E-07 -.302E+02   -.195E-13 -.277E-12 0.290E+02   0.121E-24 0.116E-24 0.122E+01   -.477E-13 -.242E-12 0.908E-04
   -.106E-06 -.785E-07 -.302E+02   0.888E-14 -.284E-12 0.290E+02   -.666E-25 -.181E-24 0.122E+01   -.233E-12 -.156E-12 0.908E-04
   -.784E-07 -.106E-06 -.302E+02   -.853E-13 -.853E-13 0.290E+02   -.372E-25 0.129E-24 0.122E+01   -.441E-12 0.437E-12 0.908E-04
   -.784E-07 -.106E-06 -.302E+02   -.284E-13 -.853E-13 0.290E+02   -.275E-25 -.517E-25 0.122E+01   -.537E-13 0.736E-12 0.908E-04
   -.784E-07 -.106E-06 -.302E+02   -.568E-13 -.114E-12 0.290E+02   -.420E-25 -.129E-25 0.122E+01   -.395E-12 -.868E-13 0.908E-04
   -.784E-07 -.106E-06 -.302E+02   -.568E-13 -.114E-12 0.290E+02   -.119E-24 -.121E-24 0.122E+01   -.613E-13 -.205E-12 0.908E-04
   -.106E-06 -.784E-07 -.302E+02   -.568E-13 -.296E-12 0.290E+02   0.574E-25 -.129E-25 0.122E+01   -.602E-12 0.237E-12 0.908E-04
   -.106E-06 -.784E-07 -.302E+02   -.284E-13 -.303E-12 0.290E+02   0.450E-25 0.646E-25 0.122E+01   -.134E-12 -.476E-13 0.908E-04
   -.106E-06 -.784E-07 -.302E+02   -.853E-13 -.287E-12 0.290E+02   0.743E-25 -.155E-24 0.122E+01   -.536E-12 -.989E-13 0.908E-04
   -.106E-06 -.784E-07 -.302E+02   -.568E-13 -.273E-12 0.290E+02   0.953E-25 0.517E-25 0.122E+01   -.171E-12 -.791E-14 0.908E-04
   -.785E-07 -.106E-06 -.302E+02   -.899E-13 -.126E-12 0.290E+02   -.255E-25 0.242E-26 0.122E+01   -.561E-14 0.132E-12 0.908E-04
   -.784E-07 -.106E-06 -.302E+02   -.116E-12 -.126E-12 0.290E+02   -.106E-24 -.646E-26 0.122E+01   -.112E-12 0.127E-12 0.908E-04
   -.785E-07 -.106E-06 -.302E+02   -.118E-12 -.151E-12 0.290E+02   -.202E-24 0.181E-24 0.122E+01   0.118E-12 0.182E-12 0.908E-04
   -.784E-07 -.106E-06 -.302E+02   -.873E-13 -.948E-13 0.290E+02   0.485E-25 0.258E-25 0.122E+01   -.316E-12 0.119E-12 0.908E-04
   -.194E-07 0.394E-07 -.245E+02   0.480E-13 0.355E-13 0.230E+02   -.969E-26 -.129E-24 0.144E+01   0.355E-13 0.426E-12 0.366E-04
   -.194E-07 0.394E-07 -.245E+02   0.906E-13 -.142E-13 0.230E+02   -.170E-24 0.271E-24 0.144E+01   -.308E-13 0.437E-12 0.366E-04
   -.194E-07 0.394E-07 -.245E+02   0.551E-13 0.391E-13 0.230E+02   0.679E-25 0.103E-24 0.144E+01   0.192E-12 -.185E-12 0.366E-04
   -.194E-07 0.394E-07 -.245E+02   0.835E-13 0.426E-13 0.230E+02   -.115E-24 -.252E-24 0.144E+01   -.120E-12 -.741E-13 0.366E-04
   0.394E-07 -.194E-07 -.245E+02   -.355E-13 0.995E-13 0.230E+02   0.141E-24 0.129E-24 0.144E+01   -.373E-12 0.191E-12 0.366E-04
   0.394E-07 -.194E-07 -.245E+02   -.249E-13 0.192E-12 0.230E+02   -.969E-25 -.775E-25 0.144E+01   -.127E-13 0.353E-12 0.366E-04
   0.394E-07 -.194E-07 -.245E+02   -.426E-13 0.817E-13 0.230E+02   -.129E-24 0.129E-24 0.144E+01   -.379E-12 -.770E-13 0.366E-04
   0.394E-07 -.194E-07 -.245E+02   -.284E-13 0.231E-12 0.230E+02   0.121E-24 -.220E-24 0.144E+01   -.802E-13 -.211E-12 0.366E-04
   -.194E-07 0.394E-07 -.245E+02   0.497E-13 0.115E-13 0.230E+02   -.359E-25 0.517E-25 0.144E+01   -.285E-12 0.726E-13 0.366E-04
   -.194E-07 0.394E-07 -.245E+02   0.924E-13 0.799E-14 0.230E+02   -.646E-25 0.258E-25 0.144E+01   0.122E-12 0.103E-12 0.366E-04
   -.194E-07 0.394E-07 -.245E+02   0.568E-13 0.684E-13 0.230E+02   0.929E-26 0.420E-25 0.144E+01   -.156E-12 0.873E-13 0.366E-04
   -.194E-07 0.394E-07 -.245E+02   0.568E-13 0.648E-13 0.230E+02   -.242E-25 0.220E-24 0.144E+01   0.301E-13 0.144E-12 0.366E-04
   0.394E-07 -.194E-07 -.245E+02   -.571E-13 0.212E-12 0.230E+02   -.428E-25 -.258E-25 0.144E+01   -.139E-12 0.297E-13 0.366E-04
   0.394E-07 -.194E-07 -.245E+02   -.163E-13 0.845E-13 0.230E+02   0.184E-24 -.969E-25 0.144E+01   -.574E-13 0.287E-13 0.366E-04
   0.394E-07 -.194E-07 -.245E+02   -.195E-13 0.251E-12 0.230E+02   -.404E-26 -.142E-24 0.144E+01   0.204E-13 0.772E-14 0.366E-04
   0.394E-07 -.195E-07 -.245E+02   0.213E-13 0.131E-12 0.230E+02   -.875E-25 -.166E-25 0.144E+01   -.185E-12 -.717E-13 0.366E-04
 -----------------------------------------------------------------------------------------------
   -.105E-05 -.105E-05 -.506E+02   0.118E-12 -.103E-13 -.682E-12   0.244E-14 -.555E-15 0.507E+02   -.666E-11 0.415E-11 0.173E-02
 
 
 POSITION                                       TOTAL-FORCE (eV/Angst)
 -----------------------------------------------------------------------------------
      1.37879      1.37251      1.25593         0.001192     -0.000735     -0.004280
      6.62716      1.59247      1.25593         0.001192     -0.000735     -0.004280
      1.59876      6.62087      1.25593         0.001192     -0.000735     -0.004280
      6.84712      6.84084      1.25593         0.001192     -0.000735     -0.004280
      4.08954      4.09582      1.25593        -0.001192      0.000735     -0.004280
      9.33790      4.31579      1.25593        -0.001192      0.000735     -0.004280
      4.30950      9.34418      1.25593        -0.001192      0.000735     -0.004280
      9.55786      9.56415      1.25593        -0.001192      0.000735     -0.004280
      1.47164      3.97955      9.08045         0.000735     -0.001192     -0.004280
      6.72000      4.19952      9.08045         0.000735     -0.001192     -0.004280
      1.69160      9.22792      9.08045         0.000735     -0.001192     -0.004280
      6.93997      9.44788      9.08045         0.000735     -0.001192     -0.004280
      3.99669      1.48878      9.08045        -0.000735      0.001192     -0.004280
      9.24505      1.70874      9.08045        -0.000735      0.001192     -0.004280
      4.21666      6.73714      9.08045        -0.000735      0.001192     -0.004280
      9.46502      6.95711      9.08045        -0.000735      0.001192     -0.004280
      1.35537      1.36166      6.47228        -0.001192      0.000735     -0.004280
      6.60373      1.58162      6.47228        -0.001192      0.000735     -0.004280
      1.57534      6.61002      6.47228        -0.001192      0.000735     -0.004280
      6.82370      6.82999      6.47228        -0.001192      0.000735     -0.004280
      4.11296      4.10667      6.47228         0.001192     -0.000735     -0.004280
      9.36132      4.32664      6.47228         0.001192     -0.000735     -0.004280
      4.33292      9.35504      6.47228         0.001192     -0.000735     -0.004280
      9.58129      9.57500      6.47228         0.001192     -0.000735     -0.004280
      3.98584      1.46535      3.86410         0.000735     -0.001192     -0.004280
      9.23420      1.68532      3.86410         0.000735     -0.001192     -0.004280
      4.20580      6.71372      3.86410         0.000735     -0.001192     -0.004280
      9.45417      6.93368      3.86410         0.000735     -0.001192     -0.004280
      1.48249      4.00298      3.86410        -0.000735      0.001192     -0.004280
      6.73085      4.22294      3.86410        -0.000735      0.001192     -0.004280
      1.70246      9.25134      3.86410        -0.000735      0.001192     -0.004280
      6.95082      9.47130      3.86410        -0.000735      0.001192     -0.004280
      0.00000      0.00000      5.25829         0.000000      0.000000      0.003013
      5.24836      0.21997      5.25829         0.000000      0.000000      0.003013
      0.21997      5.24836      5.25829         0.000000      0.000000      0.003013
      5.46833      5.46833      5.25829         0.000000      0.000000      0.003013
      2.62418      0.10998      2.65011         0.000000      0.000000      0.003013
      7.87255      0.32995      2.65011         0.000000      0.000000      0.003013
      2.84415      5.35835      2.65011         0.000000      0.000000      0.003013
      8.09251      5.57831      2.65011         0.000000      0.000000      0.003013
      2.73416      2.73416      0.04194         0.000000      0.000000      0.003013
      7.98253      2.95413      0.04194         0.000000      0.000000      0.003013
      2.95413      7.98253      0.04194         0.000000      0.000000      0.003013
      8.20249      8.20249      0.04194         0.000000      0.000000      0.003013
      0.10998      2.62418      7.86646         0.000000      0.000000      0.003013
      5.35835      2.84415      7.86646         0.000000      0.000000      0.003013
      0.32995      7.87255      7.86646         0.000000      0.000000      0.003013
      5.57831      8.09251      7.86646         0.000000      0.000000      0.003013
      0.00000      0.00000      0.05438         0.000000      0.000000      0.005546
      5.24836      0.21997      0.05438         0.000000      0.000000      0.005546
      0.21997      5.24836      0.05438         0.000000      0.000000      0.005546
      5.46833      5.46833      0.05438         0.000000      0.000000      0.005546
      2.62418      0.10998      7.87889         0.000000      0.000000      0.005546
      7.87255      0.32995      7.87889         0.000000      0.000000      0.005546
      2.84415      5.35835      7.87889         0.000000      0.000000      0.005546
      8.09251      5.57831      7.87889         0.000000      0.000000      0.005546
      2.73416      2.73416      5.27072         0.000000      0.000000      0.005546
      7.98253      2.95413      5.27072         0.000000      0.000000      0.005546
      2.95413      7.98253      5.27072         0.000000      0.000000      0.005546
      8.20249      8.20249      5.27072         0.000000      0.000000      0.005546
      0.10998      2.62418      2.66255         0.000000      0.000000      0.005546
      5.35835      2.84415      2.66255         0.000000      0.000000      0.005546
      0.32995      7.87255      2.66255         0.000000      0.000000      0.005546
      5.57831      8.09251      2.66255         0.000000      0.000000      0.005546
 -----------------------------------------------------------------------------------
    total drift:                               -0.000001     -0.000001      0.032970


--------------------------------------------------------------------------------------------------------



  FREE ENERGIE OF THE ION-ELECTRON SYSTEM (eV)
  ---------------------------------------------------
  free  energy   TOTEN  =      -327.37322594 eV

  energy  without entropy=     -327.37322594  energy(sigma->0) =     -327.37322594
 


--------------------------------------------------------------------------------------------------------


    POTLOK:  cpu time    0.1413: real time    0.1420


--------------------------------------------------------------------------------------------------------


 writing wavefunctions
     LOOP+:  cpu time 2775.1354: real time 2794.5349
    4ORBIT:  cpu time    0.0000: real time    0.0000
 


 total charge     
 
# of ion       s       p       d       tot
------------------------------------------
    1        1.314   2.408   0.000   3.722
    2        1.314   2.408   0.000   3.722
    3        1.314   2.408   0.000   3.722
    4        1.314   2.408   0.000   3.722
    5        1.314   2.408   0.000   3.722
    6        1.314   2.408   0.000   3.722
    7        1.314   2.408   0.000   3.722
    8        1.314   2.408   0.000   3.722
    9        1.314   2.408   0.000   3.723
   10        1.314   2.408   0.000   3.723
   11        1.314   2.408   0.000   3.723
   12        1.314   2.408   0.000   3.723
   13        1.314   2.408   0.000   3.723
   14        1.314   2.408   0.000   3.723
   15        1.314   2.408   0.000   3.723
   16        1.314   2.408   0.000   3.723
   17        1.314   2.408   0.000   3.722
   18        1.314   2.408   0.000   3.722
   19        1.314   2.408   0.000   3.722
   20        1.314   2.408   0.000   3.722
   21        1.314   2.408   0.000   3.722
   22        1.314   2.408   0.000   3.722
   23        1.314   2.408   0.000   3.722
   24        1.314   2.408   0.000   3.722
   25        1.314   2.408   0.000   3.723
   26        1.314   2.408   0.000   3.723
   27        1.314   2.408   0.000   3.723
   28        1.314   2.408   0.000   3.723
   29        1.314   2.408   0.000   3.723
   30        1.314   2.408   0.000   3.723
   31        1.314   2.408   0.000   3.723
   32        1.314   2.408   0.000   3.723
   33        0.259   6.202   8.916  15.377
   34        0.259   6.202   8.916  15.377
   35        0.259   6.202   8.916  15.377
   36        0.259   6.202   8.916  15.377
   37        0.259   6.202   8.917  15.377
   38        0.259   6.202   8.917  15.377
   39        0.259   6.202   8.917  15.377
   40        0.259   6.202   8.917  15.377
   41        0.259   6.202   8.916  15.377
   42        0.259   6.202   8.916  15.377
   43        0.259   6.202   8.916  15.377
   44        0.259   6.202   8.916  15.377
   45        0.259   6.202   8.917  15.377
   46        0.259   6.202   8.917  15.377
   47        0.259   6.202   8.917  15.377
   48        0.259   6.202   8.917  15.377
   49        0.348   6.348   5.821  12.518
   50        0.348   6.348   5.821  12.518
   51        0.348   6.348   5.821  12.518
   52        0.348   6.348   5.821  12.518
   53        0.349   6.348   5.822  12.518
   54        0.349   6.348   5.822  12.518
   55        0.349   6.348   5.822  12.518
   56        0.349   6.348   5.822  12.518
   57        0.348   6.348   5.821  12.518
   58        0.348   6.348   5.821  12.518
   59        0.348   6.348   5.821  12.518
   60        0.348   6.348   5.821  12.518
   61        0.349   6.348   5.822  12.518
   62        0.349   6.348   5.822  12.518
   63        0.349   6.348   5.822  12.518
   64        0.349   6.348   5.822  12.518
--------------------------------------------------
tot         51.774 277.859 235.806 565.438
 


 magnetization (x)
 
# of ion       s       p       d       tot
------------------------------------------
    1       -0.001  -0.020   0.000  -0.021
    2       -0.001  -0.020   0.000  -0.021
    3       -0.001  -0.020   0.000  -0.021
    4       -0.001  -0.020   0.000  -0.021
    5       -0.001  -0.020   0.000  -0.021
    6       -0.001  -0.020   0.000  -0.021
    7       -0.001  -0.020   0.000  -0.021
    8       -0.001  -0.020   0.000  -0.021
    9        0.001   0.020   0.000   0.021
   10        0.001   0.020   0.000   0.021
   11        0.001   0.020   0.000   0.021
   12        0.001   0.020   0.000   0.021
   13        0.001   0.020   0.000   0.021
   14        0.001   0.020   0.000   0.021
   15        0.001   0.020   0.000   0.021
   16        0.001   0.020   0.000   0.021
   17       -0.001  -0.020   0.000  -0.021
   18       -0.001  -0.020   0.000  -0.021
   19       -0.001  -0.020   0.000  -0.021
   20       -0.001  -0.020   0.000  -0.021
   21       -0.001  -0.020   0.000  -0.021
   22       -0.001  -0.020   0.000  -0.021
   23       -0.001  -0.020   0.000  -0.021
   24       -0.001  -0.020   0.000  -0.021
   25        0.001   0.020   0.000   0.021
   26        0.001   0.020   0.000   0.021
   27        0.001   0.020   0.000   0.021
   28        0.001   0.020   0.000   0.021
   29        0.001   0.020   0.000   0.021
   30        0.001   0.020   0.000   0.021
   31        0.001   0.020   0.000   0.021
   32        0.001   0.020   0.000   0.021
   33        0.000  -0.000   0.002   0.002
   34        0.000  -0.000   0.002   0.002
   35        0.000  -0.000   0.002   0.002
   36        0.000  -0.000   0.002   0.002
   37       -0.000   0.000  -0.002  -0.002
   38       -0.000   0.000  -0.002  -0.002
   39       -0.000   0.000  -0.002  -0.002
   40       -0.000   0.000  -0.002  -0.002
   41        0.000  -0.000   0.002   0.002
   42        0.000  -0.000   0.002   0.002
   43        0.000  -0.000   0.002   0.002
   44        0.000  -0.000   0.002   0.002
   45       -0.000   0.000  -0.002  -0.002
   46       -0.000   0.000  -0.002  -0.002
   47       -0.000   0.000  -0.002  -0.002
   48       -0.000   0.000  -0.002  -0.002
   49        0.020   0.053   3.669   3.742
   50        0.020   0.053   3.669   3.742
   51        0.020   0.053   3.669   3.742
   52        0.020   0.053   3.669   3.742
   53       -0.020  -0.053  -3.669  -3.742
   54       -0.020  -0.053  -3.669  -3.742
   55       -0.020  -0.053  -3.669  -3.742
   56       -0.020  -0.053  -3.669  -3.742
   57        0.020   0.053   3.669   3.742
   58        0.020   0.053   3.669   3.742
   59        0.020   0.053   3.669   3.742
   60        0.020   0.053   3.669   3.742
   61       -0.020  -0.053  -3.669  -3.742
   62       -0.020  -0.053  -3.669  -3.742
   63       -0.020  -0.053  -3.669  -3.742
   64       -0.020  -0.053  -3.669  -3.742
--------------------------------------------------
tot         -0.002   0.002  -0.001  -0.001
 
 BZINTS: Fermi energy:  4.978160;688.000000 electrons
         Band energy:***********;  BLOECHL correction:  0.000000

 total amount of memory used by VASP MPI-rank0   300225. kBytes
=======================================================================

   base      :      30000. kBytes
   nonl-proj :     174956. kBytes
   fftplans  :       4588. kBytes
   grid      :      69719. kBytes
   one-center:       1990. kBytes
   wavefun   :      18972. kBytes
 
  
  
 General timing and accounting informations for this job:
 ========================================================
  
                  Total CPU time used (sec):     2820.257
                            User time (sec):     2810.076
                          System time (sec):       10.181
                         Elapsed time (sec):     2840.788
  
                   Maximum memory used (kb):      659576.
                   Average memory used (kb):           0.
  
                          Minor page faults:       533803
                          Major page faults:         5903
                 Voluntary context switches:         7254
