 vasp.5.4.4.18Apr17-6-g9f103f2a35 (build Oct 30 2023 17:30:16) complex          
  
 executed on             LinuxIFC date 2024.06.29  01:06:53
 running on  256 total cores
 distrk:  each k-point on  256 cores,    1 groups
 distr:  one band on NCORES_PER_BAND=   1 cores,  256 groups


--------------------------------------------------------------------------------------------------------


 INCAR:
 POTCAR:    PAW_PBE S 06Sep2000                   
 POTCAR:     PAW_PBE Cu_pv 06Sep2000              
 POTCAR:     PAW_PBE Fe_pv 02Aug2007              

 ----------------------------------------------------------------------------- 
|                                                                             |
|           W    W    AA    RRRRR   N    N  II  N    N   GGGG   !!!           |
|           W    W   A  A   R    R  NN   N  II  NN   N  G    G  !!!           |
|           W    W  A    A  R    R  N N  N  II  N N  N  G       !!!           |
|           W WW W  AAAAAA  RRRRR   N  N N  II  N  N N  G  GGG   !            |
|           WW  WW  A    A  R   R   N   NN  II  N   NN  G    G                |
|           W    W  A    A  R    R  N    N  II  N    N   GGGG   !!!           |
|                                                                             |
|      For optimal performance we recommend to set                            |
|        NCORE= 4 - approx SQRT( number of cores)                             |
|      NCORE specifies how many cores store one orbital (NPAR=cpu/NCORE).     |
|      This setting can  greatly improve the performance of VASP for DFT.     |
|      The default,   NCORE=1            might be grossly inefficient         |
|      on modern multi-core architectures or massively parallel machines.     |
|      Do your own testing !!!!                                               |
|      Unfortunately you need to use the default for GW and RPA calculations. |
|      (for HF NCORE is supported but not extensively tested yet)             |
|                                                                             |
 ----------------------------------------------------------------------------- 

 POTCAR:    PAW_PBE S 06Sep2000                   
   SHA256 =  0fc7481fb0695f01bdc6462160264c5c84044ae9ec85a907d398b887a2bc3132 S/
   COPYR  = (c) Copyright 06Sep2000 Georg Kresse                                
   COPYR  = This file is part of the software VASP. Any use, copying, and all ot
   COPYR  = If you do not have a valid VASP license, you may not use, copy or di
   VRHFIN =S : s2p4                                                             
   LEXCH  = PE                                                                  
   EATOM  =   276.8230 eV,   20.3459 Ry                                         
                                                                                
   TITEL  = PAW_PBE S 06Sep2000                                                 
   LULTRA =        F    use ultrasoft PP ?                                      
   IUNSCR =        1    unscreen: 0-lin 1-nonlin 2-no                           
   RPACOR =    1.500    partial core radius                                     
   POMASS =   32.066; ZVAL   =    6.000    mass and valenz                      
   RCORE  =    1.900    outmost cutoff radius                                   
   RWIGS  =    2.200; RWIGS  =    1.164    wigner-seitz radius (au A)           
   ENMAX  =  258.689; ENMIN  =  194.016 eV                                      
   ICORE  =        2    local potential                                         
   LCOR   =        T    correct aug charges                                     
   LPAW   =        T    paw PP                                                  
   EAUG   =  335.092                                                            
   DEXC   =    0.000                                                            
   RMAX   =    1.942    core radius for proj-oper                               
   RAUG   =    1.300    factor for augmentation sphere                          
   RDEP   =    1.954    radius for radial grids                                 
   RDEPT  =    1.744    core radius for aug-charge                              
                                                                                
   Atomic configuration                                                         
    6 entries                                                                   
     n  l   j            E        occ.                                          
     1  0  0.50     -2405.8406   2.0000                                         
     2  0  0.50      -211.7007   2.0000                                         
     2  1  1.50      -156.4958   6.0000                                         
     3  0  0.50       -17.2562   2.0000                                         
     3  1  0.50        -7.0085   4.0000                                         
     3  2  1.50        -6.8029   0.0000                                         
   Description                                                                  
     l       E           TYP  RCUT    TYP  RCUT                                 
     0    -17.2561641     23  1.900                                             
     0    -15.8743224     23  1.900                                             
     1     -7.0085400     23  1.900                                             
     1     -2.7779785     23  1.900                                             
     2     -6.8029130     23  1.900                                             
  local pseudopotential read in
  partial core-charges read in
  partial kinetic energy density read in
  atomic valenz-charges read in
  non local Contribution for L=           0  read in
    real space projection operators read in
  non local Contribution for L=           0  read in
    real space projection operators read in
  non local Contribution for L=           1  read in
    real space projection operators read in
  non local Contribution for L=           1  read in
    real space projection operators read in
    PAW grid and wavefunctions read in
 
   number of l-projection  operators is LMAX  =           4
   number of lm-projection operators is LMMAX =           8
 
 POTCAR:     PAW_PBE Cu_pv 06Sep2000              
   SHA256 =  cb7b504e2ea725fe1f25c85a9ac77d4012ce94cd394135b722c4e25ec297f1cb Cu
   COPYR  = (c) Copyright 06Sep2000 Georg Kresse                                
   COPYR  = This file is part of the software VASP. Any use, copying, and all ot
   COPYR  = If you do not have a valid VASP license, you may not use, copy or di
   VRHFIN =Cu: d10 p1                                                           
   LEXCH  = PE                                                                  
   EATOM  =  4120.1201 eV,  302.8203 Ry                                         
                                                                                
   TITEL  = PAW_PBE Cu_pv 06Sep2000                                             
   LULTRA =        F    use ultrasoft PP ?                                      
   IUNSCR =        1    unscreen: 0-lin 1-nonlin 2-no                           
   RPACOR =    1.500    partial core radius                                     
   POMASS =   63.546; ZVAL   =   17.000    mass and valenz                      
   RCORE  =    2.000    outmost cutoff radius                                   
   RWIGS  =    2.000; RWIGS  =    1.058    wigner-seitz radius (au A)           
   ENMAX  =  368.648; ENMIN  =  276.486 eV                                      
   RCLOC  =    1.304    cutoff for local pot                                    
   LCOR   =        T    correct aug charges                                     
   LPAW   =        T    paw PP                                                  
   EAUG   =  758.233                                                            
   DEXC   =    0.000                                                            
   RMAX   =    2.046    core radius for proj-oper                               
   RAUG   =    1.300    factor for augmentation sphere                          
   RDEP   =    2.025    radius for radial grids                                 
   RDEPT  =    1.558    core radius for aug-charge                              
                                                                                
   Atomic configuration                                                         
    8 entries                                                                   
     n  l   j            E        occ.                                          
     1  0  0.50     -8850.2467   2.0000                                         
     2  0  0.50     -1062.3498   2.0000                                         
     2  1  1.50      -916.8226   6.0000                                         
     3  0  0.50      -114.6929   2.0000                                         
     3  1  1.50       -72.1325   6.0000                                         
     3  2  2.50        -5.0394  10.0000                                         
     4  0  0.50        -4.6097   1.0000                                         
     4  3  2.50        -1.3606   0.0000                                         
   Description                                                                  
     l       E           TYP  RCUT    TYP  RCUT                                 
     1    -72.1324777     23  1.700                                             
     1     -1.3605826     23  1.700                                             
     2     -5.0393776     23  2.000                                             
     2     -6.3999602     23  2.000                                             
     0     -4.6097062     23  1.800                                             
     0     14.1620818     23  1.800                                             
  local pseudopotential read in
  partial core-charges read in
  partial kinetic energy density read in
  atomic valenz-charges read in
  non local Contribution for L=           1  read in
    real space projection operators read in
  non local Contribution for L=           1  read in
    real space projection operators read in
  non local Contribution for L=           2  read in
    real space projection operators read in
  non local Contribution for L=           2  read in
    real space projection operators read in
  non local Contribution for L=           0  read in
    real space projection operators read in
  non local Contribution for L=           0  read in
    real space projection operators read in
    PAW grid and wavefunctions read in
 
   number of l-projection  operators is LMAX  =           6
   number of lm-projection operators is LMMAX =          18
 
 POTCAR:     PAW_PBE Fe_pv 02Aug2007              
   SHA256 =  5d22e414b1f82158bf2c7ecb8b97b28fd0923e48cadc1c3bf74d524558f5dd32 Fe
   COPYR  = (c) Copyright 02Aug2007 Georg Kresse                                
   COPYR  = This file is part of the software VASP. Any use, copying, and all ot
   COPYR  = If you do not have a valid VASP license, you may not use, copy or di
   VRHFIN =Fe:  3pd7s1                                                          
   LEXCH  = PE                                                                  
   EATOM  =  2457.4239 eV,  180.6156 Ry                                         
                                                                                
   TITEL  = PAW_PBE Fe_pv 02Aug2007                                             
   LULTRA =        F    use ultrasoft PP ?                                      
   IUNSCR =        1    unscreen: 0-lin 1-nonlin 2-no                           
   RPACOR =    1.750    partial core radius                                     
   POMASS =   55.847; ZVAL   =   14.000    mass and valenz                      
   RCORE  =    2.200    outmost cutoff radius                                   
   RWIGS  =    2.200; RWIGS  =    1.164    wigner-seitz radius (au A)           
   ENMAX  =  293.238; ENMIN  =  219.928 eV                                      
   ICORE  =        3    local potential                                         
   LCOR   =        T    correct aug charges                                     
   LPAW   =        T    paw PP                                                  
   EAUG   =  578.342                                                            
   DEXC   =    0.000                                                            
   RMAX   =    2.249    core radius for proj-oper                               
   RAUG   =    1.300    factor for augmentation sphere                          
   RDEP   =    2.296    radius for radial grids                                 
   RDEPT  =    1.766    core radius for aug-charge                              
                                                                                
   Atomic configuration                                                         
    8 entries                                                                   
     n  l   j            E        occ.                                          
     1  0  0.50     -6993.8440   2.0000                                         
     2  0  0.50      -814.6047   2.0000                                         
     2  1  1.50      -693.3689   6.0000                                         
     3  0  0.50       -89.4732   2.0000                                         
     3  1  1.50       -55.6373   6.0000                                         
     3  2  2.50        -3.8151   7.0000                                         
     4  0  0.50        -4.2551   1.0000                                         
     4  3  2.50        -1.3606   0.0000                                         
   Description                                                                  
     l       E           TYP  RCUT    TYP  RCUT                                 
     1    -55.6372668     23  2.000                                             
     1     -5.4423304     23  2.000                                             
     2     -3.8151096     23  2.200                                             
     2     -5.1756922     23  2.200                                             
     0     -4.2550951     23  2.200                                             
     0     27.2116520     23  2.200                                             
     3     -1.3605826     23  2.200                                             
  local pseudopotential read in
  partial core-charges read in
  partial kinetic energy density read in
  atomic valenz-charges read in
  non local Contribution for L=           1  read in
    real space projection operators read in
  non local Contribution for L=           1  read in
    real space projection operators read in
  non local Contribution for L=           2  read in
    real space projection operators read in
  non local Contribution for L=           2  read in
    real space projection operators read in
  non local Contribution for L=           0  read in
    real space projection operators read in
  non local Contribution for L=           0  read in
    real space projection operators read in
    PAW grid and wavefunctions read in
 
   number of l-projection  operators is LMAX  =           6
   number of lm-projection operators is LMMAX =          18
 

 ----------------------------------------------------------------------------- 
|                                                                             |
|  ADVICE TO THIS USER RUNNING 'VASP/VAMP'   (HEAR YOUR MASTER'S VOICE ...):  |
|                                                                             |
|      You have a (more or less) 'large supercell' and for larger cells       |
|      it might be more efficient to use real space projection opertators     |
|      So try LREAL= Auto  in the INCAR   file.                               |
|      Mind:          For very  accurate calculation you might also keep the  |
|      reciprocal projection scheme          (i.e. LREAL=.FALSE.)             |
|                                                                             |
 ----------------------------------------------------------------------------- 


 ----------------------------------------------------------------------------- 
|                                                                             |
|  ADVICE TO THIS USER RUNNING 'VASP/VAMP'   (HEAR YOUR MASTER'S VOICE ...):  |
|                                                                             |
|      You enforced a specific xc-type in the INCAR file,                     |
|      a different type was found on the POTCAR file                          |
|          I HOPE YOU KNOW, WHAT YOU ARE  DOING                               |
|                                                                             |
 ----------------------------------------------------------------------------- 

  PAW_PBE S 06Sep2000                   :
 energy of atom  1       EATOM= -276.8230
 kinetic energy error for atom=    0.0007 (will be added to EATOM!!)
   PAW_PBE Cu_pv 06Sep2000              :
 energy of atom  2       EATOM=-4120.1201
 kinetic energy error for atom=    0.0094 (will be added to EATOM!!)
   PAW_PBE Fe_pv 02Aug2007              :
 energy of atom  3       EATOM=-2457.4239
 kinetic energy error for atom=    0.0025 (will be added to EATOM!!)
 
 
 POSCAR: Fe16 Cu16 S32                           
  positions in direct lattice
  No initial velocities read in
 exchange correlation table for  LEXCH =       14
   RHO(1)=    0.500       N(1)  =     2000
   RHO(2)=  100.500       N(2)  =     4000
 


--------------------------------------------------------------------------------------------------------


 ion  position               nearest neighbor table
   1  0.126  0.125  0.121-  37 2.26  61 2.27  41 2.27  49 2.28
   2  0.626  0.125  0.121-  38 2.26  62 2.27  42 2.27  50 2.28
   3  0.126  0.625  0.121-  39 2.26  63 2.27  43 2.27  51 2.28
   4  0.626  0.625  0.121-  40 2.26  64 2.27  44 2.27  52 2.28
   5  0.374  0.375  0.121-  39 2.26  62 2.27  41 2.27  52 2.28
   6  0.874  0.375  0.121-  40 2.26  61 2.27  42 2.27  51 2.28
   7  0.374  0.875  0.121-  37 2.26  64 2.27  43 2.27  50 2.28
   8  0.874  0.875  0.121-  38 2.26  63 2.27  44 2.27  49 2.28
   9  0.125  0.374  0.871-  41 2.26  51 2.27  45 2.27  55 2.28
  10  0.625  0.374  0.871-  42 2.26  52 2.27  46 2.27  56 2.28
  11  0.125  0.874  0.871-  43 2.26  49 2.27  47 2.27  53 2.28
  12  0.625  0.874  0.871-  44 2.26  50 2.27  48 2.27  54 2.28
  13  0.375  0.126  0.871-  41 2.26  50 2.27  46 2.27  53 2.28
  14  0.875  0.126  0.871-  42 2.26  49 2.27  45 2.27  54 2.28
  15  0.375  0.626  0.871-  43 2.26  52 2.27  48 2.27  55 2.28
  16  0.875  0.626  0.871-  44 2.26  51 2.27  47 2.27  56 2.28
  17  0.124  0.125  0.621-  45 2.26  53 2.27  33 2.27  57 2.28
  18  0.624  0.125  0.621-  46 2.26  54 2.27  34 2.27  58 2.28
  19  0.124  0.625  0.621-  47 2.26  55 2.27  35 2.27  59 2.28
  20  0.624  0.625  0.621-  48 2.26  56 2.27  36 2.27  60 2.28
  21  0.376  0.375  0.621-  46 2.26  55 2.27  36 2.27  57 2.28
  22  0.876  0.375  0.621-  45 2.26  56 2.27  35 2.27  58 2.28
  23  0.376  0.875  0.621-  48 2.26  53 2.27  34 2.27  59 2.28
  24  0.876  0.875  0.621-  47 2.26  54 2.27  33 2.27  60 2.28
  25  0.375  0.124  0.371-  34 2.26  57 2.27  37 2.27  62 2.28
  26  0.875  0.124  0.371-  33 2.26  58 2.27  38 2.27  61 2.28
  27  0.375  0.624  0.371-  36 2.26  59 2.27  39 2.27  64 2.28
  28  0.875  0.624  0.371-  35 2.26  60 2.27  40 2.27  63 2.28
  29  0.125  0.376  0.371-  35 2.26  57 2.27  39 2.27  61 2.28
  30  0.625  0.376  0.371-  36 2.26  58 2.27  40 2.27  62 2.28
  31  0.125  0.876  0.371-  33 2.26  59 2.27  37 2.27  63 2.28
  32  0.625  0.876  0.371-  34 2.26  60 2.27  38 2.27  64 2.28
  33  0.000  0.000  0.503-  26 2.26  31 2.26  17 2.27  24 2.27
  34  0.500  0.000  0.503-  25 2.26  32 2.26  18 2.27  23 2.27
  35  0.000  0.500  0.503-  28 2.26  29 2.26  19 2.27  22 2.27
  36  0.500  0.500  0.503-  27 2.26  30 2.26  20 2.27  21 2.27
  37  0.250  0.000  0.253-   1 2.26   7 2.26  25 2.27  31 2.27
  38  0.750  0.000  0.253-   2 2.26   8 2.26  26 2.27  32 2.27
  39  0.250  0.500  0.253-   3 2.26   5 2.26  27 2.27  29 2.27
  40  0.750  0.500  0.253-   4 2.26   6 2.26  28 2.27  30 2.27
  41  0.250  0.250  0.003-   9 2.26  13 2.26   1 2.27   5 2.27
  42  0.750  0.250  0.003-  10 2.26  14 2.26   2 2.27   6 2.27
  43  0.250  0.750  0.003-  11 2.26  15 2.26   3 2.27   7 2.27
  44  0.750  0.750  0.003-  12 2.26  16 2.26   4 2.27   8 2.27
  45  0.000  0.250  0.753-  17 2.26  22 2.26   9 2.27  14 2.27
  46  0.500  0.250  0.753-  18 2.26  21 2.26  10 2.27  13 2.27
  47  0.000  0.750  0.753-  19 2.26  24 2.26  11 2.27  16 2.27
  48  0.500  0.750  0.753-  20 2.26  23 2.26  12 2.27  15 2.27
  49  0.000  0.000  0.004-  11 2.27  14 2.27   1 2.28   8 2.28
  50  0.500  0.000  0.004-  12 2.27  13 2.27   2 2.28   7 2.28
  51  0.000  0.500  0.004-   9 2.27  16 2.27   3 2.28   6 2.28
  52  0.500  0.500  0.004-  10 2.27  15 2.27   4 2.28   5 2.28
  53  0.250  0.000  0.754-  17 2.27  23 2.27  11 2.28  13 2.28
  54  0.750  0.000  0.754-  18 2.27  24 2.27  12 2.28  14 2.28
  55  0.250  0.500  0.754-  19 2.27  21 2.27   9 2.28  15 2.28
  56  0.750  0.500  0.754-  20 2.27  22 2.27  10 2.28  16 2.28
  57  0.250  0.250  0.504-  25 2.27  29 2.27  17 2.28  21 2.28
  58  0.750  0.250  0.504-  26 2.27  30 2.27  18 2.28  22 2.28
  59  0.250  0.750  0.504-  27 2.27  31 2.27  19 2.28  23 2.28
  60  0.750  0.750  0.504-  28 2.27  32 2.27  20 2.28  24 2.28
  61  0.000  0.250  0.254-   1 2.27   6 2.27  26 2.28  29 2.28
  62  0.500  0.250  0.254-   2 2.27   5 2.27  25 2.28  30 2.28
  63  0.000  0.750  0.254-   3 2.27   8 2.27  28 2.28  31 2.28
  64  0.500  0.750  0.254-   4 2.27   7 2.27  27 2.28  32 2.28
 
  LATTYP: Found a base centered orthorhombic cell.
 ALAT       =    14.3306757474
 B/A-ratio  =     1.0723573463
 C/A-ratio  =     0.7276501251
  
  Lattice vectors:
  
 A1 = (  10.4999280000,   0.3666100000,   0.0000000000)
 A2 = (  -0.3666100000, -10.4999280000,   0.0000000000)
 A3 = (   0.0000000000,   0.0000000000, -10.4277180000)


Analysis of symmetry for initial positions (statically):
=====================================================================
 Subroutine PRICEL returns following result:
 
  LATTYP: Found a face centered orthorhombic cell.
 ALAT       =     7.1653378737
 B/A-ratio  =     1.0723573463
 C/A-ratio  =     1.4553002501
  
  Lattice vectors:
  
 A1 = (  -2.7166345000,  -2.7166345000,   5.2138590000)
 A2 = (  -2.5333295000,   2.5333295000,   5.2138590000)
 A3 = (  -5.2499640000,  -0.1833050000,   0.0000000000)
 
   8 primitive cells build up your supercell.
 

 Routine SETGRP: Setting up the symmetry group for a 
 base centered orthorhombic supercell.


 Subroutine GETGRP returns: Found  4 space group operations
 (whereof  2 operations were pure point group operations)
 out of a pool of  8 trial point group operations.


The static configuration has the point symmetry C_2 .
 The point group associated with its full space group is C_2v.


Analysis of symmetry for dynamics (positions and initial velocities):
=====================================================================
 Subroutine PRICEL returns following result:
 
  LATTYP: Found a face centered orthorhombic cell.
 ALAT       =     7.1653378737
 B/A-ratio  =     1.0723573463
 C/A-ratio  =     1.4553002501
  
  Lattice vectors:
  
 A1 = (  -2.7166345000,  -2.7166345000,   5.2138590000)
 A2 = (  -2.5333295000,   2.5333295000,   5.2138590000)
 A3 = (  -5.2499640000,  -0.1833050000,   0.0000000000)
 
   8 primitive cells build up your supercell.
 

 Routine SETGRP: Setting up the symmetry group for a 
 base centered orthorhombic supercell.


 Subroutine GETGRP returns: Found  4 space group operations
 (whereof  2 operations were pure point group operations)
 out of a pool of  8 trial point group operations.


The dynamic configuration has the point symmetry C_2 .
 The point group associated with its full space group is C_2v.


Analysis of structural, dynamic, and magnetic symmetry:
=====================================================================
 Subroutine PRICEL returns following result:
 
  LATTYP: Found a face centered orthorhombic cell.
 ALAT       =     7.1653378737
 B/A-ratio  =     1.0723573463
 C/A-ratio  =     1.4553002501
  
  Lattice vectors:
  
 A1 = (  -2.7166345000,  -2.7166345000,   5.2138590000)
 A2 = (  -2.5333295000,   2.5333295000,   5.2138590000)
 A3 = (  -5.2499640000,  -0.1833050000,   0.0000000000)
 
   8 primitive cells build up your supercell.
 

 Routine SETGRP: Setting up the symmetry group for a 
 base centered orthorhombic supercell.


 Subroutine GETGRP returns: Found  4 space group operations
 (whereof  2 operations were pure point group operations)
 out of a pool of  8 trial point group operations.


The magnetic configuration has the point symmetry C_2 .
 The point group associated with its full space group is C_2v.


 Subroutine INISYM returns: Found  4 space group operations
 (whereof  2 operations are pure point group operations),
 and found     8 'primitive' translations

 
 
 KPOINTS: Automatic mesh                          

Automatic generation of k-mesh.
Space group operators:
 irot       det(A)        alpha          n_x          n_y          n_z        tau_x        tau_y        tau_z
    1     1.000000     0.000001     1.000000     0.000000     0.000000     0.000000     0.000000     0.000000
    2     1.000000   180.000000     0.000000     0.000000     1.000000     0.000000     0.000000     0.000000
    3    -1.000000   179.999999     0.707107     0.707107     0.000000    -0.750000     0.000000     0.750000
    4    -1.000000   179.999999     0.707107    -0.707107     0.000000    -0.750000     0.000000     0.750000
 
 Subroutine IBZKPT returns following result:
 ===========================================
 
 Found      6 irreducible k-points:
 
 Following reciprocal coordinates:
            Coordinates               Weight
  0.000000  0.000000  0.000000      1.000000
  0.500000  0.000000  0.000000      2.000000
  0.500000  0.500000  0.000000      1.000000
  0.000000  0.000000  0.500000      1.000000
  0.500000  0.000000  0.500000      2.000000
  0.500000  0.500000  0.500000      1.000000
 
 Following cartesian coordinates:
            Coordinates               Weight
  0.000000  0.000000  0.000000      1.000000
  0.047677 -0.001665  0.000000      2.000000
  0.046013  0.046013  0.000000      1.000000
  0.000000  0.000000  0.047949      1.000000
  0.047677 -0.001665  0.047949      2.000000
  0.046013  0.046013  0.047949      1.000000
 
 TETIRR: Found     12 inequivalent tetrahedra from       48
 
 Subroutine IBZKPT_HF returns following result:
 ==============================================
 
 Found      8 k-points in 1st BZ
 the following      8 k-points will be used (e.g. in the exchange kernel)
 Following reciprocal coordinates:   # in IRBZ
  0.000000  0.000000  0.000000    0.12500000   1 t-inv F
  0.500000  0.000000  0.000000    0.12500000   2 t-inv F
  0.500000  0.500000  0.000000    0.12500000   3 t-inv F
  0.000000  0.000000  0.500000    0.12500000   4 t-inv F
  0.500000  0.000000  0.500000    0.12500000   5 t-inv F
  0.500000  0.500000  0.500000    0.12500000   6 t-inv F
 -0.000000 -0.500000  0.000000    0.12500000   2 t-inv F spinflp
 -0.000000 -0.500000  0.500000    0.12500000   5 t-inv F spinflp


--------------------------------------------------------------------------------------------------------




 Dimension of arrays:
   k-points           NKPTS =      6   k-points in BZ     NKDIM =      6   number of bands    NBANDS=    512
   number of dos      NEDOS =    301   number of ions     NIONS =     64
   non local maximal  LDIM  =      6   non local SUM 2l+1 LMDIM =     18
   total plane-waves  NPLWV = 829440
   max r-space proj   IRMAX =      1   max aug-charges    IRDMAX=  22955
   dimension x,y,z NGX =    96 NGY =   96 NGZ =   90
   dimension x,y,z NGXF=   192 NGYF=  192 NGZF=  180
   support grid    NGXF=   192 NGYF=  192 NGZF=  180
   ions per type =              32  16  16
   NGX,Y,Z   is equivalent  to a cutoff of  15.19, 15.19, 14.35 a.u.
   NGXF,Y,Z  is equivalent  to a cutoff of  30.38, 30.38, 28.70 a.u.

 SYSTEM =  CuFeS2                                  
 POSCAR =  Fe16 Cu16 S32                           

 Startparameter for this run:
   NWRITE =      2    write-flag & timer
   PREC   = accura    normal or accurate (medium, high low for compatibility)
   ISTART =      0    job   : 0-new  1-cont  2-samecut
   ICHARG =      1    charge: 1-file 2-atom 10-const
   ISPIN  =      2    spin polarized calculation?
   LNONCOLLINEAR =      F non collinear calculations
   LSORBIT =      F    spin-orbit coupling
   INIWAV =      1    electr: 0-lowe 1-rand  2-diag
   LASPH  =      F    aspherical Exc in radial PAW
   METAGGA=      F    non-selfconsistent MetaGGA calc.

 Electronic Relaxation 1
   ENCUT  =  700.0 eV  51.45 Ry    7.17 a.u.  22.67 22.67 22.50*2*pi/ulx,y,z
   ENINI  =  700.0     initial cutoff
   ENAUG  =  758.2 eV  augmentation charge cutoff
   NELM   =    500;   NELMIN=  2; NELMDL=  0     # of ELM steps 
   EDIFF  = 0.1E-07   stopping-criterion for ELM
   LREAL  =      F    real-space projection
   NLSPLINE    = F    spline interpolate recip. space projectors
   LCOMPAT=      F    compatible to vasp.4.4
   GGA_COMPAT  = T    GGA compatible to vasp.4.4-vasp.4.6
   LMAXPAW     = -100 max onsite density
   LMAXMIX     =    4 max onsite mixed and CHGCAR
   VOSKOWN=      0    Vosko Wilk Nusair interpolation
   ROPT   =    0.00000   0.00000   0.00000
 Ionic relaxation
   EDIFFG = -.1E-04   stopping-criterion for IOM
   NSW    =      0    number of steps for IOM
   NBLOCK =      1;   KBLOCK =      1    inner block; outer block 
   IBRION =     -1    ionic relax: 0-MD 1-quasi-New 2-CG
   NFREE  =      0    steps in history (QN), initial steepest desc. (CG)
   ISIF   =      2    stress and relaxation
   IWAVPR =     10    prediction:  0-non 1-charg 2-wave 3-comb
   ISYM   =      2    0-nonsym 1-usesym 2-fastsym
   LCORR  =      T    Harris-Foulkes like correction to forces

   POTIM  = 0.5000    time-step for ionic-motion
   TEIN   =    0.0    initial temperature
   TEBEG  =    0.0;   TEEND  =   0.0 temperature during run
   SMASS  =  -3.00    Nose mass-parameter (am)
   estimated Nose-frequenzy (Omega)   =  0.10E-29 period in steps =****** mass=  -0.252E-26a.u.
   SCALEE = 1.0000    scale energy and forces
   NPACO  =    256;   APACO  = 16.0  distance and # of slots for P.C.
   PSTRESS=    0.0 pullay stress

  Mass of Ions in am
   POMASS =  32.07 63.55 55.85
  Ionic Valenz
   ZVAL   =   6.00 17.00 14.00
  Atomic Wigner-Seitz radii
   RWIGS  =  -1.00 -1.00 -1.00
  virtual crystal weights 
   VCA    =   1.00  1.00  1.00
   NELECT =     688.0000    total number of electrons
   NUPDOWN=      -1.0000    fix difference up-down

 DOS related values:
   EMIN   =  10.00;   EMAX   =-10.00  energy-range for DOS
   EFERMI =   0.00
   ISMEAR =    -5;   SIGMA  =   0.03  broadening in eV -4-tet -1-fermi 0-gaus

 Electronic relaxation 2 (details)
   IALGO  =     38    algorithm
   LDIAG  =      T    sub-space diagonalisation (order eigenvalues)
   LSUBROT=      F    optimize rotation matrix (better conditioning)
   TURBO    =      0    0=normal 1=particle mesh
   IRESTART =      0    0=no restart 2=restart with 2 vectors
   NREBOOT  =      0    no. of reboots
   NMIN     =      0    reboot dimension
   EREF     =   0.00    reference energy to select bands
   IMIX   =      4    mixing-type and parameters
     AMIX     =   0.40;   BMIX     =  1.00
     AMIX_MAG =   1.60;   BMIX_MAG =  1.00
     AMIN     =   0.10
     WC   =   100.;   INIMIX=   1;  MIXPRE=   1;  MAXMIX= -45

 Intra band minimization:
   WEIMIN = 0.0000     energy-eigenvalue tresh-hold
   EBREAK =  0.49E-11  absolut break condition
   DEPER  =   0.30     relativ break condition  

   TIME   =   0.40     timestep for ELM

  volume/ion in A,a.u.               =      17.94       121.07
  Fermi-wavevector in a.u.,A,eV,Ry     =   1.380152  2.608109 25.916644  1.904820
  Thomas-Fermi vector in A             =   2.505056
 
 Write flags
   LWAVE        =      T    write WAVECAR
   LDOWNSAMPLE  =      F    k-point downsampling of WAVECAR
   LCHARG       =      T    write CHGCAR
   LVTOT        =      F    write LOCPOT, total local potential
   LVHAR        =      F    write LOCPOT, Hartree potential only
   LELF         =      F    write electronic localiz. function (ELF)
   LORBIT       =     11    0 simple, 1 ext, 2 COOP (PROOUT), +10 PAW based schemes


 Dipole corrections
   LMONO  =      F    monopole corrections only (constant potential shift)
   LDIPOL =      F    correct potential (dipole corrections)
   IDIPOL =      0    1-x, 2-y, 3-z, 4-all directions 
   EPSILON=  1.0000000 bulk dielectric constant

 LDA+U is selected, type is set to LDAUTYPE =  2
   angular momentum for each species LDAUL =     2    2    2
   U (eV)           for each species LDAUU =   0.0  0.1  4.7
   J (eV)           for each species LDAUJ =   0.0  0.0  0.0
 Exchange correlation treatment:
   GGA     =    PS    GGA type
   LEXCH   =    14    internal setting for exchange type
   VOSKOWN=      0    Vosko Wilk Nusair interpolation
   LHFCALC =     F    Hartree Fock is set to
   LHFONE  =     F    Hartree Fock one center treatment
   AEXX    =    0.0000 exact exchange contribution

 Linear response parameters
   LEPSILON=     F    determine dielectric tensor
   LRPA    =     F    only Hartree local field effects (RPA)
   LNABLA  =     F    use nabla operator in PAW spheres
   LVEL    =     F    velocity operator in full k-point grid
   LINTERFAST=   F  fast interpolation
   KINTER  =     0    interpolate to denser k-point grid
   CSHIFT  =0.1000    complex shift for real part using Kramers Kronig
   OMEGAMAX=  -1.0    maximum frequency
   DEG_THRESHOLD= 0.2000000E-02 threshold for treating states as degnerate
   RTIME   =   -0.100 relaxation time in fs
  (WPLASMAI=    0.000 imaginary part of plasma frequency in eV, 0.658/RTIME)
   DFIELD  = 0.0000000 0.0000000 0.0000000 field for delta impulse in time
 
 Orbital magnetization related:
   ORBITALMAG=     F  switch on orbital magnetization
   LCHIMAG   =     F  perturbation theory with respect to B field
   DQ        =  0.001000  dq finite difference perturbation B field
   LLRAUG    =     F  two centre corrections for induced B field

 PEAD related settings:
   LPEAD      =     T    switch on PEAD
   IPEAD      =     4    finite difference order for dpsi/dk
   LCALCPOL   =     T    calculate macroscopic polarization
   LCALCEPS   =     F    calculate dielectric tensor
   EFIELD_PEAD=    0.0000    0.0000    0.0000
   SKIP_EDOTP =     F
   LRPA       =     F
   SKIP_SCF   =     F


--------------------------------------------------------------------------------------------------------


 Static calculation
 charge density and potential will be updated during run
 spin polarized calculation
 Variant of blocked Davidson
 Davidson routine will perform the subspace rotation
 perform sub-space diagonalisation
    after iterative eigenvector-optimisation
 modified Broyden-mixing scheme, WC =      100.0
 initial mixing is a Kerker type mixing with AMIX =  0.4000 and BMIX =      1.0000
 Hartree-type preconditioning will be used
 using additional bands          168
 reciprocal scheme for non local part
 use partial core corrections
 calculate Harris-corrections to forces 
   (improved forces if not selfconsistent)
 use gradient corrections 
 use of overlap-Matrix (Vanderbilt PP)
 Fermi weights with tetrahedron method with Bloechl corrections


--------------------------------------------------------------------------------------------------------


  energy-cutoff  :      700.00
  volume of cell :     1148.24
      direct lattice vectors                 reciprocal lattice vectors
    10.499928000  0.366610000  0.000000000     0.095354995 -0.003329365  0.000000000
     0.366610000 10.499928000  0.000000000    -0.003329365  0.095354995  0.000000000
     0.000000000  0.000000000 10.427718000     0.000000000  0.000000000  0.095898259

  length of vectors
    10.506326232 10.506326232 10.427718000     0.095413100  0.095413100  0.095898259


 
 k-points in units of 2pi/SCALE and weight: Automatic mesh                          
   0.00000000  0.00000000  0.00000000       0.125
   0.04767750 -0.00166468  0.00000000       0.250
   0.04601281  0.04601281  0.00000000       0.125
   0.00000000  0.00000000  0.04794913       0.125
   0.04767750 -0.00166468  0.04794913       0.250
   0.04601281  0.04601281  0.04794913       0.125
 
 k-points in reciprocal lattice and weights: Automatic mesh                          
   0.00000000  0.00000000  0.00000000       0.125
   0.50000000  0.00000000  0.00000000       0.250
   0.50000000  0.50000000  0.00000000       0.125
   0.00000000  0.00000000  0.50000000       0.125
   0.50000000  0.00000000  0.50000000       0.250
   0.50000000  0.50000000  0.50000000       0.125
 
 position of ions in fractional coordinates (direct lattice) 
   0.12608800  0.12539900  0.12120300
   0.62608800  0.12539900  0.12120300
   0.12608800  0.62539900  0.12120300
   0.62608800  0.62539900  0.12120300
   0.37391200  0.37460100  0.12120300
   0.87391200  0.37460100  0.12120300
   0.37391200  0.87460100  0.12120300
   0.87391200  0.87460100  0.12120300
   0.12460100  0.37391200  0.87120300
   0.62460100  0.37391200  0.87120300
   0.12460100  0.87391200  0.87120300
   0.62460100  0.87391200  0.87120300
   0.37539900  0.12608800  0.87120300
   0.87539900  0.12608800  0.87120300
   0.37539900  0.62608800  0.87120300
   0.87539900  0.62608800  0.87120300
   0.12391200  0.12460100  0.62120300
   0.62391200  0.12460100  0.62120300
   0.12391200  0.62460100  0.62120300
   0.62391200  0.62460100  0.62120300
   0.37608800  0.37539900  0.62120300
   0.87608800  0.37539900  0.62120300
   0.37608800  0.87539900  0.62120300
   0.87608800  0.87539900  0.62120300
   0.37460100  0.12391200  0.37120300
   0.87460100  0.12391200  0.37120300
   0.37460100  0.62391200  0.37120300
   0.87460100  0.62391200  0.37120300
   0.12539900  0.37608800  0.37120300
   0.62539900  0.37608800  0.37120300
   0.12539900  0.87608800  0.37120300
   0.62539900  0.87608800  0.37120300
   0.00000000  0.00000000  0.50327900
   0.50000000  0.00000000  0.50327900
   0.00000000  0.50000000  0.50327900
   0.50000000  0.50000000  0.50327900
   0.25000000  0.00000000  0.25327900
   0.75000000  0.00000000  0.25327900
   0.25000000  0.50000000  0.25327900
   0.75000000  0.50000000  0.25327900
   0.25000000  0.25000000  0.00327900
   0.75000000  0.25000000  0.00327900
   0.25000000  0.75000000  0.00327900
   0.75000000  0.75000000  0.00327900
   0.00000000  0.25000000  0.75327900
   0.50000000  0.25000000  0.75327900
   0.00000000  0.75000000  0.75327900
   0.50000000  0.75000000  0.75327900
   0.00000000  0.00000000  0.00431600
   0.50000000  0.00000000  0.00431600
   0.00000000  0.50000000  0.00431600
   0.50000000  0.50000000  0.00431600
   0.25000000  0.00000000  0.75431600
   0.75000000  0.00000000  0.75431600
   0.25000000  0.50000000  0.75431600
   0.75000000  0.50000000  0.75431600
   0.25000000  0.25000000  0.50431600
   0.75000000  0.25000000  0.50431600
   0.25000000  0.75000000  0.50431600
   0.75000000  0.75000000  0.50431600
   0.00000000  0.25000000  0.25431600
   0.50000000  0.25000000  0.25431600
   0.00000000  0.75000000  0.25431600
   0.50000000  0.75000000  0.25431600
 
 position of ions in cartesian coordinates  (Angst):
   1.36988745  1.36290559  1.26387070
   6.61985145  1.54621059  1.26387070
   1.55319245  6.61286959  1.26387070
   6.80315645  6.79617459  1.26387070
   4.06338155  4.07036341  1.26387070
   9.31334555  4.25366841  1.26387070
   4.24668655  9.32032741  1.26387070
   9.49665055  9.50363241  1.26387070
   1.44538141  3.97172905  9.08465920
   6.69534541  4.15503405  9.08465920
   1.62868641  9.22169305  9.08465920
   6.87865041  9.40499805  9.08465920
   3.98788759  1.46153995  9.08465920
   9.23785159  1.64484495  9.08465920
   4.17119259  6.71150395  9.08465920
   9.42115659  6.89480895  9.08465920
   1.34674705  1.35372891  6.47772970
   6.59671105  1.53703391  6.47772970
   1.53005205  6.60369291  6.47772970
   6.78001605  6.78699791  6.47772970
   4.08652195  4.07954009  6.47772970
   9.33648595  4.26284509  6.47772970
   4.26982695  9.32950409  6.47772970
   9.51979095  9.51280909  6.47772970
   3.97871091  1.43839955  3.87080020
   9.22867491  1.62170455  3.87080020
   4.16201591  6.68836355  3.87080020
   9.41197991  6.87166855  3.87080020
   1.45455809  3.99486945  3.87080020
   6.70452209  4.17817445  3.87080020
   1.63786309  9.24483345  3.87080020
   6.88782709  9.42813845  3.87080020
   0.00000000  0.00000000  5.24805149
   5.24996400  0.18330500  5.24805149
   0.18330500  5.24996400  5.24805149
   5.43326900  5.43326900  5.24805149
   2.62498200  0.09165250  2.64112199
   7.87494600  0.27495750  2.64112199
   2.80828700  5.34161650  2.64112199
   8.05825100  5.52492150  2.64112199
   2.71663450  2.71663450  0.03419249
   7.96659850  2.89993950  0.03419249
   2.89993950  7.96659850  0.03419249
   8.14990350  8.14990350  0.03419249
   0.09165250  2.62498200  7.85498099
   5.34161650  2.80828700  7.85498099
   0.27495750  7.87494600  7.85498099
   5.52492150  8.05825100  7.85498099
   0.00000000  0.00000000  0.04500603
   5.24996400  0.18330500  0.04500603
   0.18330500  5.24996400  0.04500603
   5.43326900  5.43326900  0.04500603
   2.62498200  0.09165250  7.86579453
   7.87494600  0.27495750  7.86579453
   2.80828700  5.34161650  7.86579453
   8.05825100  5.52492150  7.86579453
   2.71663450  2.71663450  5.25886503
   7.96659850  2.89993950  5.25886503
   2.89993950  7.96659850  5.25886503
   8.14990350  8.14990350  5.25886503
   0.09165250  2.62498200  2.65193553
   5.34161650  2.80828700  2.65193553
   0.27495750  7.87494600  2.65193553
   5.52492150  8.05825100  2.65193553
 


--------------------------------------------------------------------------------------------------------


 k-point  1 :   0.0000 0.0000 0.0000  plane waves:   48279
 k-point  2 :   0.5000 0.0000 0.0000  plane waves:   48326
 k-point  3 :   0.5000 0.5000 0.0000  plane waves:   48296
 k-point  4 :   0.0000 0.0000 0.5000  plane waves:   48248
 k-point  5 :   0.5000 0.0000 0.5000  plane waves:   48288
 k-point  6 :   0.5000 0.5000 0.5000  plane waves:   48196

 maximum and minimum number of plane-waves per node :     48326    48196

 maximum number of plane-waves:     48326
 maximum index in each direction: 
   IXMAX=   22   IYMAX=   22   IZMAX=   22
   IXMIN=  -23   IYMIN=  -23   IZMIN=  -22


 serial   3D FFT for wavefunctions
 parallel 3D FFT for charge:
    minimum data exchange during FFTs selected (reduces bandwidth)


 total amount of memory used by VASP MPI-rank0   300225. kBytes
=======================================================================

   base      :      30000. kBytes
   nonl-proj :     174956. kBytes
   fftplans  :       4588. kBytes
   grid      :      69719. kBytes
   one-center:       1990. kBytes
   wavefun   :      18972. kBytes
 
     INWAV:  cpu time    0.0001: real time    0.0003
 Broyden mixing: mesh for mixing (old mesh)
   NGX = 45   NGY = 45   NGZ = 45
  (NGX  =192   NGY  =192   NGZ  =180)
  gives a total of  91125 points

 initial charge density was supplied:
 charge density of overlapping atoms calculated
 number of electron     688.0000000 magnetization       0.0000000
 keeping initial charge density in first step


--------------------------------------------------------------------------------------------------------


 Maximum index for augmentation-charges          899 (set IRDMAX)


--------------------------------------------------------------------------------------------------------


 First call to EWALD:  gamma=   0.169
 Maximum number of real-space cells 3x 3x 3
 Maximum number of reciprocal cells 3x 3x 3

    FEWALD:  cpu time    0.0027: real time    0.0028


--------------------------------------- Iteration      1(   1)  ---------------------------------------


    POTLOK:  cpu time    0.3241: real time    1.2920
    SETDIJ:  cpu time    0.0144: real time    0.0145
     EDDAV:  cpu time   63.9578: real time   67.0961
 BZINTS: Fermi energy: 16.837527;688.000000 electrons
         Band energy:***********;  BLOECHL correction: -0.012215
       DOS:  cpu time    0.0201: real time    0.0202
    --------------------------------------------
      LOOP:  cpu time   64.3165: real time   68.4229

 eigenvalue-minimisations  : 12288
 total energy-change (2. order) : 0.6195729E+04  (-0.5033864E+05)
 number of electron     688.0000000 magnetization       0.0000000
 augmentation part      688.0000000 magnetization       0.0000000

 Free energy of the ion-electron system (eV)
  ---------------------------------------------------
  alpha Z        PSCENC =      2361.13859979
  Ewald energy   TEWEN  =    -62534.09935825
  -Hartree energ DENC   =    -44277.16832629
  -exchange      EXHF   =         0.00000000
  -V(xc)+E(xc)   XCENC  =      3320.18270178
  PAW double counting   =     94592.23312189   -98164.79192727
  entropy T*S    EENTRO =         0.00000000
  eigenvalues    EBANDS =     -3121.83081096
  atomic energy  EATOM  =    114020.06510763
  Solvation  Ediel_sol  =         0.00000000
  ---------------------------------------------------
  free energy    TOTEN  =      6195.72910831 eV

  energy without entropy =     6195.72910831  energy(sigma->0) =     6195.72910831


--------------------------------------------------------------------------------------------------------




--------------------------------------- Iteration      1(   2)  ---------------------------------------


     EDDAV:  cpu time   76.5607: real time   77.1399
 BZINTS: Fermi energy:  6.674840;688.000000 electrons
         Band energy:***********;  BLOECHL correction:  0.000000
       DOS:  cpu time    0.0032: real time    0.0032
    --------------------------------------------
      LOOP:  cpu time   76.5639: real time   77.1431

 eigenvalue-minimisations  : 13568
 total energy-change (2. order) :-0.6293496E+04  (-0.6162576E+04)
 number of electron     688.0000000 magnetization       0.0000000
 augmentation part      688.0000000 magnetization       0.0000000

 Free energy of the ion-electron system (eV)
  ---------------------------------------------------
  alpha Z        PSCENC =      2361.13859979
  Ewald energy   TEWEN  =    -62534.09935825
  -Hartree energ DENC   =    -44277.16832629
  -exchange      EXHF   =         0.00000000
  -V(xc)+E(xc)   XCENC  =      3320.18270178
  PAW double counting   =     94592.23312189   -98164.79192727
  entropy T*S    EENTRO =         0.00000000
  eigenvalues    EBANDS =     -9415.32693436
  atomic energy  EATOM  =    114020.06510763
  Solvation  Ediel_sol  =         0.00000000
  ---------------------------------------------------
  free energy    TOTEN  =       -97.76701508 eV

  energy without entropy =      -97.76701508  energy(sigma->0) =      -97.76701508


--------------------------------------------------------------------------------------------------------




--------------------------------------- Iteration      1(   3)  ---------------------------------------


     EDDAV:  cpu time  116.0157: real time  116.8256
 BZINTS: Fermi energy:  6.067719;688.000000 electrons
         Band energy:***********;  BLOECHL correction:  0.000000
       DOS:  cpu time    0.0032: real time    0.0032
    --------------------------------------------
      LOOP:  cpu time  116.0190: real time  116.8289

 eigenvalue-minimisations  : 16896
 total energy-change (2. order) :-0.2742351E+03  (-0.2731229E+03)
 number of electron     688.0000000 magnetization       0.0000000
 augmentation part      688.0000000 magnetization       0.0000000

 Free energy of the ion-electron system (eV)
  ---------------------------------------------------
  alpha Z        PSCENC =      2361.13859979
  Ewald energy   TEWEN  =    -62534.09935825
  -Hartree energ DENC   =    -44277.16832629
  -exchange      EXHF   =         0.00000000
  -V(xc)+E(xc)   XCENC  =      3320.18270178
  PAW double counting   =     94592.23312189   -98164.79192727
  entropy T*S    EENTRO =         0.00000000
  eigenvalues    EBANDS =     -9689.56207752
  atomic energy  EATOM  =    114020.06510763
  Solvation  Ediel_sol  =         0.00000000
  ---------------------------------------------------
  free energy    TOTEN  =      -372.00215824 eV

  energy without entropy =     -372.00215824  energy(sigma->0) =     -372.00215824


--------------------------------------------------------------------------------------------------------




--------------------------------------- Iteration      1(   4)  ---------------------------------------


     EDDAV:  cpu time   84.4586: real time   85.0864
 BZINTS: Fermi energy:  6.093630;688.000000 electrons
         Band energy:***********;  BLOECHL correction:  0.000000
       DOS:  cpu time    0.0032: real time    0.0032
    --------------------------------------------
      LOOP:  cpu time   84.4618: real time   85.0896

 eigenvalue-minimisations  : 14080
 total energy-change (2. order) :-0.3926912E+01  (-0.3926618E+01)
 number of electron     688.0000000 magnetization       0.0000000
 augmentation part      688.0000000 magnetization       0.0000000

 Free energy of the ion-electron system (eV)
  ---------------------------------------------------
  alpha Z        PSCENC =      2361.13859979
  Ewald energy   TEWEN  =    -62534.09935825
  -Hartree energ DENC   =    -44277.16832629
  -exchange      EXHF   =         0.00000000
  -V(xc)+E(xc)   XCENC  =      3320.18270178
  PAW double counting   =     94592.23312189   -98164.79192727
  entropy T*S    EENTRO =         0.00000000
  eigenvalues    EBANDS =     -9693.48898910
  atomic energy  EATOM  =    114020.06510763
  Solvation  Ediel_sol  =         0.00000000
  ---------------------------------------------------
  free energy    TOTEN  =      -375.92906983 eV

  energy without entropy =     -375.92906983  energy(sigma->0) =     -375.92906983


--------------------------------------------------------------------------------------------------------




--------------------------------------- Iteration      1(   5)  ---------------------------------------


     EDDAV:  cpu time  120.3013: real time  121.1349
 BZINTS: Fermi energy:  6.085786;688.000000 electrons
         Band energy:***********;  BLOECHL correction:  0.000000
       DOS:  cpu time    0.0027: real time    0.0028
    CHARGE:  cpu time    1.1863: real time    1.1943
    MIXING:  cpu time    0.0023: real time    0.0023
    --------------------------------------------
      LOOP:  cpu time  121.4926: real time  122.3342

 eigenvalue-minimisations  : 16896
 total energy-change (2. order) :-0.1044073E+00  (-0.1044067E+00)
 number of electron     688.0000294 magnetization       0.0000000
 augmentation part      261.0042232 magnetization       0.0000000

 Broyden mixing:
  rms(total) = 0.75077E+01    rms(broyden)= 0.75077E+01
  rms(prec ) = 0.89951E+01
  weight for this iteration     100.00

 Free energy of the ion-electron system (eV)
  ---------------------------------------------------
  alpha Z        PSCENC =      2361.13859979
  Ewald energy   TEWEN  =    -62534.09935825
  -Hartree energ DENC   =    -44277.16832629
  -exchange      EXHF   =         0.00000000
  -V(xc)+E(xc)   XCENC  =      3320.18270178
  PAW double counting   =     94592.23312189   -98164.79192727
  entropy T*S    EENTRO =         0.00000000
  eigenvalues    EBANDS =     -9693.59339644
  atomic energy  EATOM  =    114020.06510763
  Solvation  Ediel_sol  =         0.00000000
  ---------------------------------------------------
  free energy    TOTEN  =      -376.03347717 eV

  energy without entropy =     -376.03347717  energy(sigma->0) =     -376.03347717


--------------------------------------------------------------------------------------------------------




--------------------------------------- Iteration      1(   6)  ---------------------------------------


    POTLOK:  cpu time    0.1227: real time    0.1249
    SETDIJ:  cpu time    0.0129: real time    0.0130
     EDDAV:  cpu time   64.5089: real time   65.0164
 BZINTS: Fermi energy:  4.289901;688.000000 electrons
         Band energy:***********;  BLOECHL correction:  0.000000
       DOS:  cpu time    0.0040: real time    0.0040
    CHARGE:  cpu time    1.1736: real time    1.1812
    MIXING:  cpu time    0.0024: real time    0.0680
    --------------------------------------------
      LOOP:  cpu time   65.8246: real time   66.4075

 eigenvalue-minimisations  : 12288
 total energy-change (2. order) : 0.4148670E+02  (-0.5911983E+02)
 number of electron     688.0000316 magnetization      -0.0000000
 augmentation part      296.3824289 magnetization      -0.0000000

 Broyden mixing:
  rms(total) = 0.10010E+02    rms(broyden)= 0.10010E+02
  rms(prec ) = 0.10467E+02
  weight for this iteration     100.00

 eigenvalues of (default mixing * dielectric matrix)
  average eigenvalue GAMMA=   0.1688
  0.1688

 Free energy of the ion-electron system (eV)
  ---------------------------------------------------
  alpha Z        PSCENC =      2361.13859979
  Ewald energy   TEWEN  =    -62534.09935825
  -Hartree energ DENC   =    -42318.21343553
  -exchange      EXHF   =         0.00000000
  -V(xc)+E(xc)   XCENC  =      3267.53535883
  PAW double counting   =     96411.10329335   -99770.04828576
  entropy T*S    EENTRO =         0.00000000
  eigenvalues    EBANDS =    -11772.02805607
  atomic energy  EATOM  =    114020.06510763
  Solvation  Ediel_sol  =         0.00000000
  ---------------------------------------------------
  free energy    TOTEN  =      -334.54677601 eV

  energy without entropy =     -334.54677601  energy(sigma->0) =     -334.54677601


--------------------------------------------------------------------------------------------------------




--------------------------------------- Iteration      1(   7)  ---------------------------------------


    POTLOK:  cpu time    0.1206: real time    0.1215
    SETDIJ:  cpu time    0.0127: real time    0.0127
     EDDAV:  cpu time   70.2236: real time   70.7601
 BZINTS: Fermi energy:  4.767442;688.000000 electrons
         Band energy:***********;  BLOECHL correction:  0.000000
       DOS:  cpu time    0.0032: real time    0.0032
    CHARGE:  cpu time    1.1731: real time    1.1804
    MIXING:  cpu time    0.0024: real time    0.0194
    --------------------------------------------
      LOOP:  cpu time   71.5356: real time   72.0973

 eigenvalue-minimisations  : 12800
 total energy-change (2. order) : 0.5209876E+01  (-0.1133785E+02)
 number of electron     688.0000308 magnetization      -0.0000000
 augmentation part      286.0348797 magnetization      -0.0000000

 Broyden mixing:
  rms(total) = 0.43689E+01    rms(broyden)= 0.43688E+01
  rms(prec ) = 0.44445E+01
  weight for this iteration     100.00

 eigenvalues of (default mixing * dielectric matrix)
  average eigenvalue GAMMA=   0.6167
  0.7665  0.4668

 Free energy of the ion-electron system (eV)
  ---------------------------------------------------
  alpha Z        PSCENC =      2361.13859979
  Ewald energy   TEWEN  =    -62534.09935825
  -Hartree energ DENC   =    -42804.58353570
  -exchange      EXHF   =         0.00000000
  -V(xc)+E(xc)   XCENC  =      3279.00221518
  PAW double counting   =     99832.78340431  -103349.12125324
  entropy T*S    EENTRO =         0.00000000
  eigenvalues    EBANDS =    -11134.52207981
  atomic energy  EATOM  =    114020.06510763
  Solvation  Ediel_sol  =         0.00000000
  ---------------------------------------------------
  free energy    TOTEN  =      -329.33690010 eV

  energy without entropy =     -329.33690010  energy(sigma->0) =     -329.33690010


--------------------------------------------------------------------------------------------------------




--------------------------------------- Iteration      1(   8)  ---------------------------------------


    POTLOK:  cpu time    0.1217: real time    0.1228
    SETDIJ:  cpu time    0.0127: real time    0.0128
     EDDAV:  cpu time   93.5210: real time   94.1959
 BZINTS: Fermi energy:  5.294417;688.000000 electrons
         Band energy:***********;  BLOECHL correction:  0.000000
       DOS:  cpu time    0.0032: real time    0.0032
    CHARGE:  cpu time    1.3462: real time    1.3539
    MIXING:  cpu time    0.0016: real time    0.0016
    --------------------------------------------
      LOOP:  cpu time   95.0063: real time   95.6902

 eigenvalue-minimisations  : 14592
 total energy-change (2. order) :-0.1184435E-01  (-0.3655730E+01)
 number of electron     688.0000305 magnetization      -0.0000000
 augmentation part      281.5170242 magnetization      -0.0000000

 Broyden mixing:
  rms(total) = 0.32487E+01    rms(broyden)= 0.32487E+01
  rms(prec ) = 0.35214E+01
  weight for this iteration     100.00

 eigenvalues of (default mixing * dielectric matrix)
  average eigenvalue GAMMA=   0.8716
  1.5462  0.6209  0.4478

 Free energy of the ion-electron system (eV)
  ---------------------------------------------------
  alpha Z        PSCENC =      2361.13859979
  Ewald energy   TEWEN  =    -62534.09935825
  -Hartree energ DENC   =    -43062.57863142
  -exchange      EXHF   =         0.00000000
  -V(xc)+E(xc)   XCENC  =      3291.32374849
  PAW double counting   =    105306.53472776  -108922.22442810
  entropy T*S    EENTRO =         0.00000000
  eigenvalues    EBANDS =    -10789.50851035
  atomic energy  EATOM  =    114020.06510763
  Solvation  Ediel_sol  =         0.00000000
  ---------------------------------------------------
  free energy    TOTEN  =      -329.34874445 eV

  energy without entropy =     -329.34874445  energy(sigma->0) =     -329.34874445


--------------------------------------------------------------------------------------------------------




--------------------------------------- Iteration      1(   9)  ---------------------------------------


    POTLOK:  cpu time    0.1369: real time    0.1379
    SETDIJ:  cpu time    0.0145: real time    0.0145
     EDDAV:  cpu time   92.4795: real time   93.1582
 BZINTS: Fermi energy:  4.777266;688.000000 electrons
         Band energy:***********;  BLOECHL correction:  0.000000
       DOS:  cpu time    0.0032: real time    0.0032
    CHARGE:  cpu time    1.1831: real time    1.1904
    MIXING:  cpu time    0.0018: real time    0.0236
    --------------------------------------------
      LOOP:  cpu time   93.8189: real time   94.5277

 eigenvalue-minimisations  : 15104
 total energy-change (2. order) :-0.1787230E+01  (-0.1021129E+02)
 number of electron     688.0000306 magnetization      -0.0000000
 augmentation part      282.1247031 magnetization      -0.0000000

 Broyden mixing:
  rms(total) = 0.23505E+01    rms(broyden)= 0.23504E+01
  rms(prec ) = 0.27976E+01
  weight for this iteration     100.00

 eigenvalues of (default mixing * dielectric matrix)
  average eigenvalue GAMMA=   0.9800
  2.3927  0.5973  0.5973  0.3328

 Free energy of the ion-electron system (eV)
  ---------------------------------------------------
  alpha Z        PSCENC =      2361.13859979
  Ewald energy   TEWEN  =    -62534.09935825
  -Hartree energ DENC   =    -42848.95146419
  -exchange      EXHF   =         0.00000000
  -V(xc)+E(xc)   XCENC  =      3284.08067127
  PAW double counting   =    109723.40706398  -113375.42652296
  entropy T*S    EENTRO =         0.00000000
  eigenvalues    EBANDS =    -10961.35007181
  atomic energy  EATOM  =    114020.06510763
  Solvation  Ediel_sol  =         0.00000000
  ---------------------------------------------------
  free energy    TOTEN  =      -331.13597453 eV

  energy without entropy =     -331.13597453  energy(sigma->0) =     -331.13597453


--------------------------------------------------------------------------------------------------------




--------------------------------------- Iteration      1(  10)  ---------------------------------------


    POTLOK:  cpu time    0.1233: real time    0.1243
    SETDIJ:  cpu time    0.0128: real time    0.0128
     EDDAV:  cpu time  119.4337: real time  120.2615
 BZINTS: Fermi energy:  4.918105;688.000000 electrons
         Band energy:***********;  BLOECHL correction:  0.000000
       DOS:  cpu time    0.0032: real time    0.0032
    CHARGE:  cpu time    1.1816: real time    1.1887
    MIXING:  cpu time    0.0024: real time    0.0024
    --------------------------------------------
      LOOP:  cpu time  120.7569: real time  121.5929

 eigenvalue-minimisations  : 17152
 total energy-change (2. order) : 0.3660939E+01  (-0.2144212E+01)
 number of electron     688.0000305 magnetization       0.0000000
 augmentation part      282.3924854 magnetization       0.0000000

 Broyden mixing:
  rms(total) = 0.27440E+00    rms(broyden)= 0.27435E+00
  rms(prec ) = 0.30115E+00
  weight for this iteration     100.00

 eigenvalues of (default mixing * dielectric matrix)
  average eigenvalue GAMMA=   0.9219
  2.3590  0.7742  0.5762  0.5762  0.3238

 Free energy of the ion-electron system (eV)
  ---------------------------------------------------
  alpha Z        PSCENC =      2361.13859979
  Ewald energy   TEWEN  =    -62534.09935825
  -Hartree energ DENC   =    -42879.10692697
  -exchange      EXHF   =         0.00000000
  -V(xc)+E(xc)   XCENC  =      3287.38360209
  PAW double counting   =    113276.43475142  -116973.76216731
  entropy T*S    EENTRO =         0.00000000
  eigenvalues    EBANDS =    -10885.52864434
  atomic energy  EATOM  =    114020.06510763
  Solvation  Ediel_sol  =         0.00000000
  ---------------------------------------------------
  free energy    TOTEN  =      -327.47503595 eV

  energy without entropy =     -327.47503595  energy(sigma->0) =     -327.47503595


--------------------------------------------------------------------------------------------------------




--------------------------------------- Iteration      1(  11)  ---------------------------------------


    POTLOK:  cpu time    0.1210: real time    0.1221
    SETDIJ:  cpu time    0.0129: real time    0.0130
     EDDAV:  cpu time   97.3371: real time   98.0438
 BZINTS: Fermi energy:  5.005971;688.000000 electrons
         Band energy:***********;  BLOECHL correction:  0.000000
       DOS:  cpu time    0.0027: real time    0.0028
    CHARGE:  cpu time    1.1831: real time    1.1906
    MIXING:  cpu time    0.0022: real time    0.0022
    --------------------------------------------
      LOOP:  cpu time   98.6591: real time   99.3744

 eigenvalue-minimisations  : 15616
 total energy-change (2. order) :-0.1202906E+00  (-0.1204854E+00)
 number of electron     688.0000304 magnetization      -0.0000000
 augmentation part      282.3705806 magnetization      -0.0000000

 Broyden mixing:
  rms(total) = 0.35358E+00    rms(broyden)= 0.35356E+00
  rms(prec ) = 0.38971E+00
  weight for this iteration     100.00

 eigenvalues of (default mixing * dielectric matrix)
  average eigenvalue GAMMA=   0.9035
  2.2469  0.7958  0.7322  0.7322  0.5760  0.3376

 Free energy of the ion-electron system (eV)
  ---------------------------------------------------
  alpha Z        PSCENC =      2361.13859979
  Ewald energy   TEWEN  =    -62534.09935825
  -Hartree energ DENC   =    -42896.72660847
  -exchange      EXHF   =         0.00000000
  -V(xc)+E(xc)   XCENC  =      3287.10325511
  PAW double counting   =    113062.45018009  -116759.73267153
  entropy T*S    EENTRO =         0.00000000
  eigenvalues    EBANDS =    -10867.79383095
  atomic energy  EATOM  =    114020.06510763
  Solvation  Ediel_sol  =         0.00000000
  ---------------------------------------------------
  free energy    TOTEN  =      -327.59532658 eV

  energy without entropy =     -327.59532658  energy(sigma->0) =     -327.59532658


--------------------------------------------------------------------------------------------------------




--------------------------------------- Iteration      1(  12)  ---------------------------------------


    POTLOK:  cpu time    0.1218: real time    0.1229
    SETDIJ:  cpu time    0.0128: real time    0.0128
     EDDAV:  cpu time  119.4543: real time  120.2879
 BZINTS: Fermi energy:  4.990117;688.000000 electrons
         Band energy:***********;  BLOECHL correction:  0.000000
       DOS:  cpu time    0.0028: real time    0.0028
    CHARGE:  cpu time    1.1734: real time    1.1810
    MIXING:  cpu time    0.0018: real time    0.0018
    --------------------------------------------
      LOOP:  cpu time  120.7669: real time  121.6092

 eigenvalue-minimisations  : 16896
 total energy-change (2. order) : 0.1062044E-01  (-0.4885892E-01)
 number of electron     688.0000304 magnetization      -0.0000000
 augmentation part      282.2490872 magnetization      -0.0000000

 Broyden mixing:
  rms(total) = 0.13175E+00    rms(broyden)= 0.13175E+00
  rms(prec ) = 0.14661E+00
  weight for this iteration     100.00

 eigenvalues of (default mixing * dielectric matrix)
  average eigenvalue GAMMA=   0.9419
  2.2735  1.0816  1.0816  0.6236  0.6236  0.5721  0.3373

 Free energy of the ion-electron system (eV)
  ---------------------------------------------------
  alpha Z        PSCENC =      2361.13859979
  Ewald energy   TEWEN  =    -62534.09935825
  -Hartree energ DENC   =    -42896.56744110
  -exchange      EXHF   =         0.00000000
  -V(xc)+E(xc)   XCENC  =      3286.61752161
  PAW double counting   =    112666.83827430  -116361.00400320
  entropy T*S    EENTRO =         0.00000000
  eigenvalues    EBANDS =    -10870.57340692
  atomic energy  EATOM  =    114020.06510763
  Solvation  Ediel_sol  =         0.00000000
  ---------------------------------------------------
  free energy    TOTEN  =      -327.58470613 eV

  energy without entropy =     -327.58470613  energy(sigma->0) =     -327.58470613


--------------------------------------------------------------------------------------------------------




--------------------------------------- Iteration      1(  13)  ---------------------------------------


    POTLOK:  cpu time    0.1224: real time    0.1259
    SETDIJ:  cpu time    0.0130: real time    0.0130
     EDDAV:  cpu time   82.4999: real time   83.1092
 BZINTS: Fermi energy:  4.993298;688.000000 electrons
         Band energy:***********;  BLOECHL correction:  0.000000
       DOS:  cpu time    0.0028: real time    0.0028
    CHARGE:  cpu time    1.1836: real time    1.1911
    MIXING:  cpu time    0.0016: real time    0.0016
    --------------------------------------------
      LOOP:  cpu time   83.8231: real time   84.4436

 eigenvalue-minimisations  : 13824
 total energy-change (2. order) :-0.6227863E-02  (-0.4856851E-02)
 number of electron     688.0000304 magnetization       0.0000000
 augmentation part      282.2649470 magnetization       0.0000000

 Broyden mixing:
  rms(total) = 0.91046E-01    rms(broyden)= 0.91044E-01
  rms(prec ) = 0.93113E-01
  weight for this iteration     100.00

 eigenvalues of (default mixing * dielectric matrix)
  average eigenvalue GAMMA=   1.1297
  2.5543  2.5543  0.3373  0.8440  0.8440  0.6654  0.6654  0.5726

 Free energy of the ion-electron system (eV)
  ---------------------------------------------------
  alpha Z        PSCENC =      2361.13859979
  Ewald energy   TEWEN  =    -62534.09935825
  -Hartree energ DENC   =    -42902.18313537
  -exchange      EXHF   =         0.00000000
  -V(xc)+E(xc)   XCENC  =      3286.69086443
  PAW double counting   =    112427.57135926  -116121.64484477
  entropy T*S    EENTRO =         0.00000000
  eigenvalues    EBANDS =    -10865.12952672
  atomic energy  EATOM  =    114020.06510763
  Solvation  Ediel_sol  =         0.00000000
  ---------------------------------------------------
  free energy    TOTEN  =      -327.59093400 eV

  energy without entropy =     -327.59093400  energy(sigma->0) =     -327.59093400


--------------------------------------------------------------------------------------------------------




--------------------------------------- Iteration      1(  14)  ---------------------------------------


    POTLOK:  cpu time    0.1226: real time    0.1237
    SETDIJ:  cpu time    0.0129: real time    0.0129
     EDDAV:  cpu time  122.9602: real time  123.8014
 BZINTS: Fermi energy:  4.996079;688.000000 electrons
         Band energy:***********;  BLOECHL correction:  0.000000
       DOS:  cpu time    0.0028: real time    0.0028
    CHARGE:  cpu time    1.1845: real time    1.1917
    MIXING:  cpu time    0.0017: real time    0.0017
    --------------------------------------------
      LOOP:  cpu time  124.2846: real time  125.1342

 eigenvalue-minimisations  : 17152
 total energy-change (2. order) :-0.1107241E-01  (-0.5996201E-02)
 number of electron     688.0000304 magnetization       0.0000000
 augmentation part      282.2265033 magnetization       0.0000000

 Broyden mixing:
  rms(total) = 0.40972E-01    rms(broyden)= 0.40966E-01
  rms(prec ) = 0.46030E-01
  weight for this iteration     100.00

 eigenvalues of (default mixing * dielectric matrix)
  average eigenvalue GAMMA=   1.0548
  2.3861  2.3861  0.9354  0.9354  0.3373  0.6454  0.6454  0.5636  0.6587

 Free energy of the ion-electron system (eV)
  ---------------------------------------------------
  alpha Z        PSCENC =      2361.13859979
  Ewald energy   TEWEN  =    -62534.09935825
  -Hartree energ DENC   =    -42910.61434890
  -exchange      EXHF   =         0.00000000
  -V(xc)+E(xc)   XCENC  =      3286.50861509
  PAW double counting   =    112146.86787054  -115840.32636426
  entropy T*S    EENTRO =         0.00000000
  eigenvalues    EBANDS =    -10857.14212805
  atomic energy  EATOM  =    114020.06510763
  Solvation  Ediel_sol  =         0.00000000
  ---------------------------------------------------
  free energy    TOTEN  =      -327.60200641 eV

  energy without entropy =     -327.60200641  energy(sigma->0) =     -327.60200641


--------------------------------------------------------------------------------------------------------




--------------------------------------- Iteration      1(  15)  ---------------------------------------


    POTLOK:  cpu time    0.1227: real time    0.1256
    SETDIJ:  cpu time    0.0127: real time    0.0127
     EDDAV:  cpu time   73.1776: real time   73.7300
 BZINTS: Fermi energy:  4.994879;688.000000 electrons
         Band energy:***********;  BLOECHL correction:  0.000000
       DOS:  cpu time    0.0032: real time    0.0032
    CHARGE:  cpu time    1.1909: real time    1.1983
    MIXING:  cpu time    0.0021: real time    0.0021
    --------------------------------------------
      LOOP:  cpu time   74.5092: real time   75.0719

 eigenvalue-minimisations  : 12800
 total energy-change (2. order) : 0.2904711E-03  (-0.5366354E-03)
 number of electron     688.0000304 magnetization       0.0000000
 augmentation part      282.2283661 magnetization       0.0000000

 Broyden mixing:
  rms(total) = 0.17800E-01    rms(broyden)= 0.17799E-01
  rms(prec ) = 0.18668E-01
  weight for this iteration     100.00

 eigenvalues of (default mixing * dielectric matrix)
  average eigenvalue GAMMA=   0.9898
  2.3289  2.3289  0.9350  0.9350  0.3372  0.6284  0.6284  0.6450  0.5658  0.5658

 Free energy of the ion-electron system (eV)
  ---------------------------------------------------
  alpha Z        PSCENC =      2361.13859979
  Ewald energy   TEWEN  =    -62534.09935825
  -Hartree energ DENC   =    -42909.22970737
  -exchange      EXHF   =         0.00000000
  -V(xc)+E(xc)   XCENC  =      3286.48334551
  PAW double counting   =    112234.92361195  -115928.65241054
  entropy T*S    EENTRO =         0.00000000
  eigenvalues    EBANDS =    -10858.23090466
  atomic energy  EATOM  =    114020.06510763
  Solvation  Ediel_sol  =         0.00000000
  ---------------------------------------------------
  free energy    TOTEN  =      -327.60171594 eV

  energy without entropy =     -327.60171594  energy(sigma->0) =     -327.60171594


--------------------------------------------------------------------------------------------------------




--------------------------------------- Iteration      1(  16)  ---------------------------------------


    POTLOK:  cpu time    0.1272: real time    0.1282
    SETDIJ:  cpu time    0.0127: real time    0.0128
     EDDAV:  cpu time  139.9921: real time  140.9280
 BZINTS: Fermi energy:  4.994890;688.000000 electrons
         Band energy:***********;  BLOECHL correction:  0.000000
       DOS:  cpu time    0.0028: real time    0.0028
    CHARGE:  cpu time    1.3440: real time    1.3516
    MIXING:  cpu time    0.0026: real time    0.0033
    --------------------------------------------
      LOOP:  cpu time  141.4814: real time  142.4268

 eigenvalue-minimisations  : 17920
 total energy-change (2. order) :-0.1935437E-03  (-0.5274601E-04)
 number of electron     688.0000304 magnetization       0.0000000
 augmentation part      282.2303914 magnetization       0.0000000

 Broyden mixing:
  rms(total) = 0.12690E-01    rms(broyden)= 0.12690E-01
  rms(prec ) = 0.13228E-01
  weight for this iteration     100.00

 eigenvalues of (default mixing * dielectric matrix)
  average eigenvalue GAMMA=   1.1403
  2.4649  2.1549  2.1549  1.2268  0.3373  0.8329  0.8329  0.6651  0.6651  0.5686
  0.6396

 Free energy of the ion-electron system (eV)
  ---------------------------------------------------
  alpha Z        PSCENC =      2361.13859979
  Ewald energy   TEWEN  =    -62534.09935825
  -Hartree energ DENC   =    -42909.41848404
  -exchange      EXHF   =         0.00000000
  -V(xc)+E(xc)   XCENC  =      3286.49805819
  PAW double counting   =    112245.39090543  -115939.05158974
  entropy T*S    EENTRO =         0.00000000
  eigenvalues    EBANDS =    -10858.12514849
  atomic energy  EATOM  =    114020.06510763
  Solvation  Ediel_sol  =         0.00000000
  ---------------------------------------------------
  free energy    TOTEN  =      -327.60190948 eV

  energy without entropy =     -327.60190948  energy(sigma->0) =     -327.60190948


--------------------------------------------------------------------------------------------------------




--------------------------------------- Iteration      1(  17)  ---------------------------------------


    POTLOK:  cpu time    0.1380: real time    0.1390
    SETDIJ:  cpu time    0.0148: real time    0.0148
     EDDAV:  cpu time   84.7740: real time   85.3931
 BZINTS: Fermi energy:  4.995621;688.000000 electrons
         Band energy:***********;  BLOECHL correction:  0.000000
       DOS:  cpu time    0.0028: real time    0.0028
    CHARGE:  cpu time    1.1721: real time    1.1798
    MIXING:  cpu time    0.0026: real time    0.0026
    --------------------------------------------
      LOOP:  cpu time   86.1041: real time   86.7322

 eigenvalue-minimisations  : 13824
 total energy-change (2. order) :-0.6105590E-03  (-0.2821370E-03)
 number of electron     688.0000304 magnetization       0.0000000
 augmentation part      282.2210559 magnetization       0.0000000

 Broyden mixing:
  rms(total) = 0.84413E-02    rms(broyden)= 0.84402E-02
  rms(prec ) = 0.88454E-02
  weight for this iteration     100.00

 eigenvalues of (default mixing * dielectric matrix)
  average eigenvalue GAMMA=   1.1572
  3.2683  2.1637  1.5548  1.5548  0.9217  0.9217  0.3373  0.6539  0.6539  0.5807
  0.6377  0.6377

 Free energy of the ion-electron system (eV)
  ---------------------------------------------------
  alpha Z        PSCENC =      2361.13859979
  Ewald energy   TEWEN  =    -62534.09935825
  -Hartree energ DENC   =    -42911.17340607
  -exchange      EXHF   =         0.00000000
  -V(xc)+E(xc)   XCENC  =      3286.54324799
  PAW double counting   =    112243.84410976  -115937.33000370
  entropy T*S    EENTRO =         0.00000000
  eigenvalues    EBANDS =    -10856.59081719
  atomic energy  EATOM  =    114020.06510763
  Solvation  Ediel_sol  =         0.00000000
  ---------------------------------------------------
  free energy    TOTEN  =      -327.60252004 eV

  energy without entropy =     -327.60252004  energy(sigma->0) =     -327.60252004


--------------------------------------------------------------------------------------------------------




--------------------------------------- Iteration      1(  18)  ---------------------------------------


    POTLOK:  cpu time    0.1214: real time    0.1224
    SETDIJ:  cpu time    0.0127: real time    0.0128
     EDDAV:  cpu time  112.3714: real time  113.1414
 BZINTS: Fermi energy:  4.995528;688.000000 electrons
         Band energy:***********;  BLOECHL correction:  0.000000
       DOS:  cpu time    0.0028: real time    0.0028
    CHARGE:  cpu time    1.1715: real time    1.1788
    MIXING:  cpu time    0.0025: real time    0.0025
    --------------------------------------------
      LOOP:  cpu time  113.6822: real time  114.4607

 eigenvalue-minimisations  : 15872
 total energy-change (2. order) :-0.6956481E-04  (-0.2122283E-04)
 number of electron     688.0000304 magnetization       0.0000000
 augmentation part      282.2278622 magnetization       0.0000000

 Broyden mixing:
  rms(total) = 0.51342E-02    rms(broyden)= 0.51340E-02
  rms(prec ) = 0.59647E-02
  weight for this iteration     100.00

 eigenvalues of (default mixing * dielectric matrix)
  average eigenvalue GAMMA=   1.1464
  3.4437  2.1506  2.0070  1.0787  1.0787  0.3373  0.7658  0.7658  0.7878  0.6593
  0.6593  0.5848  0.5848

 Free energy of the ion-electron system (eV)
  ---------------------------------------------------
  alpha Z        PSCENC =      2361.13859979
  Ewald energy   TEWEN  =    -62534.09935825
  -Hartree energ DENC   =    -42911.02495345
  -exchange      EXHF   =         0.00000000
  -V(xc)+E(xc)   XCENC  =      3286.55068361
  PAW double counting   =    112248.50814698  -115941.95547459
  entropy T*S    EENTRO =         0.00000000
  eigenvalues    EBANDS =    -10856.78534131
  atomic energy  EATOM  =    114020.06510763
  Solvation  Ediel_sol  =         0.00000000
  ---------------------------------------------------
  free energy    TOTEN  =      -327.60258960 eV

  energy without entropy =     -327.60258960  energy(sigma->0) =     -327.60258960


--------------------------------------------------------------------------------------------------------




--------------------------------------- Iteration      1(  19)  ---------------------------------------


    POTLOK:  cpu time    0.1177: real time    0.1226
    SETDIJ:  cpu time    0.0129: real time    0.0129
     EDDAV:  cpu time  128.7658: real time  129.6309
 BZINTS: Fermi energy:  4.995386;688.000000 electrons
         Band energy:***********;  BLOECHL correction:  0.000000
       DOS:  cpu time    0.0028: real time    0.0028
    CHARGE:  cpu time    1.1814: real time    1.1886
    MIXING:  cpu time    0.0021: real time    0.0021
    --------------------------------------------
      LOOP:  cpu time  130.0826: real time  130.9599

 eigenvalue-minimisations  : 17152
 total energy-change (2. order) :-0.4845686E-05  (-0.6172546E-05)
 number of electron     688.0000304 magnetization      -0.0000000
 augmentation part      282.2285761 magnetization      -0.0000000

 Broyden mixing:
  rms(total) = 0.30451E-02    rms(broyden)= 0.30450E-02
  rms(prec ) = 0.33636E-02
  weight for this iteration     100.00

 eigenvalues of (default mixing * dielectric matrix)
  average eigenvalue GAMMA=   1.1878
  3.5179  2.2833  2.2833  1.1868  1.1868  0.9819  0.9819  0.3373  0.6595  0.6595
[...]
   -.419E+02 0.662E+00 0.217E+02   0.428E+02 -.642E+00 -.219E+02   -.858E+00 -.185E-01 0.198E+00   -.178E-03 -.590E-05 -.901E-05
   -.419E+02 0.662E+00 0.217E+02   0.428E+02 -.642E+00 -.219E+02   -.858E+00 -.185E-01 0.198E+00   -.178E-03 -.590E-05 -.901E-05
   -.419E+02 0.662E+00 0.217E+02   0.428E+02 -.642E+00 -.219E+02   -.858E+00 -.185E-01 0.198E+00   -.178E-03 -.590E-05 -.901E-05
   -.419E+02 0.662E+00 0.217E+02   0.428E+02 -.642E+00 -.219E+02   -.858E+00 -.185E-01 0.198E+00   -.178E-03 -.590E-05 -.901E-05
   0.419E+02 -.662E+00 0.217E+02   -.428E+02 0.642E+00 -.219E+02   0.858E+00 0.185E-01 0.198E+00   0.178E-03 0.590E-05 -.901E-05
   0.419E+02 -.662E+00 0.217E+02   -.428E+02 0.642E+00 -.219E+02   0.858E+00 0.185E-01 0.198E+00   0.178E-03 0.590E-05 -.901E-05
   0.419E+02 -.662E+00 0.217E+02   -.428E+02 0.642E+00 -.219E+02   0.858E+00 0.185E-01 0.198E+00   0.178E-03 0.590E-05 -.901E-05
   0.419E+02 -.662E+00 0.217E+02   -.428E+02 0.642E+00 -.219E+02   0.858E+00 0.185E-01 0.198E+00   0.178E-03 0.590E-05 -.901E-05
   0.662E+00 -.419E+02 0.217E+02   -.642E+00 0.428E+02 -.219E+02   -.185E-01 -.858E+00 0.198E+00   -.590E-05 -.178E-03 -.901E-05
   0.662E+00 -.419E+02 0.217E+02   -.642E+00 0.428E+02 -.219E+02   -.185E-01 -.858E+00 0.198E+00   -.590E-05 -.178E-03 -.901E-05
   0.662E+00 -.419E+02 0.217E+02   -.642E+00 0.428E+02 -.219E+02   -.185E-01 -.858E+00 0.198E+00   -.590E-05 -.178E-03 -.901E-05
   0.662E+00 -.419E+02 0.217E+02   -.642E+00 0.428E+02 -.219E+02   -.185E-01 -.858E+00 0.198E+00   -.590E-05 -.178E-03 -.901E-05
   -.662E+00 0.419E+02 0.217E+02   0.642E+00 -.428E+02 -.219E+02   0.185E-01 0.858E+00 0.198E+00   0.590E-05 0.178E-03 -.901E-05
   -.662E+00 0.419E+02 0.217E+02   0.642E+00 -.428E+02 -.219E+02   0.185E-01 0.858E+00 0.198E+00   0.590E-05 0.178E-03 -.901E-05
   -.662E+00 0.419E+02 0.217E+02   0.642E+00 -.428E+02 -.219E+02   0.185E-01 0.858E+00 0.198E+00   0.590E-05 0.178E-03 -.901E-05
   -.662E+00 0.419E+02 0.217E+02   0.642E+00 -.428E+02 -.219E+02   0.185E-01 0.858E+00 0.198E+00   0.590E-05 0.178E-03 -.901E-05
   -.925E-07 -.887E-08 -.255E+02   0.123E-12 0.853E-13 0.245E+02   0.808E-25 0.000E+00 0.103E+01   0.498E-12 0.681E-13 0.701E-04
   -.925E-07 -.887E-08 -.255E+02   0.123E-12 0.142E-12 0.245E+02   0.660E-25 0.000E+00 0.103E+01   -.132E-12 0.131E-12 0.701E-04
   -.925E-07 -.886E-08 -.255E+02   0.123E-12 0.114E-12 0.245E+02   0.135E-24 0.388E-25 0.103E+01   0.480E-12 -.288E-12 0.701E-04
   -.925E-07 -.892E-08 -.255E+02   0.950E-13 0.114E-12 0.245E+02   0.323E-25 -.517E-25 0.103E+01   -.987E-13 -.235E-12 0.701E-04
   -.887E-08 -.925E-07 -.255E+02   -.284E-13 0.114E-12 0.245E+02   -.747E-26 0.711E-25 0.103E+01   -.285E-12 0.544E-13 0.701E-04
   -.886E-08 -.925E-07 -.255E+02   -.284E-13 0.114E-12 0.245E+02   0.525E-26 0.142E-24 0.103E+01   0.172E-12 0.941E-13 0.701E-04
   -.887E-08 -.925E-07 -.255E+02   0.000E+00 0.853E-13 0.245E+02   0.646E-25 0.129E-24 0.103E+01   -.584E-13 -.227E-12 0.701E-04
   -.886E-08 -.925E-07 -.255E+02   -.284E-13 0.853E-13 0.245E+02   0.388E-25 0.258E-25 0.103E+01   -.664E-13 -.304E-12 0.701E-04
   -.925E-07 -.888E-08 -.255E+02   0.135E-12 0.108E-12 0.245E+02   -.969E-26 -.905E-25 0.103E+01   -.194E-12 -.280E-12 0.701E-04
   -.925E-07 -.885E-08 -.255E+02   0.782E-13 0.108E-12 0.245E+02   0.505E-25 -.388E-25 0.103E+01   0.165E-12 -.347E-12 0.701E-04
   -.925E-07 -.883E-08 -.255E+02   0.114E-12 0.817E-13 0.245E+02   -.994E-25 0.258E-25 0.103E+01   -.148E-12 0.139E-12 0.701E-04
   -.925E-07 -.884E-08 -.255E+02   0.142E-12 0.817E-13 0.245E+02   0.129E-25 0.258E-25 0.103E+01   0.819E-13 0.119E-12 0.701E-04
   -.887E-08 -.925E-07 -.255E+02   -.381E-13 0.920E-13 0.245E+02   0.283E-25 0.258E-25 0.103E+01   0.363E-12 -.389E-12 0.701E-04
   -.886E-08 -.925E-07 -.255E+02   -.640E-13 0.919E-13 0.245E+02   0.384E-25 -.194E-25 0.103E+01   -.142E-12 -.156E-12 0.701E-04
   -.887E-08 -.925E-07 -.255E+02   -.382E-13 0.123E-12 0.245E+02   0.485E-25 0.000E+00 0.103E+01   0.309E-12 0.113E-12 0.701E-04
   -.886E-08 -.925E-07 -.255E+02   -.640E-13 0.123E-12 0.245E+02   -.840E-25 -.517E-25 0.103E+01   -.103E-12 0.470E-13 0.701E-04
   0.475E-08 -.335E-07 -.206E+02   -.107E-12 -.199E-12 0.194E+02   -.110E-24 -.129E-25 0.122E+01   0.201E-12 0.748E-13 0.220E-04
   0.476E-08 -.335E-07 -.206E+02   -.937E-13 -.142E-12 0.194E+02   -.397E-25 -.646E-26 0.122E+01   0.258E-13 0.409E-13 0.220E-04
   0.475E-08 -.335E-07 -.206E+02   -.107E-12 -.156E-12 0.194E+02   0.840E-25 0.388E-25 0.122E+01   0.220E-12 -.195E-12 0.220E-04
   0.476E-08 -.335E-07 -.206E+02   -.795E-13 -.185E-12 0.194E+02   0.284E-25 0.256E-25 0.122E+01   -.121E-13 -.107E-12 0.220E-04
   -.335E-07 0.476E-08 -.206E+02   -.178E-13 -.192E-12 0.194E+02   -.969E-25 0.000E+00 0.122E+01   -.151E-12 0.690E-13 0.220E-04
   -.335E-07 0.476E-08 -.206E+02   -.711E-14 -.192E-12 0.194E+02   0.210E-25 -.258E-25 0.122E+01   0.157E-12 0.538E-13 0.220E-04
   -.335E-07 0.477E-08 -.206E+02   -.178E-13 -.128E-12 0.194E+02   0.808E-25 -.517E-25 0.122E+01   0.164E-13 -.154E-12 0.220E-04
   -.335E-07 0.476E-08 -.206E+02   0.213E-13 -.220E-12 0.194E+02   -.420E-25 0.000E+00 0.122E+01   0.575E-13 -.121E-12 0.220E-04
   0.476E-08 -.335E-07 -.206E+02   -.171E-12 -.181E-12 0.194E+02   0.384E-25 -.194E-25 0.122E+01   -.581E-13 -.217E-12 0.220E-04
   0.476E-08 -.334E-07 -.206E+02   -.185E-12 -.207E-12 0.194E+02   -.598E-25 0.000E+00 0.122E+01   0.338E-13 -.167E-12 0.220E-04
   0.476E-08 -.335E-07 -.206E+02   -.185E-12 -.230E-12 0.194E+02   -.545E-25 -.129E-25 0.122E+01   -.317E-13 0.769E-13 0.220E-04
   0.476E-08 -.335E-07 -.206E+02   -.185E-12 -.171E-12 0.194E+02   -.102E-24 -.598E-25 0.122E+01   0.328E-13 0.312E-13 0.220E-04
   -.335E-07 0.476E-08 -.206E+02   -.770E-13 -.205E-12 0.194E+02   0.151E-24 -.517E-25 0.122E+01   0.286E-12 -.316E-12 0.220E-04
   -.335E-07 0.477E-08 -.206E+02   -.363E-13 -.206E-12 0.194E+02   -.220E-25 -.258E-25 0.122E+01   0.212E-13 -.883E-13 0.220E-04
   -.335E-07 0.476E-08 -.206E+02   -.920E-13 -.184E-12 0.194E+02   0.186E-25 0.000E+00 0.122E+01   0.305E-12 0.205E-12 0.220E-04
   -.335E-07 0.475E-08 -.206E+02   -.513E-13 -.184E-12 0.194E+02   -.780E-25 0.129E-25 0.122E+01   -.205E-13 0.635E-13 0.220E-04
 -----------------------------------------------------------------------------------------------
   -.719E-06 -.719E-06 -.424E+02   -.124E-13 -.588E-12 -.995E-12   -.895E-15 0.777E-15 0.424E+02   0.228E-11 -.304E-11 0.119E-02
 
 
 POSITION                                       TOTAL-FORCE (eV/Angst)
 -----------------------------------------------------------------------------------
      1.36989      1.36291      1.26387         0.004050     -0.001651     -0.012577
      6.61985      1.54621      1.26387         0.004050     -0.001651     -0.012577
      1.55319      6.61287      1.26387         0.004050     -0.001651     -0.012577
      6.80316      6.79617      1.26387         0.004050     -0.001651     -0.012577
      4.06338      4.07036      1.26387        -0.004050      0.001651     -0.012577
      9.31335      4.25367      1.26387        -0.004050      0.001651     -0.012577
      4.24669      9.32033      1.26387        -0.004050      0.001651     -0.012577
      9.49665      9.50363      1.26387        -0.004050      0.001651     -0.012577
      1.44538      3.97173      9.08466         0.001651     -0.004050     -0.012577
      6.69535      4.15503      9.08466         0.001651     -0.004050     -0.012577
      1.62869      9.22169      9.08466         0.001651     -0.004050     -0.012577
      6.87865      9.40500      9.08466         0.001651     -0.004050     -0.012577
      3.98789      1.46154      9.08466        -0.001651      0.004050     -0.012577
      9.23785      1.64484      9.08466        -0.001651      0.004050     -0.012577
      4.17119      6.71150      9.08466        -0.001651      0.004050     -0.012577
      9.42116      6.89481      9.08466        -0.001651      0.004050     -0.012577
      1.34675      1.35373      6.47773        -0.004050      0.001651     -0.012577
      6.59671      1.53703      6.47773        -0.004050      0.001651     -0.012577
      1.53005      6.60369      6.47773        -0.004050      0.001651     -0.012577
      6.78002      6.78700      6.47773        -0.004050      0.001651     -0.012577
      4.08652      4.07954      6.47773         0.004050     -0.001651     -0.012577
      9.33649      4.26285      6.47773         0.004050     -0.001651     -0.012577
      4.26983      9.32950      6.47773         0.004050     -0.001651     -0.012577
      9.51979      9.51281      6.47773         0.004050     -0.001651     -0.012577
      3.97871      1.43840      3.87080         0.001651     -0.004050     -0.012577
      9.22867      1.62170      3.87080         0.001651     -0.004050     -0.012577
      4.16202      6.68836      3.87080         0.001651     -0.004050     -0.012577
      9.41198      6.87167      3.87080         0.001651     -0.004050     -0.012577
      1.45456      3.99487      3.87080        -0.001651      0.004050     -0.012577
      6.70452      4.17817      3.87080        -0.001651      0.004050     -0.012577
      1.63786      9.24483      3.87080        -0.001651      0.004050     -0.012577
      6.88783      9.42814      3.87080        -0.001651      0.004050     -0.012577
      0.00000      0.00000      5.24805        -0.000000      0.000000      0.009678
      5.24996      0.18330      5.24805        -0.000000      0.000000      0.009678
      0.18330      5.24996      5.24805        -0.000000      0.000000      0.009678
      5.43327      5.43327      5.24805        -0.000000      0.000000      0.009678
      2.62498      0.09165      2.64112        -0.000000      0.000000      0.009678
      7.87495      0.27496      2.64112        -0.000000      0.000000      0.009678
      2.80829      5.34162      2.64112        -0.000000      0.000000      0.009678
      8.05825      5.52492      2.64112        -0.000000      0.000000      0.009678
      2.71663      2.71663      0.03419        -0.000000      0.000000      0.009678
      7.96660      2.89994      0.03419        -0.000000      0.000000      0.009678
      2.89994      7.96660      0.03419        -0.000000      0.000000      0.009678
      8.14990      8.14990      0.03419        -0.000000      0.000000      0.009678
      0.09165      2.62498      7.85498        -0.000000      0.000000      0.009678
      5.34162      2.80829      7.85498        -0.000000      0.000000      0.009678
      0.27496      7.87495      7.85498        -0.000000      0.000000      0.009678
      5.52492      8.05825      7.85498        -0.000000      0.000000      0.009678
      0.00000      0.00000      0.04501        -0.000000      0.000000      0.015475
      5.24996      0.18330      0.04501        -0.000000      0.000000      0.015475
      0.18330      5.24996      0.04501        -0.000000      0.000000      0.015475
      5.43327      5.43327      0.04501        -0.000000      0.000000      0.015475
      2.62498      0.09165      7.86579        -0.000000      0.000000      0.015475
      7.87495      0.27496      7.86579        -0.000000      0.000000      0.015475
      2.80829      5.34162      7.86579        -0.000000      0.000000      0.015475
      8.05825      5.52492      7.86579        -0.000000      0.000000      0.015475
      2.71663      2.71663      5.25887        -0.000000      0.000000      0.015475
      7.96660      2.89994      5.25887        -0.000000      0.000000      0.015475
      2.89994      7.96660      5.25887        -0.000000      0.000000      0.015475
      8.14990      8.14990      5.25887        -0.000000      0.000000      0.015475
      0.09165      2.62498      2.65194        -0.000000      0.000000      0.015475
      5.34162      2.80829      2.65194        -0.000000      0.000000      0.015475
      0.27496      7.87495      2.65194        -0.000000      0.000000      0.015475
      5.52492      8.05825      2.65194        -0.000000      0.000000      0.015475
 -----------------------------------------------------------------------------------
    total drift:                               -0.000001     -0.000001      0.020439


--------------------------------------------------------------------------------------------------------



  FREE ENERGIE OF THE ION-ELECTRON SYSTEM (eV)
  ---------------------------------------------------
  free  energy   TOTEN  =      -327.60260112 eV

  energy  without entropy=     -327.60260112  energy(sigma->0) =     -327.60260112
 


--------------------------------------------------------------------------------------------------------


    POTLOK:  cpu time    0.1320: real time    0.1327


--------------------------------------------------------------------------------------------------------


 writing wavefunctions
     LOOP+:  cpu time 2774.3329: real time 2797.8908
    4ORBIT:  cpu time    0.0000: real time    0.0000
 


 total charge     
 
# of ion       s       p       d       tot
------------------------------------------
    1        1.314   2.409   0.000   3.723
    2        1.314   2.409   0.000   3.723
    3        1.314   2.409   0.000   3.723
    4        1.314   2.409   0.000   3.723
    5        1.314   2.409   0.000   3.723
    6        1.314   2.409   0.000   3.723
    7        1.314   2.409   0.000   3.723
    8        1.314   2.409   0.000   3.723
    9        1.314   2.409   0.000   3.723
   10        1.314   2.409   0.000   3.723
   11        1.314   2.409   0.000   3.723
   12        1.314   2.409   0.000   3.723
   13        1.314   2.409   0.000   3.723
   14        1.314   2.409   0.000   3.723
   15        1.314   2.409   0.000   3.723
   16        1.314   2.409   0.000   3.723
   17        1.314   2.409   0.000   3.723
   18        1.314   2.409   0.000   3.723
   19        1.314   2.409   0.000   3.723
   20        1.314   2.409   0.000   3.723
   21        1.314   2.409   0.000   3.723
   22        1.314   2.409   0.000   3.723
   23        1.314   2.409   0.000   3.723
   24        1.314   2.409   0.000   3.723
   25        1.314   2.409   0.000   3.723
   26        1.314   2.409   0.000   3.723
   27        1.314   2.409   0.000   3.723
   28        1.314   2.409   0.000   3.723
   29        1.314   2.409   0.000   3.723
   30        1.314   2.409   0.000   3.723
   31        1.314   2.409   0.000   3.723
   32        1.314   2.409   0.000   3.723
   33        0.259   6.202   8.916  15.377
   34        0.259   6.202   8.916  15.377
   35        0.259   6.202   8.916  15.377
   36        0.259   6.202   8.916  15.377
   37        0.259   6.202   8.917  15.378
   38        0.259   6.202   8.917  15.378
   39        0.259   6.202   8.917  15.378
   40        0.259   6.202   8.917  15.378
   41        0.259   6.202   8.916  15.377
   42        0.259   6.202   8.916  15.377
   43        0.259   6.202   8.916  15.377
   44        0.259   6.202   8.916  15.377
   45        0.259   6.202   8.917  15.378
   46        0.259   6.202   8.917  15.378
   47        0.259   6.202   8.917  15.378
   48        0.259   6.202   8.917  15.378
   49        0.349   6.349   5.821  12.520
   50        0.349   6.349   5.821  12.520
   51        0.349   6.349   5.821  12.520
   52        0.349   6.349   5.821  12.520
   53        0.349   6.349   5.821  12.520
   54        0.349   6.349   5.821  12.520
   55        0.349   6.349   5.821  12.520
   56        0.349   6.349   5.821  12.520
   57        0.349   6.349   5.821  12.520
   58        0.349   6.349   5.821  12.520
   59        0.349   6.349   5.821  12.520
   60        0.349   6.349   5.821  12.520
   61        0.349   6.349   5.821  12.520
   62        0.349   6.349   5.821  12.520
   63        0.349   6.349   5.821  12.520
   64        0.349   6.349   5.821  12.520
--------------------------------------------------
tot         51.782 277.908 235.803 565.493
 


 magnetization (x)
 
# of ion       s       p       d       tot
------------------------------------------
    1       -0.001  -0.017   0.000  -0.018
    2       -0.001  -0.017   0.000  -0.018
    3       -0.001  -0.017   0.000  -0.018
    4       -0.001  -0.017   0.000  -0.018
    5       -0.001  -0.017   0.000  -0.018
    6       -0.001  -0.017   0.000  -0.018
    7       -0.001  -0.017   0.000  -0.018
    8       -0.001  -0.017   0.000  -0.018
    9        0.001   0.017   0.000   0.018
   10        0.001   0.017   0.000   0.018
   11        0.001   0.017   0.000   0.018
   12        0.001   0.017   0.000   0.018
   13        0.001   0.017   0.000   0.018
   14        0.001   0.017   0.000   0.018
   15        0.001   0.017   0.000   0.018
   16        0.001   0.017   0.000   0.018
   17       -0.001  -0.017   0.000  -0.018
   18       -0.001  -0.017   0.000  -0.018
   19       -0.001  -0.017   0.000  -0.018
   20       -0.001  -0.017   0.000  -0.018
   21       -0.001  -0.017   0.000  -0.018
   22       -0.001  -0.017   0.000  -0.018
   23       -0.001  -0.017   0.000  -0.018
   24       -0.001  -0.017   0.000  -0.018
   25        0.001   0.017   0.000   0.018
   26        0.001   0.017   0.000   0.018
   27        0.001   0.017   0.000   0.018
   28        0.001   0.017   0.000   0.018
   29        0.001   0.017   0.000   0.018
   30        0.001   0.017   0.000   0.018
   31        0.001   0.017   0.000   0.018
   32        0.001   0.017   0.000   0.018
   33        0.000   0.000   0.001   0.001
   34        0.000   0.000   0.001   0.001
   35        0.000   0.000   0.001   0.001
   36        0.000   0.000   0.001   0.001
   37       -0.000  -0.000  -0.001  -0.002
   38       -0.000  -0.000  -0.001  -0.002
   39       -0.000  -0.000  -0.001  -0.002
   40       -0.000  -0.000  -0.001  -0.002
   41        0.000   0.000   0.001   0.001
   42        0.000   0.000   0.001   0.001
   43        0.000   0.000   0.001   0.001
   44        0.000   0.000   0.001   0.001
   45       -0.000  -0.000  -0.001  -0.002
   46       -0.000  -0.000  -0.001  -0.002
   47       -0.000  -0.000  -0.001  -0.002
   48       -0.000  -0.000  -0.001  -0.002
   49        0.020   0.054   3.669   3.742
   50        0.020   0.054   3.669   3.742
   51        0.020   0.054   3.669   3.742
   52        0.020   0.054   3.669   3.742
   53       -0.020  -0.053  -3.669  -3.742
   54       -0.020  -0.053  -3.669  -3.742
   55       -0.020  -0.053  -3.669  -3.742
   56       -0.020  -0.053  -3.669  -3.742
   57        0.020   0.054   3.669   3.742
   58        0.020   0.054   3.669   3.742
   59        0.020   0.054   3.669   3.742
   60        0.020   0.054   3.669   3.742
   61       -0.020  -0.053  -3.669  -3.742
   62       -0.020  -0.053  -3.669  -3.742
   63       -0.020  -0.053  -3.669  -3.742
   64       -0.020  -0.053  -3.669  -3.742
--------------------------------------------------
tot         -0.001   0.002  -0.001  -0.001
 
 BZINTS: Fermi energy:  4.995119;688.000000 electrons
         Band energy:***********;  BLOECHL correction:  0.000000

 total amount of memory used by VASP MPI-rank0   300225. kBytes
=======================================================================

   base      :      30000. kBytes
   nonl-proj :     174956. kBytes
   fftplans  :       4588. kBytes
   grid      :      69719. kBytes
   one-center:       1990. kBytes
   wavefun   :      18972. kBytes
 
  
  
 General timing and accounting informations for this job:
 ========================================================
  
                  Total CPU time used (sec):     2819.690
                            User time (sec):     2809.704
                          System time (sec):        9.986
                         Elapsed time (sec):     2849.061
  
                   Maximum memory used (kb):      665940.
                   Average memory used (kb):           0.
  
                          Minor page faults:       525666
                          Major page faults:         5825
                 Voluntary context switches:         7276
