       N       E                     dE             d eps       ncg     rms          rms(c)
DAV:   1    -0.298360451083E+03   -0.29836E+03   -0.17479E+03 19456   0.242E+02    0.414E+01
DAV:   2    -0.327484892123E+03   -0.29124E+02   -0.29192E+02 13824   0.272E+01    0.167E+01
DAV:   3    -0.327812726570E+03   -0.32783E+00   -0.51583E+00 19456   0.482E+00    0.125E+01
DAV:   4    -0.327793840188E+03    0.18886E-01   -0.52570E-01 14336   0.204E+00    0.105E+01
DAV:   5    -0.327793526554E+03    0.31363E-03   -0.35379E-02 15104   0.565E-01    0.906E+00
DAV:   6    -0.327793106161E+03    0.42039E-03   -0.36776E-03 15616   0.159E-01    0.723E+00
DAV:   7    -0.327791046034E+03    0.20601E-02   -0.77599E-03 15872   0.264E-01    0.148E+00
DAV:   8    -0.327791089199E+03   -0.43166E-04   -0.33322E-04 13824   0.435E-02    0.112E+00
DAV:   9    -0.327791072227E+03    0.16972E-04   -0.37388E-05 17920   0.136E-02    0.957E-01
DAV:  10    -0.327791039236E+03    0.32991E-04   -0.52776E-04 12800   0.473E-02    0.165E-02
DAV:  11    -0.327791041918E+03   -0.26814E-05   -0.15288E-05 16384   0.721E-03    0.365E-02
DAV:  12    -0.327791043080E+03   -0.11627E-05   -0.21178E-06 18176   0.195E-03    0.553E-02
DAV:  13    -0.327791044651E+03   -0.15704E-05   -0.40167E-06 16896   0.252E-03    0.425E-02
DAV:  14    -0.327791045160E+03   -0.50943E-06   -0.37331E-07 13824   0.863E-04    0.218E-02
DAV:  15    -0.327791045474E+03   -0.31402E-06   -0.53234E-07 17920   0.753E-04    0.127E-02
DAV:  16    -0.327791045581E+03   -0.10735E-06   -0.23185E-07 14336   0.551E-04    0.374E-03
DAV:  17    -0.327791045602E+03   -0.20926E-07   -0.35879E-08 13568   0.303E-04    0.146E-03
DAV:  18    -0.327791045612E+03   -0.98953E-08   -0.25106E-09  9216   0.106E-04
   1 F= -.32779105E+03 E0= -.32779105E+03  d E =0.000000E+00  mag=     0.0000
