       N       E                     dE             d eps       ncg     rms          rms(c)
DAV:   1    -0.298345888283E+03   -0.29835E+03   -0.17771E+03 19968   0.244E+02    0.418E+01
DAV:   2    -0.327824984936E+03   -0.29479E+02   -0.29560E+02 14080   0.273E+01    0.171E+01
DAV:   3    -0.328152043018E+03   -0.32706E+00   -0.55569E+00 19968   0.513E+00    0.128E+01
DAV:   4    -0.328124054543E+03    0.27988E-01   -0.67212E-01 14336   0.229E+00    0.107E+01
DAV:   5    -0.328123659479E+03    0.39506E-03   -0.41742E-02 15872   0.611E-01    0.920E+00
DAV:   6    -0.328123274368E+03    0.38511E-03   -0.39977E-03 14848   0.165E-01    0.732E+00
DAV:   7    -0.328120916676E+03    0.23577E-02   -0.86472E-03 16384   0.281E-01    0.128E+00
DAV:   8    -0.328120955425E+03   -0.38749E-04   -0.36145E-04 12800   0.453E-02    0.954E-01
DAV:   9    -0.328120940687E+03    0.14738E-04   -0.23492E-05 17920   0.116E-02    0.883E-01
DAV:  10    -0.328120889163E+03    0.51524E-04   -0.35318E-04 13568   0.444E-02    0.111E-01
DAV:  11    -0.328120889470E+03   -0.30670E-06   -0.13079E-05 14848   0.722E-03    0.319E-02
DAV:  12    -0.328120889472E+03   -0.22992E-08   -0.11609E-06 20992   0.243E-03    0.241E-02
DAV:  13    -0.328120890070E+03   -0.59845E-06   -0.93139E-07 16384   0.177E-03    0.259E-02
DAV:  14    -0.328120890477E+03   -0.40661E-06   -0.14265E-07 14848   0.486E-04    0.123E-02
DAV:  15    -0.328120890568E+03   -0.90673E-07   -0.40942E-08 12800   0.287E-04    0.106E-02
DAV:  16    -0.328120890666E+03   -0.98182E-07   -0.59024E-08 11520   0.351E-04    0.385E-03
DAV:  17    -0.328120890701E+03   -0.35594E-07   -0.63189E-09 11008   0.137E-04    0.265E-04
DAV:  18    -0.328120890716E+03   -0.14887E-07   -0.21861E-09  9472   0.790E-05    0.388E-04
DAV:  19    -0.328120890713E+03    0.36380E-08   -0.53804E-11 12288   0.444E-05
   1 F= -.32812089E+03 E0= -.32812089E+03  d E =-.800726E-38  mag=     0.0000
