       N       E                     dE             d eps       ncg     rms          rms(c)
DAV:   1     0.600136415498E+04    0.60014E+04   -0.51863E+05 16384   0.197E+03
DAV:   2    -0.140605855974E+03   -0.61420E+04   -0.60360E+04 18944   0.447E+02
DAV:   3    -0.380244691922E+03   -0.23964E+03   -0.23902E+03 22016   0.960E+01
DAV:   4    -0.383614327092E+03   -0.33696E+01   -0.33695E+01 20480   0.115E+01
DAV:   5    -0.383722697805E+03   -0.10837E+00   -0.10837E+00 21248   0.201E+00    0.580E+01
DAV:   6    -0.342106205798E+03    0.41616E+02   -0.55570E+01 25344   0.217E+01    0.337E+01
DAV:   7    -0.331847887365E+03    0.10258E+02   -0.50958E+01 22016   0.234E+01    0.337E+01
DAV:   8    -0.328783674397E+03    0.30642E+01   -0.44868E+01 23040   0.168E+01    0.129E+01
DAV:   9    -0.328129683629E+03    0.65399E+00   -0.13715E+01 21760   0.122E+01    0.813E+00
DAV:  10    -0.328013158227E+03    0.11653E+00   -0.42328E+00 24064   0.495E+00    0.385E+00
DAV:  11    -0.328055053653E+03   -0.41895E-01   -0.51016E-01 19456   0.164E+00    0.155E+00
DAV:  12    -0.328092742032E+03   -0.37688E-01   -0.13872E-01 23552   0.652E-01    0.824E-01
DAV:  13    -0.328100666679E+03   -0.79246E-02   -0.32197E-02 18944   0.424E-01    0.372E-01
DAV:  14    -0.328104298865E+03   -0.36322E-02   -0.87861E-03 22016   0.120E-01    0.240E-01
DAV:  15    -0.328106771383E+03   -0.24725E-02   -0.75287E-03 20224   0.107E-01    0.119E-01
DAV:  16    -0.328107608932E+03   -0.83755E-03   -0.27449E-03 25088   0.579E-02    0.786E-02
DAV:  17    -0.328107952510E+03   -0.34358E-03   -0.16225E-03 18944   0.428E-02    0.460E-02
DAV:  18    -0.328108031416E+03   -0.78906E-04   -0.57814E-04 22272   0.281E-02    0.210E-02
DAV:  19    -0.328108038343E+03   -0.69270E-05   -0.36781E-05 18688   0.872E-03    0.151E-02
DAV:  20    -0.328108040574E+03   -0.22306E-05   -0.12531E-05 23552   0.454E-03    0.675E-03
DAV:  21    -0.328108041529E+03   -0.95533E-06   -0.39399E-06 18688   0.302E-03    0.404E-03
DAV:  22    -0.328108041594E+03   -0.64552E-07   -0.48370E-07 25088   0.119E-03    0.251E-03
DAV:  23    -0.328108041653E+03   -0.59750E-07   -0.97055E-08 21504   0.472E-04    0.119E-03
DAV:  24    -0.328108041702E+03   -0.48545E-07   -0.10123E-07 18944   0.334E-04    0.537E-04
DAV:  25    -0.328108041729E+03   -0.27183E-07   -0.93700E-08 19200   0.311E-04    0.575E-04
DAV:  26    -0.328108041732E+03   -0.28085E-08   -0.51277E-09 15104   0.108E-04
   1 F= -.32810804E+03 E0= -.32810804E+03  d E =0.000000E+00  mag=     0.0000
