       N       E                     dE             d eps       ncg     rms          rms(c)
DAV:   1     0.603304418343E+04    0.60330E+04   -0.51760E+05 16384   0.197E+03
DAV:   2    -0.931579159800E+02   -0.61262E+04   -0.60180E+04 17920   0.446E+02
DAV:   3    -0.341428345959E+03   -0.24827E+03   -0.24741E+03 22528   0.975E+01
DAV:   4    -0.344876786213E+03   -0.34484E+01   -0.34483E+01 19200   0.116E+01
DAV:   5    -0.344981231026E+03   -0.10444E+00   -0.10444E+00 22528   0.198E+00    0.319E+01
DAV:   6    -0.331996092845E+03    0.12985E+02   -0.13949E+01 26368   0.127E+01    0.176E+01
DAV:   7    -0.328349714263E+03    0.36464E+01   -0.85352E+00 22272   0.865E+00    0.126E+01
DAV:   8    -0.327737118842E+03    0.61260E+00   -0.29971E+00 26368   0.400E+00    0.478E+00
DAV:   9    -0.327723354812E+03    0.13764E-01   -0.13360E+00 22528   0.276E+00    0.386E+00
DAV:  10    -0.327712834826E+03    0.10520E-01   -0.87118E-01 21248   0.275E+00    0.244E+00
DAV:  11    -0.327713132481E+03   -0.29765E-03   -0.32268E-01 20992   0.154E+00    0.102E+00
DAV:  12    -0.327720305912E+03   -0.71734E-02   -0.60707E-02 25600   0.573E-01    0.361E-01
DAV:  13    -0.327722062243E+03   -0.17563E-02   -0.56256E-03 19712   0.142E-01    0.191E-01
DAV:  14    -0.327722939591E+03   -0.87735E-03   -0.23651E-03 23040   0.580E-02    0.104E-01
DAV:  15    -0.327723377019E+03   -0.43743E-03   -0.11323E-03 19200   0.386E-02    0.608E-02
DAV:  16    -0.327723518533E+03   -0.14151E-03   -0.39625E-04 22528   0.260E-02    0.379E-02
DAV:  17    -0.327723606090E+03   -0.87557E-04   -0.39607E-04 18688   0.187E-02    0.202E-02
DAV:  18    -0.327723626729E+03   -0.20639E-04   -0.14191E-04 22528   0.122E-02    0.935E-03
DAV:  19    -0.327723628370E+03   -0.16409E-05   -0.72243E-06 16896   0.427E-03    0.669E-03
DAV:  20    -0.327723628967E+03   -0.59752E-06   -0.38431E-06 23552   0.237E-03    0.321E-03
DAV:  21    -0.327723629185E+03   -0.21821E-06   -0.97969E-07 20480   0.129E-03    0.149E-03
DAV:  22    -0.327723629282E+03   -0.96494E-07   -0.10650E-07 23040   0.413E-04    0.999E-04
DAV:  23    -0.327723629330E+03   -0.48138E-07   -0.39875E-08 13312   0.226E-04    0.418E-04
DAV:  24    -0.327723629354E+03   -0.23851E-07   -0.33844E-08 17920   0.192E-04    0.245E-04
DAV:  25    -0.327723629357E+03   -0.25611E-08   -0.79581E-09 12800   0.106E-04
   1 F= -.32772363E+03 E0= -.32772363E+03  d E =0.000000E+00  mag=     0.0000
