 vasp.5.4.4.18Apr17-6-g9f103f2a35 (build Oct 30 2023 17:30:16) complex          
  
 executed on             LinuxIFC date 2024.06.30  04:42:09
 running on  256 total cores
 distrk:  each k-point on  256 cores,    1 groups
 distr:  one band on NCORES_PER_BAND=   1 cores,  256 groups


--------------------------------------------------------------------------------------------------------


 INCAR:
 POTCAR:    PAW_PBE S 06Sep2000                   
 POTCAR:     PAW_PBE Cu_pv 06Sep2000              
 POTCAR:     PAW_PBE Fe_pv 02Aug2007              

 ----------------------------------------------------------------------------- 
|                                                                             |
|           W    W    AA    RRRRR   N    N  II  N    N   GGGG   !!!           |
|           W    W   A  A   R    R  NN   N  II  NN   N  G    G  !!!           |
|           W    W  A    A  R    R  N N  N  II  N N  N  G       !!!           |
|           W WW W  AAAAAA  RRRRR   N  N N  II  N  N N  G  GGG   !            |
|           WW  WW  A    A  R   R   N   NN  II  N   NN  G    G                |
|           W    W  A    A  R    R  N    N  II  N    N   GGGG   !!!           |
|                                                                             |
|      For optimal performance we recommend to set                            |
|        NCORE= 4 - approx SQRT( number of cores)                             |
|      NCORE specifies how many cores store one orbital (NPAR=cpu/NCORE).     |
|      This setting can  greatly improve the performance of VASP for DFT.     |
|      The default,   NCORE=1            might be grossly inefficient         |
|      on modern multi-core architectures or massively parallel machines.     |
|      Do your own testing !!!!                                               |
|      Unfortunately you need to use the default for GW and RPA calculations. |
|      (for HF NCORE is supported but not extensively tested yet)             |
|                                                                             |
 ----------------------------------------------------------------------------- 

 POTCAR:    PAW_PBE S 06Sep2000                   
   SHA256 =  0fc7481fb0695f01bdc6462160264c5c84044ae9ec85a907d398b887a2bc3132 S/
   COPYR  = (c) Copyright 06Sep2000 Georg Kresse                                
   COPYR  = This file is part of the software VASP. Any use, copying, and all ot
   COPYR  = If you do not have a valid VASP license, you may not use, copy or di
   VRHFIN =S : s2p4                                                             
   LEXCH  = PE                                                                  
   EATOM  =   276.8230 eV,   20.3459 Ry                                         
                                                                                
   TITEL  = PAW_PBE S 06Sep2000                                                 
   LULTRA =        F    use ultrasoft PP ?                                      
   IUNSCR =        1    unscreen: 0-lin 1-nonlin 2-no                           
   RPACOR =    1.500    partial core radius                                     
   POMASS =   32.066; ZVAL   =    6.000    mass and valenz                      
   RCORE  =    1.900    outmost cutoff radius                                   
   RWIGS  =    2.200; RWIGS  =    1.164    wigner-seitz radius (au A)           
   ENMAX  =  258.689; ENMIN  =  194.016 eV                                      
   ICORE  =        2    local potential                                         
   LCOR   =        T    correct aug charges                                     
   LPAW   =        T    paw PP                                                  
   EAUG   =  335.092                                                            
   DEXC   =    0.000                                                            
   RMAX   =    1.942    core radius for proj-oper                               
   RAUG   =    1.300    factor for augmentation sphere                          
   RDEP   =    1.954    radius for radial grids                                 
   RDEPT  =    1.744    core radius for aug-charge                              
                                                                                
   Atomic configuration                                                         
    6 entries                                                                   
     n  l   j            E        occ.                                          
     1  0  0.50     -2405.8406   2.0000                                         
     2  0  0.50      -211.7007   2.0000                                         
     2  1  1.50      -156.4958   6.0000                                         
     3  0  0.50       -17.2562   2.0000                                         
     3  1  0.50        -7.0085   4.0000                                         
     3  2  1.50        -6.8029   0.0000                                         
   Description                                                                  
     l       E           TYP  RCUT    TYP  RCUT                                 
     0    -17.2561641     23  1.900                                             
     0    -15.8743224     23  1.900                                             
     1     -7.0085400     23  1.900                                             
     1     -2.7779785     23  1.900                                             
     2     -6.8029130     23  1.900                                             
  local pseudopotential read in
  partial core-charges read in
  partial kinetic energy density read in
  atomic valenz-charges read in
  non local Contribution for L=           0  read in
    real space projection operators read in
  non local Contribution for L=           0  read in
    real space projection operators read in
  non local Contribution for L=           1  read in
    real space projection operators read in
  non local Contribution for L=           1  read in
    real space projection operators read in
    PAW grid and wavefunctions read in
 
   number of l-projection  operators is LMAX  =           4
   number of lm-projection operators is LMMAX =           8
 
 POTCAR:     PAW_PBE Cu_pv 06Sep2000              
   SHA256 =  cb7b504e2ea725fe1f25c85a9ac77d4012ce94cd394135b722c4e25ec297f1cb Cu
   COPYR  = (c) Copyright 06Sep2000 Georg Kresse                                
   COPYR  = This file is part of the software VASP. Any use, copying, and all ot
   COPYR  = If you do not have a valid VASP license, you may not use, copy or di
   VRHFIN =Cu: d10 p1                                                           
   LEXCH  = PE                                                                  
   EATOM  =  4120.1201 eV,  302.8203 Ry                                         
                                                                                
   TITEL  = PAW_PBE Cu_pv 06Sep2000                                             
   LULTRA =        F    use ultrasoft PP ?                                      
   IUNSCR =        1    unscreen: 0-lin 1-nonlin 2-no                           
   RPACOR =    1.500    partial core radius                                     
   POMASS =   63.546; ZVAL   =   17.000    mass and valenz                      
   RCORE  =    2.000    outmost cutoff radius                                   
   RWIGS  =    2.000; RWIGS  =    1.058    wigner-seitz radius (au A)           
   ENMAX  =  368.648; ENMIN  =  276.486 eV                                      
   RCLOC  =    1.304    cutoff for local pot                                    
   LCOR   =        T    correct aug charges                                     
   LPAW   =        T    paw PP                                                  
   EAUG   =  758.233                                                            
   DEXC   =    0.000                                                            
   RMAX   =    2.046    core radius for proj-oper                               
   RAUG   =    1.300    factor for augmentation sphere                          
   RDEP   =    2.025    radius for radial grids                                 
   RDEPT  =    1.558    core radius for aug-charge                              
                                                                                
   Atomic configuration                                                         
    8 entries                                                                   
     n  l   j            E        occ.                                          
     1  0  0.50     -8850.2467   2.0000                                         
     2  0  0.50     -1062.3498   2.0000                                         
     2  1  1.50      -916.8226   6.0000                                         
     3  0  0.50      -114.6929   2.0000                                         
     3  1  1.50       -72.1325   6.0000                                         
     3  2  2.50        -5.0394  10.0000                                         
     4  0  0.50        -4.6097   1.0000                                         
     4  3  2.50        -1.3606   0.0000                                         
   Description                                                                  
     l       E           TYP  RCUT    TYP  RCUT                                 
     1    -72.1324777     23  1.700                                             
     1     -1.3605826     23  1.700                                             
     2     -5.0393776     23  2.000                                             
     2     -6.3999602     23  2.000                                             
     0     -4.6097062     23  1.800                                             
     0     14.1620818     23  1.800                                             
  local pseudopotential read in
  partial core-charges read in
  partial kinetic energy density read in
  atomic valenz-charges read in
  non local Contribution for L=           1  read in
    real space projection operators read in
  non local Contribution for L=           1  read in
    real space projection operators read in
  non local Contribution for L=           2  read in
    real space projection operators read in
  non local Contribution for L=           2  read in
    real space projection operators read in
  non local Contribution for L=           0  read in
    real space projection operators read in
  non local Contribution for L=           0  read in
    real space projection operators read in
    PAW grid and wavefunctions read in
 
   number of l-projection  operators is LMAX  =           6
   number of lm-projection operators is LMMAX =          18
 
 POTCAR:     PAW_PBE Fe_pv 02Aug2007              
   SHA256 =  5d22e414b1f82158bf2c7ecb8b97b28fd0923e48cadc1c3bf74d524558f5dd32 Fe
   COPYR  = (c) Copyright 02Aug2007 Georg Kresse                                
   COPYR  = This file is part of the software VASP. Any use, copying, and all ot
   COPYR  = If you do not have a valid VASP license, you may not use, copy or di
   VRHFIN =Fe:  3pd7s1                                                          
   LEXCH  = PE                                                                  
   EATOM  =  2457.4239 eV,  180.6156 Ry                                         
                                                                                
   TITEL  = PAW_PBE Fe_pv 02Aug2007                                             
   LULTRA =        F    use ultrasoft PP ?                                      
   IUNSCR =        1    unscreen: 0-lin 1-nonlin 2-no                           
   RPACOR =    1.750    partial core radius                                     
   POMASS =   55.847; ZVAL   =   14.000    mass and valenz                      
   RCORE  =    2.200    outmost cutoff radius                                   
   RWIGS  =    2.200; RWIGS  =    1.164    wigner-seitz radius (au A)           
   ENMAX  =  293.238; ENMIN  =  219.928 eV                                      
   ICORE  =        3    local potential                                         
   LCOR   =        T    correct aug charges                                     
   LPAW   =        T    paw PP                                                  
   EAUG   =  578.342                                                            
   DEXC   =    0.000                                                            
   RMAX   =    2.249    core radius for proj-oper                               
   RAUG   =    1.300    factor for augmentation sphere                          
   RDEP   =    2.296    radius for radial grids                                 
   RDEPT  =    1.766    core radius for aug-charge                              
                                                                                
   Atomic configuration                                                         
    8 entries                                                                   
     n  l   j            E        occ.                                          
     1  0  0.50     -6993.8440   2.0000                                         
     2  0  0.50      -814.6047   2.0000                                         
     2  1  1.50      -693.3689   6.0000                                         
     3  0  0.50       -89.4732   2.0000                                         
     3  1  1.50       -55.6373   6.0000                                         
     3  2  2.50        -3.8151   7.0000                                         
     4  0  0.50        -4.2551   1.0000                                         
     4  3  2.50        -1.3606   0.0000                                         
   Description                                                                  
     l       E           TYP  RCUT    TYP  RCUT                                 
     1    -55.6372668     23  2.000                                             
     1     -5.4423304     23  2.000                                             
     2     -3.8151096     23  2.200                                             
     2     -5.1756922     23  2.200                                             
     0     -4.2550951     23  2.200                                             
     0     27.2116520     23  2.200                                             
     3     -1.3605826     23  2.200                                             
  local pseudopotential read in
  partial core-charges read in
  partial kinetic energy density read in
  atomic valenz-charges read in
  non local Contribution for L=           1  read in
    real space projection operators read in
  non local Contribution for L=           1  read in
    real space projection operators read in
  non local Contribution for L=           2  read in
    real space projection operators read in
  non local Contribution for L=           2  read in
    real space projection operators read in
  non local Contribution for L=           0  read in
    real space projection operators read in
  non local Contribution for L=           0  read in
    real space projection operators read in
    PAW grid and wavefunctions read in
 
   number of l-projection  operators is LMAX  =           6
   number of lm-projection operators is LMMAX =          18
 

 ----------------------------------------------------------------------------- 
|                                                                             |
|  ADVICE TO THIS USER RUNNING 'VASP/VAMP'   (HEAR YOUR MASTER'S VOICE ...):  |
|                                                                             |
|      You have a (more or less) 'large supercell' and for larger cells       |
|      it might be more efficient to use real space projection opertators     |
|      So try LREAL= Auto  in the INCAR   file.                               |
|      Mind:          For very  accurate calculation you might also keep the  |
|      reciprocal projection scheme          (i.e. LREAL=.FALSE.)             |
|                                                                             |
 ----------------------------------------------------------------------------- 


 ----------------------------------------------------------------------------- 
|                                                                             |
|  ADVICE TO THIS USER RUNNING 'VASP/VAMP'   (HEAR YOUR MASTER'S VOICE ...):  |
|                                                                             |
|      You enforced a specific xc-type in the INCAR file,                     |
|      a different type was found on the POTCAR file                          |
|          I HOPE YOU KNOW, WHAT YOU ARE  DOING                               |
|                                                                             |
 ----------------------------------------------------------------------------- 

  PAW_PBE S 06Sep2000                   :
 energy of atom  1       EATOM= -276.8230
 kinetic energy error for atom=    0.0007 (will be added to EATOM!!)
   PAW_PBE Cu_pv 06Sep2000              :
 energy of atom  2       EATOM=-4120.1201
 kinetic energy error for atom=    0.0094 (will be added to EATOM!!)
   PAW_PBE Fe_pv 02Aug2007              :
 energy of atom  3       EATOM=-2457.4239
 kinetic energy error for atom=    0.0025 (will be added to EATOM!!)
 
 
 POSCAR: Fe16 Cu16 S32                           
  positions in direct lattice
  No initial velocities read in
 exchange correlation table for  LEXCH =       14
   RHO(1)=    0.500       N(1)  =     2000
   RHO(2)=  100.500       N(2)  =     4000
 


--------------------------------------------------------------------------------------------------------


 ion  position               nearest neighbor table
   1  0.126  0.121  0.126-  41 2.26  61 2.26  37 2.27  49 2.29
   2  0.626  0.121  0.126-  42 2.26  62 2.26  38 2.27  50 2.29
   3  0.126  0.621  0.126-  43 2.26  63 2.26  39 2.27  51 2.29
   4  0.626  0.621  0.126-  44 2.26  64 2.26  40 2.27  52 2.29
   5  0.374  0.371  0.124-  39 2.26  52 2.26  41 2.27  62 2.29
   6  0.874  0.371  0.124-  40 2.26  51 2.26  42 2.27  61 2.29
   7  0.374  0.871  0.124-  37 2.26  50 2.26  43 2.27  64 2.29
   8  0.874  0.871  0.124-  38 2.26  49 2.26  44 2.27  63 2.29
   9  0.125  0.372  0.875-  41 2.27  45 2.27  51 2.27  55 2.27
  10  0.625  0.372  0.875-  42 2.27  46 2.27  52 2.27  56 2.27
  11  0.125  0.872  0.875-  43 2.27  47 2.27  49 2.27  53 2.27
  12  0.625  0.872  0.875-  44 2.27  48 2.27  50 2.27  54 2.27
  13  0.375  0.123  0.875-  41 2.26  46 2.26  50 2.28  53 2.28
  14  0.875  0.123  0.875-  42 2.26  45 2.26  49 2.28  54 2.28
  15  0.375  0.623  0.875-  43 2.26  48 2.26  52 2.28  55 2.28
  16  0.875  0.623  0.875-  44 2.26  47 2.26  51 2.28  56 2.28
  17  0.124  0.121  0.624-  45 2.26  57 2.26  33 2.27  53 2.29
  18  0.624  0.121  0.624-  46 2.26  58 2.26  34 2.27  54 2.29
  19  0.124  0.621  0.624-  47 2.26  59 2.26  35 2.27  55 2.29
  20  0.624  0.621  0.624-  48 2.26  60 2.26  36 2.27  56 2.29
  21  0.376  0.371  0.626-  36 2.26  55 2.26  46 2.27  57 2.29
  22  0.876  0.371  0.626-  35 2.26  56 2.26  45 2.27  58 2.29
  23  0.376  0.871  0.626-  34 2.26  53 2.26  48 2.27  59 2.29
  24  0.876  0.871  0.626-  33 2.26  54 2.26  47 2.27  60 2.29
  25  0.375  0.122  0.375-  34 2.27  37 2.27  57 2.27  62 2.27
  26  0.875  0.122  0.375-  33 2.27  38 2.27  58 2.27  61 2.27
  27  0.375  0.622  0.375-  36 2.27  39 2.27  59 2.27  64 2.27
  28  0.875  0.622  0.375-  35 2.27  40 2.27  60 2.27  63 2.27
  29  0.125  0.373  0.375-  35 2.26  39 2.26  57 2.28  61 2.28
  30  0.625  0.373  0.375-  36 2.26  40 2.26  58 2.28  62 2.28
  31  0.125  0.873  0.375-  33 2.26  37 2.26  59 2.28  63 2.28
  32  0.625  0.873  0.375-  34 2.26  38 2.26  60 2.28  64 2.28
  33  0.999  0.003  0.500-  24 2.26  31 2.26  26 2.27  17 2.27
  34  0.499  0.003  0.500-  23 2.26  32 2.26  25 2.27  18 2.27
  35  0.999  0.503  0.500-  22 2.26  29 2.26  28 2.27  19 2.27
  36  0.499  0.503  0.500-  21 2.26  30 2.26  27 2.27  20 2.27
  37  0.251  0.003  0.250-   7 2.26  31 2.26  25 2.27   1 2.27
  38  0.751  0.003  0.250-   8 2.26  32 2.26  26 2.27   2 2.27
  39  0.251  0.503  0.250-   5 2.26  29 2.26  27 2.27   3 2.27
  40  0.751  0.503  0.250-   6 2.26  30 2.26  28 2.27   4 2.27
  41  0.249  0.253  0.000-   1 2.26  13 2.26   9 2.27   5 2.27
  42  0.749  0.253  0.000-   2 2.26  14 2.26  10 2.27   6 2.27
  43  0.249  0.753  0.000-   3 2.26  15 2.26  11 2.27   7 2.27
  44  0.749  0.753  0.000-   4 2.26  16 2.26  12 2.27   8 2.27
  45  0.001  0.253  0.750-  17 2.26  14 2.26   9 2.27  22 2.27
  46  0.501  0.253  0.750-  18 2.26  13 2.26  10 2.27  21 2.27
  47  0.001  0.753  0.750-  19 2.26  16 2.26  11 2.27  24 2.27
  48  0.501  0.753  0.750-  20 2.26  15 2.26  12 2.27  23 2.27
  49  0.999  0.003  0.000-   8 2.26  11 2.27  14 2.28   1 2.29
  50  0.499  0.003  0.000-   7 2.26  12 2.27  13 2.28   2 2.29
  51  0.999  0.503  0.000-   6 2.26   9 2.27  16 2.28   3 2.29
  52  0.499  0.503  0.000-   5 2.26  10 2.27  15 2.28   4 2.29
  53  0.251  0.003  0.750-  23 2.26  11 2.27  13 2.28  17 2.29
  54  0.751  0.003  0.750-  24 2.26  12 2.27  14 2.28  18 2.29
  55  0.251  0.503  0.750-  21 2.26   9 2.27  15 2.28  19 2.29
  56  0.751  0.503  0.750-  22 2.26  10 2.27  16 2.28  20 2.29
  57  0.249  0.253  0.500-  17 2.26  25 2.27  29 2.28  21 2.29
  58  0.749  0.253  0.500-  18 2.26  26 2.27  30 2.28  22 2.29
  59  0.249  0.753  0.500-  19 2.26  27 2.27  31 2.28  23 2.29
  60  0.749  0.753  0.500-  20 2.26  28 2.27  32 2.28  24 2.29
  61  0.001  0.253  0.250-   1 2.26  26 2.27  29 2.28   6 2.29
  62  0.501  0.253  0.250-   2 2.26  25 2.27  30 2.28   5 2.29
  63  0.001  0.753  0.250-   3 2.26  28 2.27  31 2.28   8 2.29
  64  0.501  0.753  0.250-   4 2.26  27 2.27  32 2.28   7 2.29
 
  LATTYP: Found a simple monoclinic cell.
 ALAT       =    15.2355230811
 B/A-ratio  =     0.6906998824
 C/A-ratio  =     1.5674936766
 COS(beta)  =    -0.9539226342
  
  Lattice vectors:
  
 A1 = ( -10.8239090000,   0.0000000000, -10.7221340000)
 A2 = (   0.0000000000, -10.5231740000,   0.0000000000)
 A3 = (  11.1416930000,   0.0000000000,  21.1232770000)


Analysis of symmetry for initial positions (statically):
=====================================================================
 Subroutine PRICEL returns following result:
 
  LATTYP: Found a base centered monoclinic cell.
 ALAT       =    11.3678421476
 B/A-ratio  =     0.4628483517
 C/A-ratio  =     0.9153888950
 COS(beta)  =    -0.8051083140
  
  Lattice vectors:
  
 A1 = (  -2.4676392500,  -2.6307935000,   5.1203237500)
 A2 = (  -2.4676392500,   2.6307935000,   5.1203237500)
 A3 = (  -0.3177840000,   0.0000000000, -10.4011430000)
 
   8 primitive cells build up your supercell.
 

 Routine SETGRP: Setting up the symmetry group for a 
 simple monoclinic supercell.


 Subroutine GETGRP returns: Found  2 space group operations
 (whereof  1 operations were pure point group operations)
 out of a pool of  4 trial point group operations.


The static configuration has the point symmetry C_1 .
 The point group associated with its full space group is C_2 .


Analysis of symmetry for dynamics (positions and initial velocities):
=====================================================================
 Subroutine PRICEL returns following result:
 
  LATTYP: Found a base centered monoclinic cell.
 ALAT       =    11.3678421476
 B/A-ratio  =     0.4628483517
 C/A-ratio  =     0.9153888950
 COS(beta)  =    -0.8051083140
  
  Lattice vectors:
  
 A1 = (  -2.4676392500,  -2.6307935000,   5.1203237500)
 A2 = (  -2.4676392500,   2.6307935000,   5.1203237500)
 A3 = (  -0.3177840000,   0.0000000000, -10.4011430000)
 
   8 primitive cells build up your supercell.
 

 Routine SETGRP: Setting up the symmetry group for a 
 simple monoclinic supercell.


 Subroutine GETGRP returns: Found  2 space group operations
 (whereof  1 operations were pure point group operations)
 out of a pool of  4 trial point group operations.


The dynamic configuration has the point symmetry C_1 .
 The point group associated with its full space group is C_2 .


Analysis of structural, dynamic, and magnetic symmetry:
=====================================================================
 Subroutine PRICEL returns following result:
 
  LATTYP: Found a base centered monoclinic cell.
 ALAT       =    11.3678421476
 B/A-ratio  =     0.4628483517
 C/A-ratio  =     0.9153888950
 COS(beta)  =    -0.8051083140
  
  Lattice vectors:
  
 A1 = (  -2.4676392500,  -2.6307935000,   5.1203237500)
 A2 = (  -2.4676392500,   2.6307935000,   5.1203237500)
 A3 = (  -0.3177840000,   0.0000000000, -10.4011430000)
 
   8 primitive cells build up your supercell.
 

 Routine SETGRP: Setting up the symmetry group for a 
 simple monoclinic supercell.


 Subroutine GETGRP returns: Found  2 space group operations
 (whereof  1 operations were pure point group operations)
 out of a pool of  4 trial point group operations.


The magnetic configuration has the point symmetry C_1 .
 The point group associated with its full space group is C_2 .


 Subroutine INISYM returns: Found  2 space group operations
 (whereof  1 operations are pure point group operations),
 and found     8 'primitive' translations

 
 
 KPOINTS: Automatic mesh                          

Automatic generation of k-mesh.
Space group operators:
 irot       det(A)        alpha          n_x          n_y          n_z        tau_x        tau_y        tau_z
    1     1.000000     0.000001     1.000000     0.000000     0.000000     0.000000     0.000000     0.000000
    2     1.000000   180.000000     0.000000     1.000000     0.000000    -0.250000     0.000000    -0.250000
 
 Subroutine IBZKPT returns following result:
 ===========================================
 
 Found      8 irreducible k-points:
 
 Following reciprocal coordinates:
            Coordinates               Weight
  0.000000  0.000000  0.000000      1.000000
  0.500000  0.000000  0.000000      1.000000
  0.000000  0.500000  0.000000      1.000000
  0.500000  0.500000  0.000000      1.000000
  0.000000  0.000000  0.500000      1.000000
  0.500000  0.000000  0.500000      1.000000
  0.000000  0.500000  0.500000      1.000000
  0.500000  0.500000  0.500000      1.000000
 
 Following cartesian coordinates:
            Coordinates               Weight
  0.000000  0.000000  0.000000      1.000000
  0.047636  0.000000 -0.001455      1.000000
  0.000000  0.047514  0.000000      1.000000
  0.047636  0.047514 -0.001455      1.000000
 -0.001470  0.000000  0.048117      1.000000
  0.046166  0.000000  0.046661      1.000000
 -0.001470  0.047514  0.048117      1.000000
  0.046166  0.047514  0.046661      1.000000
 
 TETIRR: Found     24 inequivalent tetrahedra from       48
 
 Subroutine IBZKPT_HF returns following result:
 ==============================================
 
 Found      8 k-points in 1st BZ
 the following      8 k-points will be used (e.g. in the exchange kernel)
 Following reciprocal coordinates:   # in IRBZ
  0.000000  0.000000  0.000000    0.12500000   1 t-inv F
  0.500000  0.000000  0.000000    0.12500000   2 t-inv F
  0.000000  0.500000  0.000000    0.12500000   3 t-inv F
  0.500000  0.500000  0.000000    0.12500000   4 t-inv F
  0.000000  0.000000  0.500000    0.12500000   5 t-inv F
  0.500000  0.000000  0.500000    0.12500000   6 t-inv F
  0.000000  0.500000  0.500000    0.12500000   7 t-inv F
  0.500000  0.500000  0.500000    0.12500000   8 t-inv F


--------------------------------------------------------------------------------------------------------




 Dimension of arrays:
   k-points           NKPTS =      8   k-points in BZ     NKDIM =      8   number of bands    NBANDS=    512
   number of dos      NEDOS =    301   number of ions     NIONS =     64
   non local maximal  LDIM  =      6   non local SUM 2l+1 LMDIM =     18
   total plane-waves  NPLWV = 829440
   max r-space proj   IRMAX =      1   max aug-charges    IRDMAX=  22943
   dimension x,y,z NGX =    96 NGY =   96 NGZ =   90
   dimension x,y,z NGXF=   192 NGYF=  192 NGZF=  180
   support grid    NGXF=   192 NGYF=  192 NGZF=  180
   ions per type =              32  16  16
   NGX,Y,Z   is equivalent  to a cutoff of  15.18, 15.17, 14.38 a.u.
   NGXF,Y,Z  is equivalent  to a cutoff of  30.37, 30.33, 28.76 a.u.

 SYSTEM =  CuFeS2                                  
 POSCAR =  Fe16 Cu16 S32                           

 Startparameter for this run:
   NWRITE =      2    write-flag & timer
   PREC   = accura    normal or accurate (medium, high low for compatibility)
   ISTART =      0    job   : 0-new  1-cont  2-samecut
   ICHARG =      1    charge: 1-file 2-atom 10-const
   ISPIN  =      2    spin polarized calculation?
   LNONCOLLINEAR =      F non collinear calculations
   LSORBIT =      F    spin-orbit coupling
   INIWAV =      1    electr: 0-lowe 1-rand  2-diag
   LASPH  =      F    aspherical Exc in radial PAW
   METAGGA=      F    non-selfconsistent MetaGGA calc.

 Electronic Relaxation 1
   ENCUT  =  700.0 eV  51.45 Ry    7.17 a.u.  22.68 22.70 22.45*2*pi/ulx,y,z
   ENINI  =  700.0     initial cutoff
   ENAUG  =  758.2 eV  augmentation charge cutoff
   NELM   =    500;   NELMIN=  2; NELMDL=  0     # of ELM steps 
   EDIFF  = 0.1E-07   stopping-criterion for ELM
   LREAL  =      F    real-space projection
   NLSPLINE    = F    spline interpolate recip. space projectors
   LCOMPAT=      F    compatible to vasp.4.4
   GGA_COMPAT  = T    GGA compatible to vasp.4.4-vasp.4.6
   LMAXPAW     = -100 max onsite density
   LMAXMIX     =    4 max onsite mixed and CHGCAR
   VOSKOWN=      0    Vosko Wilk Nusair interpolation
   ROPT   =    0.00000   0.00000   0.00000
 Ionic relaxation
   EDIFFG = -.1E-04   stopping-criterion for IOM
   NSW    =      0    number of steps for IOM
   NBLOCK =      1;   KBLOCK =      1    inner block; outer block 
   IBRION =     -1    ionic relax: 0-MD 1-quasi-New 2-CG
   NFREE  =      0    steps in history (QN), initial steepest desc. (CG)
   ISIF   =      2    stress and relaxation
   IWAVPR =     10    prediction:  0-non 1-charg 2-wave 3-comb
   ISYM   =      2    0-nonsym 1-usesym 2-fastsym
   LCORR  =      T    Harris-Foulkes like correction to forces

   POTIM  = 0.5000    time-step for ionic-motion
   TEIN   =    0.0    initial temperature
   TEBEG  =    0.0;   TEEND  =   0.0 temperature during run
   SMASS  =  -3.00    Nose mass-parameter (am)
   estimated Nose-frequenzy (Omega)   =  0.10E-29 period in steps =****** mass=  -0.252E-26a.u.
   SCALEE = 1.0000    scale energy and forces
   NPACO  =    256;   APACO  = 16.0  distance and # of slots for P.C.
   PSTRESS=    0.0 pullay stress

  Mass of Ions in am
   POMASS =  32.07 63.55 55.85
  Ionic Valenz
   ZVAL   =   6.00 17.00 14.00
  Atomic Wigner-Seitz radii
   RWIGS  =  -1.00 -1.00 -1.00
  virtual crystal weights 
   VCA    =   1.00  1.00  1.00
   NELECT =     688.0000    total number of electrons
   NUPDOWN=      -1.0000    fix difference up-down

 DOS related values:
   EMIN   =  10.00;   EMAX   =-10.00  energy-range for DOS
   EFERMI =   0.00
   ISMEAR =    -5;   SIGMA  =   0.03  broadening in eV -4-tet -1-fermi 0-gaus

 Electronic relaxation 2 (details)
   IALGO  =     38    algorithm
   LDIAG  =      T    sub-space diagonalisation (order eigenvalues)
   LSUBROT=      F    optimize rotation matrix (better conditioning)
   TURBO    =      0    0=normal 1=particle mesh
   IRESTART =      0    0=no restart 2=restart with 2 vectors
   NREBOOT  =      0    no. of reboots
   NMIN     =      0    reboot dimension
   EREF     =   0.00    reference energy to select bands
   IMIX   =      4    mixing-type and parameters
     AMIX     =   0.40;   BMIX     =  1.00
     AMIX_MAG =   1.60;   BMIX_MAG =  1.00
     AMIN     =   0.10
     WC   =   100.;   INIMIX=   1;  MIXPRE=   1;  MAXMIX= -45

 Intra band minimization:
   WEIMIN = 0.0000     energy-eigenvalue tresh-hold
   EBREAK =  0.49E-11  absolut break condition
   DEPER  =   0.30     relativ break condition  

   TIME   =   0.40     timestep for ELM

  volume/ion in A,a.u.               =      17.95       121.14
  Fermi-wavevector in a.u.,A,eV,Ry     =   1.379906  2.607643 25.907391  1.904139
  Thomas-Fermi vector in A             =   2.504832
 
 Write flags
   LWAVE        =      T    write WAVECAR
   LDOWNSAMPLE  =      F    k-point downsampling of WAVECAR
   LCHARG       =      T    write CHGCAR
   LVTOT        =      F    write LOCPOT, total local potential
   LVHAR        =      F    write LOCPOT, Hartree potential only
   LELF         =      F    write electronic localiz. function (ELF)
   LORBIT       =     11    0 simple, 1 ext, 2 COOP (PROOUT), +10 PAW based schemes


 Dipole corrections
   LMONO  =      F    monopole corrections only (constant potential shift)
   LDIPOL =      F    correct potential (dipole corrections)
   IDIPOL =      0    1-x, 2-y, 3-z, 4-all directions 
   EPSILON=  1.0000000 bulk dielectric constant

 LDA+U is selected, type is set to LDAUTYPE =  2
   angular momentum for each species LDAUL =     2    2    2
   U (eV)           for each species LDAUU =   0.0  0.1  4.7
   J (eV)           for each species LDAUJ =   0.0  0.0  0.0
 Exchange correlation treatment:
   GGA     =    PS    GGA type
   LEXCH   =    14    internal setting for exchange type
   VOSKOWN=      0    Vosko Wilk Nusair interpolation
   LHFCALC =     F    Hartree Fock is set to
   LHFONE  =     F    Hartree Fock one center treatment
   AEXX    =    0.0000 exact exchange contribution

 Linear response parameters
   LEPSILON=     F    determine dielectric tensor
   LRPA    =     F    only Hartree local field effects (RPA)
   LNABLA  =     F    use nabla operator in PAW spheres
   LVEL    =     F    velocity operator in full k-point grid
   LINTERFAST=   F  fast interpolation
   KINTER  =     0    interpolate to denser k-point grid
   CSHIFT  =0.1000    complex shift for real part using Kramers Kronig
   OMEGAMAX=  -1.0    maximum frequency
   DEG_THRESHOLD= 0.2000000E-02 threshold for treating states as degnerate
   RTIME   =   -0.100 relaxation time in fs
  (WPLASMAI=    0.000 imaginary part of plasma frequency in eV, 0.658/RTIME)
   DFIELD  = 0.0000000 0.0000000 0.0000000 field for delta impulse in time
 
 Orbital magnetization related:
   ORBITALMAG=     F  switch on orbital magnetization
   LCHIMAG   =     F  perturbation theory with respect to B field
   DQ        =  0.001000  dq finite difference perturbation B field
   LLRAUG    =     F  two centre corrections for induced B field

 PEAD related settings:
   LPEAD      =     T    switch on PEAD
   IPEAD      =     4    finite difference order for dpsi/dk
   LCALCPOL   =     T    calculate macroscopic polarization
   LCALCEPS   =     F    calculate dielectric tensor
   EFIELD_PEAD=    0.0000    0.0000    0.0000
   SKIP_EDOTP =     F
   LRPA       =     F
   SKIP_SCF   =     F


--------------------------------------------------------------------------------------------------------


 Static calculation
 charge density and potential will be updated during run
 spin polarized calculation
 Variant of blocked Davidson
 Davidson routine will perform the subspace rotation
 perform sub-space diagonalisation
    after iterative eigenvector-optimisation
 modified Broyden-mixing scheme, WC =      100.0
 initial mixing is a Kerker type mixing with AMIX =  0.4000 and BMIX =      1.0000
 Hartree-type preconditioning will be used
 using additional bands          168
 reciprocal scheme for non local part
 use partial core corrections
 calculate Harris-corrections to forces 
   (improved forces if not selfconsistent)
 use gradient corrections 
 use of overlap-Matrix (Vanderbilt PP)
 Fermi weights with tetrahedron method with Bloechl corrections


--------------------------------------------------------------------------------------------------------


  energy-cutoff  :      700.00
  volume of cell :     1148.85
      direct lattice vectors                 reciprocal lattice vectors
    10.506125000  0.000000000  0.320991000     0.095271505  0.000000000 -0.002910811
     0.000000000 10.523174000  0.000000000     0.000000000  0.095028363  0.000000000
     0.317784000  0.000000000 10.401143000    -0.002940186  0.000000000  0.096233111

  length of vectors
    10.511027435 10.523174000 10.405996462     0.095315962  0.095028363  0.096278015


 
 k-points in units of 2pi/SCALE and weight: Automatic mesh                          
   0.00000000  0.00000000  0.00000000       0.125
   0.04763575  0.00000000 -0.00145541       0.125
   0.00000000  0.04751418  0.00000000       0.125
   0.04763575  0.04751418 -0.00145541       0.125
  -0.00147009  0.00000000  0.04811656       0.125
   0.04616566  0.00000000  0.04666115       0.125
  -0.00147009  0.04751418  0.04811656       0.125
   0.04616566  0.04751418  0.04666115       0.125
 
 k-points in reciprocal lattice and weights: Automatic mesh                          
   0.00000000  0.00000000  0.00000000       0.125
   0.50000000  0.00000000  0.00000000       0.125
   0.00000000  0.50000000  0.00000000       0.125
   0.50000000  0.50000000  0.00000000       0.125
   0.00000000  0.00000000  0.50000000       0.125
   0.50000000  0.00000000  0.50000000       0.125
   0.00000000  0.50000000  0.50000000       0.125
   0.50000000  0.50000000  0.50000000       0.125
 
 position of ions in fractional coordinates (direct lattice) 
   0.12632800  0.12108100  0.12558000
   0.62632800  0.12108100  0.12558000
   0.12632800  0.62108100  0.12558000
   0.62632800  0.62108100  0.12558000
   0.37367200  0.37108100  0.12442000
   0.87367200  0.37108100  0.12442000
   0.37367200  0.87108100  0.12442000
   0.87367200  0.87108100  0.12442000
   0.12500000  0.37159500  0.87500000
   0.62500000  0.37159500  0.87500000
   0.12500000  0.87159500  0.87500000
   0.62500000  0.87159500  0.87500000
   0.37500000  0.12344600  0.87500000
   0.87500000  0.12344600  0.87500000
   0.37500000  0.62344600  0.87500000
   0.87500000  0.62344600  0.87500000
   0.12367200  0.12108100  0.62442000
   0.62367200  0.12108100  0.62442000
   0.12367200  0.62108100  0.62442000
   0.62367200  0.62108100  0.62442000
   0.37632800  0.37108100  0.62558000
   0.87632800  0.37108100  0.62558000
   0.37632800  0.87108100  0.62558000
   0.87632800  0.87108100  0.62558000
   0.37500000  0.12159500  0.37500000
   0.87500000  0.12159500  0.37500000
   0.37500000  0.62159500  0.37500000
   0.87500000  0.62159500  0.37500000
   0.12500000  0.37344600  0.37500000
   0.62500000  0.37344600  0.37500000
   0.12500000  0.87344600  0.37500000
   0.62500000  0.87344600  0.37500000
   0.99858000  0.00324400  0.50000600
   0.49858000  0.00324400  0.50000600
   0.99858000  0.50324400  0.50000600
   0.49858000  0.50324400  0.50000600
   0.25142000  0.00324400  0.24999400
   0.75142000  0.00324400  0.24999400
   0.25142000  0.50324400  0.24999400
   0.75142000  0.50324400  0.24999400
   0.24858000  0.25324400  0.00000600
   0.74858000  0.25324400  0.00000600
   0.24858000  0.75324400  0.00000600
   0.74858000  0.75324400  0.00000600
   0.00142000  0.25324400  0.74999400
   0.50142000  0.25324400  0.74999400
   0.00142000  0.75324400  0.74999400
   0.50142000  0.75324400  0.74999400
   0.99917500  0.00315400  0.00046800
   0.49917500  0.00315400  0.00046800
   0.99917500  0.50315400  0.00046800
   0.49917500  0.50315400  0.00046800
   0.25082500  0.00315400  0.74953200
   0.75082500  0.00315400  0.74953200
   0.25082500  0.50315400  0.74953200
   0.75082500  0.50315400  0.74953200
   0.24917500  0.25315400  0.50046800
   0.74917500  0.25315400  0.50046800
   0.24917500  0.75315400  0.50046800
   0.74917500  0.75315400  0.50046800
   0.00082500  0.25315400  0.24953200
   0.50082500  0.25315400  0.24953200
   0.00082500  0.75315400  0.24953200
   0.50082500  0.75315400  0.24953200
 
 position of ions in cartesian coordinates  (Angst):
   1.36712507  1.27415643  1.34672569
   6.62018757  1.27415643  1.50722119
   1.36712507  6.53574343  1.34672569
   6.62018757  6.53574343  1.50722119
   3.96538343  3.90494993  1.41405556
   9.21844593  3.90494993  1.57455106
   3.96538343  9.16653693  1.41405556
   9.21844593  9.16653693  1.57455106
   1.59132663  3.91035884  9.14112400
   6.84438913  3.91035884  9.30161950
   1.59132663  9.17194584  9.14112400
   6.84438913  9.17194584  9.30161950
   4.21785787  1.29904374  9.22137175
   9.47092038  1.29904374  9.38186725
   4.21785787  6.56063074  9.22137175
   9.47092038  6.56063074  9.38186725
   1.49774418  1.27415643  6.53437931
   6.75080668  1.27415643  6.69487481
   1.49774418  6.53574343  6.53437931
   6.75080668  6.53574343  6.69487481
   4.15254832  3.90494993  6.62754494
   9.40561082  3.90494993  6.78804044
   4.15254832  9.16653693  6.62754494
   9.40561082  9.16653693  6.78804044
   4.05896588  1.27956534  4.02080025
   9.31202838  1.27956534  4.18129575
   4.05896588  6.54115234  4.02080025
   9.31202838  6.54115234  4.18129575
   1.43243463  3.92983724  3.94055250
   6.68549713  3.92983724  4.10104800
   1.43243463  9.19142424  3.94055250
   6.68549713  9.19142424  4.10104800
  10.65010021  0.03413718  5.52116910
   5.39703771  0.03413718  5.36067360
  10.65010021  5.29572418  5.52116910
   5.39703771  5.29572418  5.36067360
   2.72089404  0.03413718  2.68092690
   7.97395654  0.03413718  2.84142240
   2.72089404  5.29572418  2.68092690
   7.97395654  5.29572418  2.84142240
   2.61161446  2.66493068  0.07985435
   7.86467696  2.66493068  0.24034985
   2.61161446  7.92651768  0.07985435
   7.86467696  7.92651768  0.24034985
   0.25325479  2.66493068  7.80125065
   5.50631729  2.66493068  7.96174615
   0.25325479  7.92651768  7.80125065
   5.50631729  7.92651768  7.96174615
  10.49760617  0.03319009  0.32559392
   5.24454367  0.03319009  0.16509842
  10.49760617  5.29477709  0.32559392
   5.24454367  5.29477709  0.16509842
   2.87338808  0.03319009  7.87650208
   8.12645058  0.03319009  8.03699758
   2.87338808  5.29477709  7.87650208
   8.12645058  5.29477709  8.03699758
   2.77690442  2.66398359  5.28542217
   8.02996692  2.66398359  5.44591767
   2.77690442  7.92557059  5.28542217
   8.02996692  7.92557059  5.44591767
   0.08796483  2.66398359  2.59568283
   5.34102733  2.66398359  2.75617833
   0.08796483  7.92557059  2.59568283
   5.34102733  7.92557059  2.75617833
 


--------------------------------------------------------------------------------------------------------


 k-point  1 :   0.0000 0.0000 0.0000  plane waves:   48315
 k-point  2 :   0.5000 0.0000 0.0000  plane waves:   48336
 k-point  3 :   0.0000 0.5000 0.0000  plane waves:   48326
 k-point  4 :   0.5000 0.5000 0.0000  plane waves:   48304
 k-point  5 :   0.0000 0.0000 0.5000  plane waves:   48338
 k-point  6 :   0.5000 0.0000 0.5000  plane waves:   48290
 k-point  7 :   0.0000 0.5000 0.5000  plane waves:   48320
 k-point  8 :   0.5000 0.5000 0.5000  plane waves:   48236

 maximum and minimum number of plane-waves per node :     48338    48236

 maximum number of plane-waves:     48338
 maximum index in each direction: 
   IXMAX=   22   IYMAX=   22   IZMAX=   22
   IXMIN=  -23   IYMIN=  -23   IZMIN=  -22


 serial   3D FFT for wavefunctions
 parallel 3D FFT for charge:
    minimum data exchange during FFTs selected (reduces bandwidth)


 total amount of memory used by VASP MPI-rank0   348353. kBytes
=======================================================================

   base      :      30000. kBytes
   nonl-proj :     216760. kBytes
   fftplans  :       4588. kBytes
   grid      :      69719. kBytes
   one-center:       1990. kBytes
   wavefun   :      25296. kBytes
 
     INWAV:  cpu time    0.0001: real time    0.0003
 Broyden mixing: mesh for mixing (old mesh)
   NGX = 45   NGY = 45   NGZ = 45
  (NGX  =192   NGY  =192   NGZ  =180)
  gives a total of  91125 points

 initial charge density was supplied:
 number of electron     687.9999924 magnetization       0.0000000
 keeping initial charge density in first step


--------------------------------------------------------------------------------------------------------


 Maximum index for augmentation-charges          896 (set IRDMAX)


--------------------------------------------------------------------------------------------------------


 First call to EWALD:  gamma=   0.169
 Maximum number of real-space cells 3x 3x 3
 Maximum number of reciprocal cells 3x 3x 3

    FEWALD:  cpu time    0.0027: real time    0.0027


--------------------------------------- Iteration      1(   1)  ---------------------------------------


    POTLOK:  cpu time    0.3757: real time    0.4092
    SETDIJ:  cpu time    0.0149: real time    0.0150
     EDDAV:  cpu time   83.3401: real time   84.0295
 BZINTS: Fermi energy: 14.812613;688.000000 electrons
         Band energy:***********;  BLOECHL correction: -0.028830
       DOS:  cpu time    0.0398: real time    0.0399
    --------------------------------------------
      LOOP:  cpu time   83.7706: real time   84.4937

 eigenvalue-minimisations  : 16384
 total energy-change (2. order) : 0.6033044E+04  (-0.5175986E+05)
 number of electron     687.9999924 magnetization       0.0000000
 augmentation part      687.9999924 magnetization       0.0000000

 Free energy of the ion-electron system (eV)
  ---------------------------------------------------
  alpha Z        PSCENC =      2359.87414622
  Ewald energy   TEWEN  =    -62515.82603249
  -Hartree energ DENC   =    -42800.68404028
  -exchange      EXHF   =         0.00000000
  -V(xc)+E(xc)   XCENC  =      3282.60913564
  PAW double counting   =    112137.10810081  -115828.64214528
  entropy T*S    EENTRO =         0.00000000
  eigenvalues    EBANDS =     -4621.46008881
  atomic energy  EATOM  =    114020.06510763
  Solvation  Ediel_sol  =         0.00000000
  ---------------------------------------------------
  free energy    TOTEN  =      6033.04418343 eV

  energy without entropy =     6033.04418343  energy(sigma->0) =     6033.04418343


--------------------------------------------------------------------------------------------------------




--------------------------------------- Iteration      1(   2)  ---------------------------------------


     EDDAV:  cpu time   97.0830: real time   97.8348
 BZINTS: Fermi energy:  5.360908;688.000000 electrons
         Band energy:***********;  BLOECHL correction: -0.001857
       DOS:  cpu time    0.0307: real time    0.0308
    --------------------------------------------
      LOOP:  cpu time   97.1136: real time   97.8655

 eigenvalue-minimisations  : 17920
 total energy-change (2. order) :-0.6126202E+04  (-0.6017968E+04)
 number of electron     687.9999924 magnetization       0.0000000
 augmentation part      687.9999924 magnetization       0.0000000

 Free energy of the ion-electron system (eV)
  ---------------------------------------------------
  alpha Z        PSCENC =      2359.87414622
  Ewald energy   TEWEN  =    -62515.82603249
  -Hartree energ DENC   =    -42800.68404028
  -exchange      EXHF   =         0.00000000
  -V(xc)+E(xc)   XCENC  =      3282.60913564
  PAW double counting   =    112137.10810081  -115828.64214528
  entropy T*S    EENTRO =         0.00000000
  eigenvalues    EBANDS =    -10747.66218822
  atomic energy  EATOM  =    114020.06510763
  Solvation  Ediel_sol  =         0.00000000
  ---------------------------------------------------
  free energy    TOTEN  =       -93.15791598 eV

  energy without entropy =      -93.15791598  energy(sigma->0) =      -93.15791598


--------------------------------------------------------------------------------------------------------




--------------------------------------- Iteration      1(   3)  ---------------------------------------


     EDDAV:  cpu time  154.3412: real time  155.4181
 BZINTS: Fermi energy:  4.959239;688.000000 electrons
         Band energy:***********;  BLOECHL correction:  0.000000
       DOS:  cpu time    0.0062: real time    0.0062
    --------------------------------------------
      LOOP:  cpu time  154.3474: real time  155.4244

 eigenvalue-minimisations  : 22528
 total energy-change (2. order) :-0.2482704E+03  (-0.2474073E+03)
 number of electron     687.9999924 magnetization       0.0000000
 augmentation part      687.9999924 magnetization       0.0000000

 Free energy of the ion-electron system (eV)
  ---------------------------------------------------
  alpha Z        PSCENC =      2359.87414622
  Ewald energy   TEWEN  =    -62515.82603249
  -Hartree energ DENC   =    -42800.68404028
  -exchange      EXHF   =         0.00000000
  -V(xc)+E(xc)   XCENC  =      3282.60913564
  PAW double counting   =    112137.10810081  -115828.64214528
  entropy T*S    EENTRO =         0.00000000
  eigenvalues    EBANDS =    -10995.93261820
  atomic energy  EATOM  =    114020.06510763
  Solvation  Ediel_sol  =         0.00000000
  ---------------------------------------------------
  free energy    TOTEN  =      -341.42834596 eV

  energy without entropy =     -341.42834596  energy(sigma->0) =     -341.42834596


--------------------------------------------------------------------------------------------------------




--------------------------------------- Iteration      1(   4)  ---------------------------------------


     EDDAV:  cpu time  117.4628: real time  118.3206
 BZINTS: Fermi energy:  4.855027;688.000000 electrons
         Band energy:***********;  BLOECHL correction:  0.000000
       DOS:  cpu time    0.0053: real time    0.0053
    --------------------------------------------
      LOOP:  cpu time  117.4680: real time  118.3259

 eigenvalue-minimisations  : 19200
 total energy-change (2. order) :-0.3448440E+01  (-0.3448263E+01)
 number of electron     687.9999924 magnetization       0.0000000
 augmentation part      687.9999924 magnetization       0.0000000

 Free energy of the ion-electron system (eV)
  ---------------------------------------------------
  alpha Z        PSCENC =      2359.87414622
  Ewald energy   TEWEN  =    -62515.82603249
  -Hartree energ DENC   =    -42800.68404028
  -exchange      EXHF   =         0.00000000
  -V(xc)+E(xc)   XCENC  =      3282.60913564
  PAW double counting   =    112137.10810081  -115828.64214528
  entropy T*S    EENTRO =         0.00000000
  eigenvalues    EBANDS =    -10999.38105845
  atomic energy  EATOM  =    114020.06510763
  Solvation  Ediel_sol  =         0.00000000
  ---------------------------------------------------
  free energy    TOTEN  =      -344.87678621 eV

  energy without entropy =     -344.87678621  energy(sigma->0) =     -344.87678621


--------------------------------------------------------------------------------------------------------




--------------------------------------- Iteration      1(   5)  ---------------------------------------


     EDDAV:  cpu time  155.8958: real time  156.9844
 BZINTS: Fermi energy:  5.034613;688.000000 electrons
         Band energy:***********;  BLOECHL correction:  0.000000
       DOS:  cpu time    0.0060: real time    0.0061
    CHARGE:  cpu time    1.3784: real time    1.3866
    MIXING:  cpu time    0.0045: real time    0.0046
    --------------------------------------------
      LOOP:  cpu time  157.2848: real time  158.3817

 eigenvalue-minimisations  : 22528
 total energy-change (2. order) :-0.1044448E+00  (-0.1044443E+00)
 number of electron     688.0000093 magnetization       0.0000000
 augmentation part      284.0793931 magnetization       0.0000000

 Broyden mixing:
  rms(total) = 0.31856E+01    rms(broyden)= 0.31852E+01
  rms(prec ) = 0.35787E+01
  weight for this iteration     100.00

 Free energy of the ion-electron system (eV)
  ---------------------------------------------------
  alpha Z        PSCENC =      2359.87414622
  Ewald energy   TEWEN  =    -62515.82603249
  -Hartree energ DENC   =    -42800.68404028
  -exchange      EXHF   =         0.00000000
  -V(xc)+E(xc)   XCENC  =      3282.60913564
  PAW double counting   =    112137.10810081  -115828.64214528
  entropy T*S    EENTRO =         0.00000000
  eigenvalues    EBANDS =    -10999.48550327
  atomic energy  EATOM  =    114020.06510763
  Solvation  Ediel_sol  =         0.00000000
  ---------------------------------------------------
  free energy    TOTEN  =      -344.98123103 eV

  energy without entropy =     -344.98123103  energy(sigma->0) =     -344.98123103


--------------------------------------------------------------------------------------------------------




--------------------------------------- Iteration      1(   6)  ---------------------------------------


    POTLOK:  cpu time    0.1187: real time    0.1214
    SETDIJ:  cpu time    0.0128: real time    0.0129
     EDDAV:  cpu time  180.6478: real time  181.8993
 BZINTS: Fermi energy:  4.956788;688.000000 electrons
         Band energy:***********;  BLOECHL correction:  0.000000
       DOS:  cpu time    0.0052: real time    0.0053
    CHARGE:  cpu time    1.3745: real time    1.3833
    MIXING:  cpu time    0.0042: real time    0.0081
    --------------------------------------------
      LOOP:  cpu time  182.1632: real time  183.4304

 eigenvalue-minimisations  : 26368
 total energy-change (2. order) : 0.1298514E+02  (-0.1394901E+01)
 number of electron     688.0000091 magnetization       0.0000000
 augmentation part      280.9934263 magnetization       0.0000000

 Broyden mixing:
  rms(total) = 0.17609E+01    rms(broyden)= 0.17609E+01
  rms(prec ) = 0.19679E+01
  weight for this iteration     100.00

 eigenvalues of (default mixing * dielectric matrix)
  average eigenvalue GAMMA=   0.8117
  0.8117

 Free energy of the ion-electron system (eV)
  ---------------------------------------------------
  alpha Z        PSCENC =      2359.87414622
  Ewald energy   TEWEN  =    -62515.82603249
  -Hartree energ DENC   =    -42981.17714045
  -exchange      EXHF   =         0.00000000
  -V(xc)+E(xc)   XCENC  =      3287.47623242
  PAW double counting   =    113610.38926378  -117324.13765675
  entropy T*S    EENTRO =         0.00000000
  eigenvalues    EBANDS =    -10788.66001320
  atomic energy  EATOM  =    114020.06510763
  Solvation  Ediel_sol  =         0.00000000
  ---------------------------------------------------
  free energy    TOTEN  =      -331.99609284 eV

  energy without entropy =     -331.99609284  energy(sigma->0) =     -331.99609284


--------------------------------------------------------------------------------------------------------




--------------------------------------- Iteration      1(   7)  ---------------------------------------


    POTLOK:  cpu time    0.1198: real time    0.1208
    SETDIJ:  cpu time    0.0127: real time    0.0127
     EDDAV:  cpu time  148.8242: real time  149.8650
 BZINTS: Fermi energy:  4.886515;688.000000 electrons
         Band energy:***********;  BLOECHL correction:  0.000000
       DOS:  cpu time    0.0061: real time    0.0061
    CHARGE:  cpu time    1.3744: real time    1.3830
    MIXING:  cpu time    0.0015: real time    0.0031
    --------------------------------------------
      LOOP:  cpu time  150.3386: real time  151.3908

 eigenvalue-minimisations  : 22272
 total energy-change (2. order) : 0.3646379E+01  (-0.8535168E+00)
 number of electron     688.0000092 magnetization       0.0000000
 augmentation part      283.1406724 magnetization       0.0000000

 Broyden mixing:
  rms(total) = 0.12591E+01    rms(broyden)= 0.12591E+01
  rms(prec ) = 0.13228E+01
  weight for this iteration     100.00

 eigenvalues of (default mixing * dielectric matrix)
  average eigenvalue GAMMA=   0.9561
  1.3942  0.5180

 Free energy of the ion-electron system (eV)
  ---------------------------------------------------
  alpha Z        PSCENC =      2359.87414622
  Ewald energy   TEWEN  =    -62515.82603249
  -Hartree energ DENC   =    -42859.28398271
  -exchange      EXHF   =         0.00000000
  -V(xc)+E(xc)   XCENC  =      3285.24904526
  PAW double counting   =    113194.80627620  -116879.72615204
  entropy T*S    EENTRO =         0.00000000
  eigenvalues    EBANDS =    -10933.50812232
  atomic energy  EATOM  =    114020.06510763
  Solvation  Ediel_sol  =         0.00000000
  ---------------------------------------------------
  free energy    TOTEN  =      -328.34971426 eV

  energy without entropy =     -328.34971426  energy(sigma->0) =     -328.34971426


--------------------------------------------------------------------------------------------------------




--------------------------------------- Iteration      1(   8)  ---------------------------------------


    POTLOK:  cpu time    0.1196: real time    0.1206
    SETDIJ:  cpu time    0.0127: real time    0.0127
     EDDAV:  cpu time  186.4414: real time  187.7210
 BZINTS: Fermi energy:  4.938966;688.000000 electrons
         Band energy:***********;  BLOECHL correction:  0.000000
       DOS:  cpu time    0.0059: real time    0.0059
    CHARGE:  cpu time    1.5620: real time    1.5711
    MIXING:  cpu time    0.0014: real time    0.0014
    --------------------------------------------
      LOOP:  cpu time  188.1431: real time  189.4328

 eigenvalue-minimisations  : 26368
 total energy-change (2. order) : 0.6125954E+00  (-0.2997123E+00)
 number of electron     688.0000092 magnetization       0.0000000
 augmentation part      282.6849192 magnetization       0.0000000

 Broyden mixing:
  rms(total) = 0.47778E+00    rms(broyden)= 0.47777E+00
  rms(prec ) = 0.52127E+00
  weight for this iteration     100.00

 eigenvalues of (default mixing * dielectric matrix)
  average eigenvalue GAMMA=   1.0165
  1.8214  0.6396  0.5885

 Free energy of the ion-electron system (eV)
  ---------------------------------------------------
  alpha Z        PSCENC =      2359.87414622
  Ewald energy   TEWEN  =    -62515.82603249
  -Hartree energ DENC   =    -42907.96789505
  -exchange      EXHF   =         0.00000000
  -V(xc)+E(xc)   XCENC  =      3286.52945867
  PAW double counting   =    112876.88790285  -116569.72791311
  entropy T*S    EENTRO =         0.00000000
  eigenvalues    EBANDS =    -10877.57189356
  atomic energy  EATOM  =    114020.06510763
  Solvation  Ediel_sol  =         0.00000000
  ---------------------------------------------------
  free energy    TOTEN  =      -327.73711884 eV

  energy without entropy =     -327.73711884  energy(sigma->0) =     -327.73711884


--------------------------------------------------------------------------------------------------------




--------------------------------------- Iteration      1(   9)  ---------------------------------------


    POTLOK:  cpu time    0.1195: real time    0.1223
    SETDIJ:  cpu time    0.0127: real time    0.0128
     EDDAV:  cpu time  154.9472: real time  156.0255
 BZINTS: Fermi energy:  4.925393;688.000000 electrons
         Band energy:***********;  BLOECHL correction:  0.000000
       DOS:  cpu time    0.0060: real time    0.0060
    CHARGE:  cpu time    1.3760: real time    1.3861
    MIXING:  cpu time    0.0016: real time    0.0742
    --------------------------------------------
      LOOP:  cpu time  156.4631: real time  157.6269

 eigenvalue-minimisations  : 22528
 total energy-change (2. order) : 0.1376403E-01  (-0.1335960E+00)
 number of electron     688.0000092 magnetization       0.0000000
 augmentation part      282.1107498 magnetization       0.0000000

 Broyden mixing:
  rms(total) = 0.38584E+00    rms(broyden)= 0.38583E+00
  rms(prec ) = 0.43049E+00
  weight for this iteration     100.00

 eigenvalues of (default mixing * dielectric matrix)
  average eigenvalue GAMMA=   0.9365
  1.9247  0.7558  0.5328  0.5328

 Free energy of the ion-electron system (eV)
  ---------------------------------------------------
  alpha Z        PSCENC =      2359.87414622
  Ewald energy   TEWEN  =    -62515.82603249
  -Hartree energ DENC   =    -42924.53999121
  -exchange      EXHF   =         0.00000000
  -V(xc)+E(xc)   XCENC  =      3286.31936580
  PAW double counting   =    112801.32245231  -116496.50997475
  entropy T*S    EENTRO =         0.00000000
  eigenvalues    EBANDS =    -10858.42842831
  atomic energy  EATOM  =    114020.06510763
  Solvation  Ediel_sol  =         0.00000000
  ---------------------------------------------------
  free energy    TOTEN  =      -327.72335481 eV

  energy without entropy =     -327.72335481  energy(sigma->0) =     -327.72335481


--------------------------------------------------------------------------------------------------------




--------------------------------------- Iteration      1(  10)  ---------------------------------------


    POTLOK:  cpu time    0.1191: real time    0.1218
    SETDIJ:  cpu time    0.0127: real time    0.0127
     EDDAV:  cpu time  138.5436: real time  139.5200
 BZINTS: Fermi energy:  4.947529;688.000000 electrons
         Band energy:***********;  BLOECHL correction:  0.000000
       DOS:  cpu time    0.0060: real time    0.0060
    CHARGE:  cpu time    1.3732: real time    1.3827
    MIXING:  cpu time    0.0014: real time    0.0014
    --------------------------------------------
      LOOP:  cpu time  140.0559: real time  141.0446

 eigenvalue-minimisations  : 21248
 total energy-change (2. order) : 0.1051999E-01  (-0.8711801E-01)
 number of electron     688.0000092 magnetization       0.0000000
 augmentation part      282.1368667 magnetization       0.0000000

 Broyden mixing:
  rms(total) = 0.24432E+00    rms(broyden)= 0.24431E+00
  rms(prec ) = 0.27146E+00
  weight for this iteration     100.00

 eigenvalues of (default mixing * dielectric matrix)
  average eigenvalue GAMMA=   0.9969
  1.7139  1.7139  0.6581  0.4625  0.4363

 Free energy of the ion-electron system (eV)
  ---------------------------------------------------
  alpha Z        PSCENC =      2359.87414622
  Ewald energy   TEWEN  =    -62515.82603249
  -Hartree energ DENC   =    -42934.17425334
  -exchange      EXHF   =         0.00000000
  -V(xc)+E(xc)   XCENC  =      3286.96145354
  PAW double counting   =    112695.91408482  -116390.75260423
  entropy T*S    EENTRO =         0.00000000
  eigenvalues    EBANDS =    -10849.77473698
  atomic energy  EATOM  =    114020.06510763
  Solvation  Ediel_sol  =         0.00000000
  ---------------------------------------------------
  free energy    TOTEN  =      -327.71283483 eV

  energy without entropy =     -327.71283483  energy(sigma->0) =     -327.71283483


--------------------------------------------------------------------------------------------------------




--------------------------------------- Iteration      1(  11)  ---------------------------------------


    POTLOK:  cpu time    0.1189: real time    0.1213
    SETDIJ:  cpu time    0.0126: real time    0.0127
     EDDAV:  cpu time  138.4110: real time  139.3895
 BZINTS: Fermi energy:  4.930065;688.000000 electrons
         Band energy:***********;  BLOECHL correction:  0.000000
       DOS:  cpu time    0.0060: real time    0.0060
    CHARGE:  cpu time    1.3746: real time    1.3838
    MIXING:  cpu time    0.0015: real time    0.0015
    --------------------------------------------
      LOOP:  cpu time  139.9246: real time  140.9148

 eigenvalue-minimisations  : 20992
 total energy-change (2. order) :-0.2976544E-03  (-0.3226801E-01)
 number of electron     688.0000092 magnetization       0.0000000
 augmentation part      282.2541580 magnetization       0.0000000

 Broyden mixing:
  rms(total) = 0.10249E+00    rms(broyden)= 0.10249E+00
  rms(prec ) = 0.11300E+00
  weight for this iteration     100.00

 eigenvalues of (default mixing * dielectric matrix)
  average eigenvalue GAMMA=   1.0982
  2.0919  2.0919  0.8277  0.6169  0.6169  0.3439

 Free energy of the ion-electron system (eV)
  ---------------------------------------------------
  alpha Z        PSCENC =      2359.87414622
  Ewald energy   TEWEN  =    -62515.82603249
  -Hartree energ DENC   =    -42919.76398623
  -exchange      EXHF   =         0.00000000
  -V(xc)+E(xc)   XCENC  =      3286.39628779
  PAW double counting   =    112462.94344272  -116155.61460646
  entropy T*S    EENTRO =         0.00000000
  eigenvalues    EBANDS =    -10865.78749166
  atomic energy  EATOM  =    114020.06510763
  Solvation  Ediel_sol  =         0.00000000
  ---------------------------------------------------
  free energy    TOTEN  =      -327.71313248 eV

  energy without entropy =     -327.71313248  energy(sigma->0) =     -327.71313248


--------------------------------------------------------------------------------------------------------




--------------------------------------- Iteration      1(  12)  ---------------------------------------


    POTLOK:  cpu time    0.1189: real time    0.1219
    SETDIJ:  cpu time    0.0127: real time    0.0128
     EDDAV:  cpu time  183.9633: real time  185.2236
 BZINTS: Fermi energy:  4.935244;688.000000 electrons
         Band energy:***********;  BLOECHL correction:  0.000000
       DOS:  cpu time    0.0060: real time    0.0060
    CHARGE:  cpu time    1.3710: real time    1.3812
    MIXING:  cpu time    0.0015: real time    0.0015
    --------------------------------------------
      LOOP:  cpu time  185.4734: real time  186.7470

 eigenvalue-minimisations  : 25600
 total energy-change (2. order) :-0.7173432E-02  (-0.6070749E-02)
 number of electron     688.0000092 magnetization       0.0000000
 augmentation part      282.2218563 magnetization       0.0000000

 Broyden mixing:
  rms(total) = 0.36130E-01    rms(broyden)= 0.36128E-01
  rms(prec ) = 0.38799E-01
  weight for this iteration     100.00

 eigenvalues of (default mixing * dielectric matrix)
  average eigenvalue GAMMA=   1.1018
  2.2289  2.2289  1.0227  0.6714  0.6107  0.6107  0.3393

 Free energy of the ion-electron system (eV)
  ---------------------------------------------------
  alpha Z        PSCENC =      2359.87414622
  Ewald energy   TEWEN  =    -62515.82603249
  -Hartree energ DENC   =    -42924.86878917
  -exchange      EXHF   =         0.00000000
  -V(xc)+E(xc)   XCENC  =      3286.57186106
  PAW double counting   =    112328.88692762  -116022.45123589
  entropy T*S    EENTRO =         0.00000000
  eigenvalues    EBANDS =    -10859.97229088
  atomic energy  EATOM  =    114020.06510763
  Solvation  Ediel_sol  =         0.00000000
  ---------------------------------------------------
  free energy    TOTEN  =      -327.72030591 eV

  energy without entropy =     -327.72030591  energy(sigma->0) =     -327.72030591


--------------------------------------------------------------------------------------------------------




--------------------------------------- Iteration      1(  13)  ---------------------------------------


    POTLOK:  cpu time    0.1202: real time    0.1212
    SETDIJ:  cpu time    0.0127: real time    0.0128
     EDDAV:  cpu time  125.4372: real time  126.3389
 BZINTS: Fermi energy:  4.934496;688.000000 electrons
         Band energy:***********;  BLOECHL correction:  0.000000
       DOS:  cpu time    0.0060: real time    0.0060
    CHARGE:  cpu time    1.3731: real time    1.3830
    MIXING:  cpu time    0.0016: real time    0.0016
    --------------------------------------------
      LOOP:  cpu time  126.9509: real time  127.8635

 eigenvalue-minimisations  : 19712
 total energy-change (2. order) :-0.1756331E-02  (-0.5625595E-03)
 number of electron     688.0000092 magnetization       0.0000000
 augmentation part      282.2283111 magnetization       0.0000000

 Broyden mixing:
  rms(total) = 0.19147E-01    rms(broyden)= 0.19147E-01
  rms(prec ) = 0.20380E-01
  weight for this iteration     100.00

 eigenvalues of (default mixing * dielectric matrix)
  average eigenvalue GAMMA=   1.1119
  2.2765  2.2765  1.0708  1.0708  0.6584  0.6017  0.6017  0.3391

 Free energy of the ion-electron system (eV)
  ---------------------------------------------------
  alpha Z        PSCENC =      2359.87414622
  Ewald energy   TEWEN  =    -62515.82603249
  -Hartree energ DENC   =    -42923.82628371
  -exchange      EXHF   =         0.00000000
  -V(xc)+E(xc)   XCENC  =      3286.54882925
  PAW double counting   =    112286.72791363  -115980.03593576
  entropy T*S    EENTRO =         0.00000000
  eigenvalues    EBANDS =    -10861.24980700
  atomic energy  EATOM  =    114020.06510763
  Solvation  Ediel_sol  =         0.00000000
  ---------------------------------------------------
  free energy    TOTEN  =      -327.72206224 eV

  energy without entropy =     -327.72206224  energy(sigma->0) =     -327.72206224


--------------------------------------------------------------------------------------------------------




--------------------------------------- Iteration      1(  14)  ---------------------------------------


    POTLOK:  cpu time    0.1191: real time    0.1213
    SETDIJ:  cpu time    0.0128: real time    0.0128
     EDDAV:  cpu time  165.9825: real time  167.1159
 BZINTS: Fermi energy:  4.934574;688.000000 electrons
         Band energy:***********;  BLOECHL correction:  0.000000
       DOS:  cpu time    0.0060: real time    0.0061
    CHARGE:  cpu time    1.5876: real time    1.5981
    MIXING:  cpu time    0.0018: real time    0.0018
    --------------------------------------------
      LOOP:  cpu time  167.7098: real time  168.8561

 eigenvalue-minimisations  : 23040
 total energy-change (2. order) :-0.8773485E-03  (-0.2365071E-03)
 number of electron     688.0000092 magnetization       0.0000000
 augmentation part      282.2332502 magnetization       0.0000000

 Broyden mixing:
  rms(total) = 0.10440E-01    rms(broyden)= 0.10439E-01
  rms(prec ) = 0.10904E-01
  weight for this iteration     100.00

 eigenvalues of (default mixing * dielectric matrix)
  average eigenvalue GAMMA=   1.1849
  2.4473  2.4473  1.4266  1.4266  0.3392  0.6111  0.6111  0.7220  0.6330

 Free energy of the ion-electron system (eV)
  ---------------------------------------------------
  alpha Z        PSCENC =      2359.87414622
  Ewald energy   TEWEN  =    -62515.82603249
  -Hartree energ DENC   =    -42923.79178788
  -exchange      EXHF   =         0.00000000
  -V(xc)+E(xc)   XCENC  =      3286.55086950
  PAW double counting   =    112266.23195876  -115959.68886107
  entropy T*S    EENTRO =         0.00000000
  eigenvalues    EBANDS =    -10861.13834025
  atomic energy  EATOM  =    114020.06510763
  Solvation  Ediel_sol  =         0.00000000
  ---------------------------------------------------
  free energy    TOTEN  =      -327.72293959 eV

  energy without entropy =     -327.72293959  energy(sigma->0) =     -327.72293959


--------------------------------------------------------------------------------------------------------




--------------------------------------- Iteration      1(  15)  ---------------------------------------


    POTLOK:  cpu time    0.1289: real time    0.1337
    SETDIJ:  cpu time    0.0137: real time    0.0138
     EDDAV:  cpu time  118.9475: real time  119.8068
 BZINTS: Fermi energy:  4.934661;688.000000 electrons
         Band energy:***********;  BLOECHL correction:  0.000000
       DOS:  cpu time    0.0060: real time    0.0060
    CHARGE:  cpu time    1.3728: real time    1.3828
    MIXING:  cpu time    0.0017: real time    0.0017
    --------------------------------------------
      LOOP:  cpu time  120.4707: real time  121.3448

 eigenvalue-minimisations  : 19200
 total energy-change (2. order) :-0.4374276E-03  (-0.1132257E-03)
 number of electron     688.0000092 magnetization       0.0000000
 augmentation part      282.2249281 magnetization       0.0000000

 Broyden mixing:
  rms(total) = 0.60750E-02    rms(broyden)= 0.60745E-02
  rms(prec ) = 0.66009E-02
  weight for this iteration     100.00

 eigenvalues of (default mixing * dielectric matrix)
  average eigenvalue GAMMA=   1.1911
  2.7193  2.3196  1.7442  1.1362  1.1362  0.3392  0.6059  0.6059  0.6998  0.6052

 Free energy of the ion-electron system (eV)
  ---------------------------------------------------
  alpha Z        PSCENC =      2359.87414622
  Ewald energy   TEWEN  =    -62515.82603249
  -Hartree energ DENC   =    -42924.10297472
  -exchange      EXHF   =         0.00000000
  -V(xc)+E(xc)   XCENC  =      3286.55191118
  PAW double counting   =    112257.46346788  -115950.94527255
  entropy T*S    EENTRO =         0.00000000
  eigenvalues    EBANDS =    -10860.80373017
  atomic energy  EATOM  =    114020.06510763
  Solvation  Ediel_sol  =         0.00000000
  ---------------------------------------------------
  free energy    TOTEN  =      -327.72337702 eV

  energy without entropy =     -327.72337702  energy(sigma->0) =     -327.72337702


--------------------------------------------------------------------------------------------------------




--------------------------------------- Iteration      1(  16)  ---------------------------------------


    POTLOK:  cpu time    0.1190: real time    0.1200
    SETDIJ:  cpu time    0.0127: real time    0.0127
     EDDAV:  cpu time  160.5476: real time  161.6455
 BZINTS: Fermi energy:  4.934739;688.000000 electrons
         Band energy:***********;  BLOECHL correction:  0.000000
       DOS:  cpu time    0.0060: real time    0.0060
    CHARGE:  cpu time    1.3726: real time    1.3820
    MIXING:  cpu time    0.0019: real time    0.0027
    --------------------------------------------
      LOOP:  cpu time  162.0598: real time  163.1689

 eigenvalue-minimisations  : 22528
 total energy-change (2. order) :-0.1415143E-03  (-0.3962470E-04)
 number of electron     688.0000092 magnetization      -0.0000000
 augmentation part      282.2298837 magnetization      -0.0000000

 Broyden mixing:
  rms(total) = 0.37940E-02    rms(broyden)= 0.37936E-02
  rms(prec ) = 0.40436E-02
  weight for this iteration     100.00

 eigenvalues of (default mixing * dielectric matrix)
  average eigenvalue GAMMA=   1.2423
  3.0432  2.1305  2.1305  1.3253  1.3253  0.3392  0.8670  0.6035  0.6035  0.6988
  0.5984

 Free energy of the ion-electron system (eV)
  ---------------------------------------------------
  alpha Z        PSCENC =      2359.87414622
  Ewald energy   TEWEN  =    -62515.82603249
  -Hartree energ DENC   =    -42923.93897445
  -exchange      EXHF   =         0.00000000
  -V(xc)+E(xc)   XCENC  =      3286.55258506
  PAW double counting   =    112255.76373531  -115949.21616965
  entropy T*S    EENTRO =         0.00000000
  eigenvalues    EBANDS =    -10860.99791616
  atomic energy  EATOM  =    114020.06510763
  Solvation  Ediel_sol  =         0.00000000
  ---------------------------------------------------
  free energy    TOTEN  =      -327.72351853 eV

  energy without entropy =     -327.72351853  energy(sigma->0) =     -327.72351853


--------------------------------------------------------------------------------------------------------




--------------------------------------- Iteration      1(  17)  ---------------------------------------


    POTLOK:  cpu time    0.1176: real time    0.1202
    SETDIJ:  cpu time    0.0127: real time    0.0127
     EDDAV:  cpu time  112.0591: real time  112.8843
 BZINTS: Fermi energy:  4.934719;688.000000 electrons
         Band energy:***********;  BLOECHL correction:  0.000000
       DOS:  cpu time    0.0060: real time    0.0060
    CHARGE:  cpu time    1.3712: real time    1.3806
    MIXING:  cpu time    0.0018: real time    0.0018
    --------------------------------------------
      LOOP:  cpu time  113.5683: real time  114.4057

 eigenvalue-minimisations  : 18688
 total energy-change (2. order) :-0.8755695E-04  (-0.3960734E-04)
 number of electron     688.0000092 magnetization      -0.0000000
 augmentation part      282.2289727 magnetization      -0.0000000

 Broyden mixing:
  rms(total) = 0.20237E-02    rms(broyden)= 0.20232E-02
  rms(prec ) = 0.21316E-02
  weight for this iteration     100.00

 eigenvalues of (default mixing * dielectric matrix)
  average eigenvalue GAMMA=   1.3473
  3.9936  2.3261  2.3261  1.4825  1.4825  1.0432  0.3392  0.6049  0.6049  0.7160
  0.6587  0.5905

 Free energy of the ion-electron system (eV)
  ---------------------------------------------------
  alpha Z        PSCENC =      2359.87414622
  Ewald energy   TEWEN  =    -62515.82603249
  -Hartree energ DENC   =    -42923.96027294
  -exchange      EXHF   =         0.00000000
  -V(xc)+E(xc)   XCENC  =      3286.55294364
  PAW double counting   =    112257.93682590  -115951.39451372
  entropy T*S    EENTRO =         0.00000000
  eigenvalues    EBANDS =    -10860.97181033
  atomic energy  EATOM  =    114020.06510763
  Solvation  Ediel_sol  =         0.00000000
  ---------------------------------------------------
  free energy    TOTEN  =      -327.72360609 eV

  energy without entropy =     -327.72360609  energy(sigma->0) =     -327.72360609


--------------------------------------------------------------------------------------------------------




--------------------------------------- Iteration      1(  18)  ---------------------------------------


    POTLOK:  cpu time    0.1178: real time    0.1210
    SETDIJ:  cpu time    0.0127: real time    0.0128
     EDDAV:  cpu time  161.2442: real time  162.3511
 BZINTS: Fermi energy:  4.934675;688.000000 electrons
         Band energy:***********;  BLOECHL correction:  0.000000
       DOS:  cpu time    0.0060: real time    0.0060
    CHARGE:  cpu time    1.3739: real time    1.3828
    MIXING:  cpu time    0.0020: real time    0.0020
    --------------------------------------------
      LOOP:  cpu time  162.7565: real time  163.8757

 eigenvalue-minimisations  : 22528
 total energy-change (2. order) :-0.2063850E-04  (-0.1419142E-04)
 number of electron     688.0000092 magnetization      -0.0000000
 augmentation part      282.2289934 magnetization      -0.0000000

 Broyden mixing:
  rms(total) = 0.93475E-03    rms(broyden)= 0.93421E-03
  rms(prec ) = 0.10083E-02
  weight for this iteration     100.00

 eigenvalues of (default mixing * dielectric matrix)
  average eigenvalue GAMMA=   1.3431
  4.2117  2.3913  2.3913  1.6777  1.1975  1.1975  0.3392  0.9036  0.6034  0.6034
  0.7181  0.6349  0.5911

 Free energy of the ion-electron system (eV)
  ---------------------------------------------------
  alpha Z        PSCENC =      2359.87414622
  Ewald energy   TEWEN  =    -62515.82603249
  -Hartree energ DENC   =    -42923.93344598
  -exchange      EXHF   =         0.00000000
  -V(xc)+E(xc)   XCENC  =      3286.55163759
  PAW double counting   =    112259.73033043  -115953.18609953
  entropy T*S    EENTRO =         0.00000000
  eigenvalues    EBANDS =    -10860.99927059
  atomic energy  EATOM  =    114020.06510763
  Solvation  Ediel_sol  =         0.00000000
  ---------------------------------------------------
  free energy    TOTEN  =      -327.72362673 eV

  energy without entropy =     -327.72362673  energy(sigma->0) =     -327.72362673


--------------------------------------------------------------------------------------------------------




--------------------------------------- Iteration      1(  19)  ---------------------------------------


    POTLOK:  cpu time    0.1204: real time    0.1214
    SETDIJ:  cpu time    0.0129: real time    0.0130
     EDDAV:  cpu time   93.5263: real time   94.2453
 BZINTS: Fermi energy:  4.934677;688.000000 electrons
         Band energy:***********;  BLOECHL correction:  0.000000
       DOS:  cpu time    0.0060: real time    0.0061
    CHARGE:  cpu time    1.3735: real time    1.3831
    MIXING:  cpu time    0.0020: real time    0.0020
    --------------------------------------------
      LOOP:  cpu time   95.0411: real time   95.7709

 eigenvalue-minimisations  : 16896
 total energy-change (2. order) :-0.1640932E-05  (-0.7224267E-06)
 number of electron     688.0000092 magnetization       0.0000000
 augmentation part      282.2289754 magnetization       0.0000000

 Broyden mixing:
[...]
   -.413E+02 0.221E+02 -.156E+01   0.422E+02 -.223E+02 0.158E+01   -.845E+00 0.136E+00 -.192E-01   0.209E-05 0.117E-04 -.131E-05
   -.413E+02 0.221E+02 -.156E+01   0.422E+02 -.223E+02 0.158E+01   -.845E+00 0.136E+00 -.192E-01   0.206E-05 0.117E-04 -.131E-05
   -.413E+02 0.221E+02 -.156E+01   0.422E+02 -.223E+02 0.158E+01   -.845E+00 0.136E+00 -.192E-01   0.209E-05 0.117E-04 -.131E-05
   -.413E+02 0.221E+02 -.156E+01   0.422E+02 -.223E+02 0.158E+01   -.845E+00 0.136E+00 -.192E-01   0.206E-05 0.117E-04 -.131E-05
   0.413E+02 0.221E+02 0.156E+01   -.422E+02 -.223E+02 -.158E+01   0.845E+00 0.136E+00 0.192E-01   -.207E-05 0.117E-04 0.131E-05
   0.413E+02 0.221E+02 0.156E+01   -.422E+02 -.223E+02 -.158E+01   0.845E+00 0.136E+00 0.192E-01   -.207E-05 0.117E-04 0.131E-05
   0.413E+02 0.221E+02 0.156E+01   -.422E+02 -.223E+02 -.158E+01   0.845E+00 0.136E+00 0.192E-01   -.207E-05 0.117E-04 0.131E-05
   0.413E+02 0.221E+02 0.156E+01   -.422E+02 -.223E+02 -.158E+01   0.845E+00 0.136E+00 0.192E-01   -.207E-05 0.117E-04 0.131E-05
   -.221E-07 -.268E+02 -.197E-06   -.888E-13 0.276E+02 -.284E-13   -.444E-25 -.742E+00 0.136E-24   -.127E-09 0.145E-04 -.769E-09
   -.221E-07 -.268E+02 -.197E-06   -.906E-13 0.276E+02 0.977E-14   0.485E-26 -.742E+00 0.517E-25   0.120E-09 0.145E-04 0.771E-09
   -.221E-07 -.268E+02 -.197E-06   -.995E-13 0.276E+02 0.426E-13   0.156E-24 -.742E+00 -.905E-25   -.127E-09 0.145E-04 -.768E-09
   -.221E-07 -.268E+02 -.197E-06   -.853E-13 0.276E+02 -.142E-13   0.889E-25 -.742E+00 0.155E-24   0.120E-09 0.145E-04 0.771E-09
   0.105E-07 0.583E+02 0.219E-06   0.249E-13 -.593E+02 -.595E-13   0.687E-26 0.982E+00 0.905E-25   0.128E-07 0.152E-04 -.388E-09
   0.105E-07 0.583E+02 0.219E-06   0.178E-13 -.593E+02 -.888E-13   0.872E-25 0.982E+00 0.000E+00   -.128E-07 0.152E-04 0.390E-09
   0.105E-07 0.583E+02 0.219E-06   0.213E-13 -.593E+02 -.568E-13   -.913E-25 0.982E+00 0.000E+00   0.128E-07 0.152E-04 -.388E-09
   0.105E-07 0.583E+02 0.219E-06   0.284E-13 -.593E+02 -.114E-12   -.178E-25 0.982E+00 0.000E+00   -.128E-07 0.152E-04 0.390E-09
   0.381E+01 -.204E+02 0.211E+01   -.377E+01 0.195E+02 -.215E+01   -.417E-01 0.816E+00 0.374E-01   0.781E-05 0.978E-05 0.214E-05
   0.381E+01 -.204E+02 0.211E+01   -.377E+01 0.195E+02 -.215E+01   -.417E-01 0.816E+00 0.374E-01   0.776E-05 0.978E-05 0.214E-05
   0.381E+01 -.204E+02 0.211E+01   -.377E+01 0.195E+02 -.215E+01   -.417E-01 0.816E+00 0.374E-01   0.781E-05 0.972E-05 0.214E-05
   0.381E+01 -.204E+02 0.211E+01   -.377E+01 0.195E+02 -.215E+01   -.417E-01 0.816E+00 0.374E-01   0.776E-05 0.972E-05 0.214E-05
   -.381E+01 -.204E+02 -.211E+01   0.377E+01 0.195E+02 0.215E+01   0.417E-01 0.816E+00 -.374E-01   -.775E-05 0.978E-05 -.214E-05
   -.381E+01 -.204E+02 -.211E+01   0.377E+01 0.195E+02 0.215E+01   0.417E-01 0.816E+00 -.374E-01   -.781E-05 0.978E-05 -.214E-05
   -.381E+01 -.204E+02 -.211E+01   0.377E+01 0.195E+02 0.215E+01   0.417E-01 0.816E+00 -.374E-01   -.775E-05 0.972E-05 -.214E-05
   -.381E+01 -.204E+02 -.211E+01   0.377E+01 0.195E+02 0.215E+01   0.417E-01 0.816E+00 -.374E-01   -.781E-05 0.972E-05 -.214E-05
   0.381E+01 -.204E+02 0.211E+01   -.377E+01 0.195E+02 -.215E+01   -.417E-01 0.816E+00 0.374E-01   0.781E-05 0.978E-05 0.214E-05
   0.381E+01 -.204E+02 0.211E+01   -.377E+01 0.195E+02 -.215E+01   -.417E-01 0.816E+00 0.374E-01   0.775E-05 0.978E-05 0.214E-05
   0.381E+01 -.204E+02 0.211E+01   -.377E+01 0.195E+02 -.215E+01   -.417E-01 0.816E+00 0.374E-01   0.781E-05 0.973E-05 0.214E-05
   0.381E+01 -.204E+02 0.211E+01   -.377E+01 0.195E+02 -.215E+01   -.417E-01 0.816E+00 0.374E-01   0.775E-05 0.973E-05 0.214E-05
   -.381E+01 -.204E+02 -.211E+01   0.377E+01 0.195E+02 0.215E+01   0.417E-01 0.816E+00 -.374E-01   -.776E-05 0.978E-05 -.214E-05
   -.381E+01 -.204E+02 -.211E+01   0.377E+01 0.195E+02 0.215E+01   0.417E-01 0.816E+00 -.374E-01   -.781E-05 0.978E-05 -.213E-05
   -.381E+01 -.204E+02 -.211E+01   0.377E+01 0.195E+02 0.215E+01   0.417E-01 0.816E+00 -.374E-01   -.776E-05 0.973E-05 -.214E-05
   -.381E+01 -.204E+02 -.211E+01   0.377E+01 0.195E+02 0.215E+01   0.417E-01 0.816E+00 -.374E-01   -.781E-05 0.973E-05 -.214E-05
   -.544E+01 -.196E+02 0.248E+01   0.534E+01 0.186E+02 -.254E+01   0.976E-01 0.107E+01 0.473E-01   -.261E-06 0.905E-05 0.991E-05
   -.544E+01 -.196E+02 0.248E+01   0.534E+01 0.186E+02 -.254E+01   0.976E-01 0.107E+01 0.473E-01   -.305E-06 0.905E-05 0.991E-05
   -.544E+01 -.196E+02 0.248E+01   0.534E+01 0.186E+02 -.254E+01   0.976E-01 0.107E+01 0.473E-01   -.261E-06 0.900E-05 0.991E-05
   -.544E+01 -.196E+02 0.248E+01   0.534E+01 0.186E+02 -.254E+01   0.976E-01 0.107E+01 0.473E-01   -.305E-06 0.900E-05 0.991E-05
   0.544E+01 -.196E+02 -.248E+01   -.534E+01 0.186E+02 0.254E+01   -.976E-01 0.107E+01 -.473E-01   0.305E-06 0.905E-05 -.991E-05
   0.544E+01 -.196E+02 -.248E+01   -.534E+01 0.186E+02 0.254E+01   -.976E-01 0.107E+01 -.473E-01   0.261E-06 0.905E-05 -.991E-05
   0.544E+01 -.196E+02 -.248E+01   -.534E+01 0.186E+02 0.254E+01   -.976E-01 0.107E+01 -.473E-01   0.305E-06 0.900E-05 -.991E-05
   0.544E+01 -.196E+02 -.248E+01   -.534E+01 0.186E+02 0.254E+01   -.976E-01 0.107E+01 -.473E-01   0.261E-06 0.900E-05 -.991E-05
   -.544E+01 -.196E+02 0.248E+01   0.534E+01 0.186E+02 -.254E+01   0.976E-01 0.107E+01 0.473E-01   -.262E-06 0.905E-05 0.991E-05
   -.544E+01 -.196E+02 0.248E+01   0.534E+01 0.186E+02 -.254E+01   0.976E-01 0.107E+01 0.473E-01   -.304E-06 0.905E-05 0.992E-05
   -.544E+01 -.196E+02 0.248E+01   0.534E+01 0.186E+02 -.254E+01   0.976E-01 0.107E+01 0.473E-01   -.262E-06 0.901E-05 0.991E-05
   -.544E+01 -.196E+02 0.248E+01   0.534E+01 0.186E+02 -.254E+01   0.976E-01 0.107E+01 0.473E-01   -.304E-06 0.901E-05 0.991E-05
   0.544E+01 -.196E+02 -.248E+01   -.534E+01 0.186E+02 0.254E+01   -.976E-01 0.107E+01 -.473E-01   0.306E-06 0.905E-05 -.991E-05
   0.544E+01 -.196E+02 -.248E+01   -.534E+01 0.186E+02 0.254E+01   -.976E-01 0.107E+01 -.473E-01   0.260E-06 0.905E-05 -.991E-05
   0.544E+01 -.196E+02 -.248E+01   -.534E+01 0.186E+02 0.254E+01   -.976E-01 0.107E+01 -.473E-01   0.306E-06 0.901E-05 -.991E-05
   0.544E+01 -.196E+02 -.248E+01   -.534E+01 0.186E+02 0.254E+01   -.976E-01 0.107E+01 -.473E-01   0.260E-06 0.901E-05 -.991E-05
 -----------------------------------------------------------------------------------------------
   -.319E-05 -.342E+02 -.229E-03   -.270E-12 -.171E-12 0.924E-13   -.124E-14 0.342E+02 0.278E-16   0.213E-11 0.725E-03 0.681E-11
 
 
 POSITION                                       TOTAL-FORCE (eV/Angst)
 -----------------------------------------------------------------------------------
      1.36713      1.27416      1.34673         0.000715     -0.010051      0.002145
      6.62019      1.27416      1.50722         0.000715     -0.010051      0.002145
      1.36713      6.53574      1.34673         0.000715     -0.010051      0.002145
      6.62019      6.53574      1.50722         0.000715     -0.010051      0.002145
      3.96538      3.90495      1.41406        -0.000715     -0.010051     -0.002145
      9.21845      3.90495      1.57455        -0.000715     -0.010051     -0.002145
      3.96538      9.16654      1.41406        -0.000715     -0.010051     -0.002145
      9.21845      9.16654      1.57455        -0.000715     -0.010051     -0.002145
      1.59133      3.91036      9.14112        -0.000000     -0.008392     -0.000000
      6.84439      3.91036      9.30162        -0.000000     -0.008392     -0.000000
      1.59133      9.17195      9.14112        -0.000000     -0.008392     -0.000000
      6.84439      9.17195      9.30162        -0.000000     -0.008392     -0.000000
      4.21786      1.29904      9.22137        -0.000000     -0.003056     -0.000000
      9.47092      1.29904      9.38187        -0.000000     -0.003056     -0.000000
      4.21786      6.56063      9.22137        -0.000000     -0.003056     -0.000000
      9.47092      6.56063      9.38187        -0.000000     -0.003056     -0.000000
      1.49774      1.27416      6.53438        -0.000715     -0.010051     -0.002145
      6.75081      1.27416      6.69487        -0.000715     -0.010051     -0.002145
      1.49774      6.53574      6.53438        -0.000715     -0.010051     -0.002145
      6.75081      6.53574      6.69487        -0.000715     -0.010051     -0.002145
      4.15255      3.90495      6.62754         0.000715     -0.010051      0.002145
      9.40561      3.90495      6.78804         0.000715     -0.010051      0.002145
      4.15255      9.16654      6.62754         0.000715     -0.010051      0.002145
      9.40561      9.16654      6.78804         0.000715     -0.010051      0.002145
      4.05897      1.27957      4.02080        -0.000000     -0.008392     -0.000000
      9.31203      1.27957      4.18130        -0.000000     -0.008392     -0.000000
      4.05897      6.54115      4.02080        -0.000000     -0.008392     -0.000000
      9.31203      6.54115      4.18130        -0.000000     -0.008392     -0.000000
      1.43243      3.92984      3.94055        -0.000000     -0.003056     -0.000000
      6.68550      3.92984      4.10105        -0.000000     -0.003056     -0.000000
      1.43243      9.19142      3.94055        -0.000000     -0.003056     -0.000000
      6.68550      9.19142      4.10105        -0.000000     -0.003056     -0.000000
     10.65010      0.03414      5.52117         0.003648      0.007711     -0.007320
      5.39704      0.03414      5.36067         0.003648      0.007711     -0.007320
     10.65010      5.29572      5.52117         0.003648      0.007711     -0.007320
      5.39704      5.29572      5.36067         0.003648      0.007711     -0.007320
      2.72089      0.03414      2.68093        -0.003648      0.007711      0.007320
      7.97396      0.03414      2.84142        -0.003648      0.007711      0.007320
      2.72089      5.29572      2.68093        -0.003648      0.007711      0.007320
      7.97396      5.29572      2.84142        -0.003648      0.007711      0.007320
      2.61161      2.66493      0.07985         0.003648      0.007711     -0.007320
      7.86468      2.66493      0.24035         0.003648      0.007711     -0.007320
      2.61161      7.92652      0.07985         0.003648      0.007711     -0.007320
      7.86468      7.92652      0.24035         0.003648      0.007711     -0.007320
      0.25325      2.66493      7.80125        -0.003648      0.007711      0.007320
      5.50632      2.66493      7.96175        -0.003648      0.007711      0.007320
      0.25325      7.92652      7.80125        -0.003648      0.007711      0.007320
      5.50632      7.92652      7.96175        -0.003648      0.007711      0.007320
     10.49761      0.03319      0.32559         0.004859      0.008064     -0.015712
      5.24454      0.03319      0.16510         0.004859      0.008064     -0.015712
     10.49761      5.29478      0.32559         0.004859      0.008064     -0.015712
      5.24454      5.29478      0.16510         0.004859      0.008064     -0.015712
      2.87339      0.03319      7.87650        -0.004859      0.008064      0.015712
      8.12645      0.03319      8.03700        -0.004859      0.008064      0.015712
      2.87339      5.29478      7.87650        -0.004859      0.008064      0.015712
      8.12645      5.29478      8.03700        -0.004859      0.008064      0.015712
      2.77690      2.66398      5.28542         0.004859      0.008064     -0.015712
      8.02997      2.66398      5.44592         0.004859      0.008064     -0.015712
      2.77690      7.92557      5.28542         0.004859      0.008064     -0.015712
      8.02997      7.92557      5.44592         0.004859      0.008064     -0.015712
      0.08796      2.66398      2.59568        -0.004859      0.008064      0.015712
      5.34103      2.66398      2.75618        -0.004859      0.008064      0.015712
      0.08796      7.92557      2.59568        -0.004859      0.008064      0.015712
      5.34103      7.92557      2.75618        -0.004859      0.008064      0.015712
 -----------------------------------------------------------------------------------
    total drift:                               -0.000003      0.012368     -0.000229


--------------------------------------------------------------------------------------------------------



  FREE ENERGIE OF THE ION-ELECTRON SYSTEM (eV)
  ---------------------------------------------------
  free  energy   TOTEN  =      -327.72362936 eV

  energy  without entropy=     -327.72362936  energy(sigma->0) =     -327.72362936
 


--------------------------------------------------------------------------------------------------------


    POTLOK:  cpu time    0.1332: real time    0.1339


--------------------------------------------------------------------------------------------------------


 writing wavefunctions
     LOOP+:  cpu time 3626.8057: real time 3652.8465
    4ORBIT:  cpu time    0.0000: real time    0.0000
 


 total charge     
 
# of ion       s       p       d       tot
------------------------------------------
    1        1.314   2.409   0.000   3.723
    2        1.314   2.409   0.000   3.723
    3        1.314   2.409   0.000   3.723
    4        1.314   2.409   0.000   3.723
    5        1.314   2.409   0.000   3.723
    6        1.314   2.409   0.000   3.723
    7        1.314   2.409   0.000   3.723
    8        1.314   2.409   0.000   3.723
    9        1.315   2.406   0.000   3.721
   10        1.315   2.406   0.000   3.721
   11        1.315   2.406   0.000   3.721
   12        1.315   2.406   0.000   3.721
   13        1.313   2.412   0.000   3.725
   14        1.313   2.412   0.000   3.725
   15        1.313   2.412   0.000   3.725
   16        1.313   2.412   0.000   3.725
   17        1.314   2.409   0.000   3.723
   18        1.314   2.409   0.000   3.723
   19        1.314   2.409   0.000   3.723
   20        1.314   2.409   0.000   3.723
   21        1.314   2.409   0.000   3.723
   22        1.314   2.409   0.000   3.723
   23        1.314   2.409   0.000   3.723
   24        1.314   2.409   0.000   3.723
   25        1.315   2.406   0.000   3.721
   26        1.315   2.406   0.000   3.721
   27        1.315   2.406   0.000   3.721
   28        1.315   2.406   0.000   3.721
   29        1.313   2.412   0.000   3.725
   30        1.313   2.412   0.000   3.725
   31        1.313   2.412   0.000   3.725
   32        1.313   2.412   0.000   3.725
   33        0.259   6.202   8.917  15.378
   34        0.259   6.202   8.917  15.378
   35        0.259   6.202   8.917  15.378
   36        0.259   6.202   8.917  15.378
   37        0.259   6.202   8.917  15.378
   38        0.259   6.202   8.917  15.378
   39        0.259   6.202   8.917  15.378
   40        0.259   6.202   8.917  15.378
   41        0.259   6.202   8.917  15.378
   42        0.259   6.202   8.917  15.378
   43        0.259   6.202   8.917  15.378
   44        0.259   6.202   8.917  15.378
   45        0.259   6.202   8.917  15.378
   46        0.259   6.202   8.917  15.378
   47        0.259   6.202   8.917  15.378
   48        0.259   6.202   8.917  15.378
   49        0.350   6.350   5.821  12.521
   50        0.350   6.350   5.821  12.521
   51        0.350   6.350   5.821  12.521
   52        0.350   6.350   5.821  12.521
   53        0.350   6.350   5.821  12.521
   54        0.350   6.350   5.821  12.521
   55        0.350   6.350   5.821  12.521
   56        0.350   6.350   5.821  12.521
   57        0.350   6.350   5.821  12.521
   58        0.350   6.350   5.821  12.521
   59        0.350   6.350   5.821  12.521
   60        0.350   6.350   5.821  12.521
   61        0.350   6.350   5.821  12.521
   62        0.350   6.350   5.821  12.521
   63        0.350   6.350   5.821  12.521
   64        0.350   6.350   5.821  12.521
--------------------------------------------------
tot         51.785 277.921 235.809 565.515
 


 magnetization (x)
 
# of ion       s       p       d       tot
------------------------------------------
    1       -0.000  -0.015   0.000  -0.015
    2       -0.000  -0.015   0.000  -0.015
    3       -0.000  -0.015   0.000  -0.015
    4       -0.000  -0.015   0.000  -0.015
    5        0.000   0.015   0.000   0.015
    6        0.000   0.015   0.000   0.015
    7        0.000   0.015   0.000   0.015
    8        0.000   0.015   0.000   0.015
    9       -0.000   0.000   0.000   0.000
   10       -0.000  -0.000   0.000  -0.000
   11        0.000   0.000   0.000   0.000
   12       -0.000  -0.000   0.000  -0.000
   13       -0.000  -0.000   0.000  -0.000
   14       -0.000  -0.000   0.000  -0.000
   15       -0.000  -0.000   0.000  -0.000
   16       -0.000  -0.000   0.000  -0.000
   17        0.000   0.015   0.000   0.015
   18        0.000   0.015   0.000   0.015
   19        0.000   0.015   0.000   0.015
   20        0.000   0.015   0.000   0.015
   21       -0.000  -0.015   0.000  -0.015
   22       -0.000  -0.015   0.000  -0.015
   23       -0.000  -0.015   0.000  -0.015
   24       -0.000  -0.015   0.000  -0.015
   25        0.000   0.000   0.000   0.000
   26        0.000  -0.000   0.000  -0.000
   27        0.000   0.000   0.000   0.000
   28        0.000  -0.000   0.000  -0.000
   29        0.000  -0.000   0.000  -0.000
   30       -0.000   0.000   0.000   0.000
   31       -0.000  -0.000   0.000  -0.000
   32       -0.000   0.000   0.000   0.000
   33        0.000   0.001  -0.002  -0.001
   34        0.000   0.001  -0.002  -0.001
   35        0.000   0.001  -0.002  -0.001
   36        0.000   0.001  -0.002  -0.001
   37       -0.000  -0.001   0.002   0.001
   38       -0.000  -0.001   0.002   0.001
   39       -0.000  -0.001   0.002   0.001
   40       -0.000  -0.001   0.002   0.001
   41        0.000   0.001  -0.002  -0.001
   42        0.000   0.001  -0.002  -0.001
   43        0.000   0.001  -0.002  -0.001
   44        0.000   0.001  -0.002  -0.001
   45       -0.000  -0.001   0.002   0.001
   46       -0.000  -0.001   0.002   0.001
   47       -0.000  -0.001   0.002   0.001
   48       -0.000  -0.001   0.002   0.001
   49        0.020   0.054   3.668   3.742
   50        0.020   0.054   3.668   3.742
   51        0.020   0.054   3.668   3.742
   52        0.020   0.054   3.668   3.742
   53       -0.020  -0.054  -3.668  -3.742
   54       -0.020  -0.054  -3.668  -3.742
   55       -0.020  -0.054  -3.668  -3.742
   56       -0.020  -0.054  -3.668  -3.742
   57        0.020   0.054   3.668   3.742
   58        0.020   0.054   3.668   3.742
   59        0.020   0.054   3.668   3.742
   60        0.020   0.054   3.668   3.742
   61       -0.020  -0.054  -3.668  -3.742
   62       -0.020  -0.054  -3.668  -3.742
   63       -0.020  -0.054  -3.668  -3.742
   64       -0.020  -0.054  -3.668  -3.742
--------------------------------------------------
tot          0.000  -0.000   0.000  -0.000
 
 BZINTS: Fermi energy:  4.934676;688.000000 electrons
         Band energy:***********;  BLOECHL correction:  0.000000

 total amount of memory used by VASP MPI-rank0   348353. kBytes
=======================================================================

   base      :      30000. kBytes
   nonl-proj :     216760. kBytes
   fftplans  :       4588. kBytes
   grid      :      69719. kBytes
   one-center:       1990. kBytes
   wavefun   :      25296. kBytes
 
  
  
 General timing and accounting informations for this job:
 ========================================================
  
                  Total CPU time used (sec):     3685.803
                            User time (sec):     3674.377
                          System time (sec):       11.426
                         Elapsed time (sec):     3713.589
  
                   Maximum memory used (kb):      710408.
                   Average memory used (kb):           0.
  
                          Minor page faults:       709535
                          Major page faults:         5788
                 Voluntary context switches:         7367
