       N       E                     dE             d eps       ncg     rms          rms(c)
DAV:   1    -0.298417151277E+03   -0.29842E+03   -0.17717E+03 18944   0.243E+02    0.416E+01
DAV:   2    -0.327802551921E+03   -0.29385E+02   -0.29466E+02 13568   0.273E+01    0.170E+01
DAV:   3    -0.328127440808E+03   -0.32489E+00   -0.55103E+00 19200   0.513E+00    0.127E+01
DAV:   4    -0.328105960101E+03    0.21481E-01   -0.73863E-01 14592   0.239E+00    0.106E+01
DAV:   5    -0.328106287541E+03   -0.32744E-03   -0.45893E-02 14592   0.626E-01    0.913E+00
DAV:   6    -0.328105876618E+03    0.41092E-03   -0.38764E-03 16384   0.162E-01    0.734E+00
DAV:   7    -0.328103551841E+03    0.23248E-02   -0.83584E-03 16128   0.280E-01    0.141E+00
DAV:   8    -0.328103589112E+03   -0.37271E-04   -0.35856E-04 13824   0.445E-02    0.974E-01
DAV:   9    -0.328103572736E+03    0.16376E-04   -0.25284E-05 17408   0.122E-02    0.891E-01
DAV:  10    -0.328103520018E+03    0.52718E-04   -0.38760E-04 14592   0.464E-02    0.109E-01
DAV:  11    -0.328103520536E+03   -0.51774E-06   -0.13804E-05 14336   0.737E-03    0.250E-02
DAV:  12    -0.328103520678E+03   -0.14243E-06   -0.13987E-06 21504   0.262E-03    0.329E-02
DAV:  13    -0.328103521381E+03   -0.70300E-06   -0.11707E-06 14848   0.192E-03    0.306E-02
DAV:  14    -0.328103521819E+03   -0.43753E-06   -0.16700E-07 16384   0.515E-04    0.144E-02
DAV:  15    -0.328103521974E+03   -0.15524E-06   -0.89326E-08 11520   0.357E-04    0.103E-02
DAV:  16    -0.328103522078E+03   -0.10425E-06   -0.91128E-08 15616   0.428E-04    0.284E-03
DAV:  17    -0.328103522104E+03   -0.26339E-07   -0.57724E-09  9216   0.120E-04    0.451E-04
DAV:  18    -0.328103522112E+03   -0.73924E-08   -0.35284E-09 11264   0.833E-05
   1 F= -.32810352E+03 E0= -.32810352E+03  d E =0.000000E+00  mag=     0.0000
