 vasp.5.4.4.18Apr17-6-g9f103f2a35 (build Oct 30 2023 17:30:16) complex          
  
 executed on             LinuxIFC date 2024.06.29  00:27:09
 running on  256 total cores
 distrk:  each k-point on  256 cores,    1 groups
 distr:  one band on NCORES_PER_BAND=   1 cores,  256 groups


--------------------------------------------------------------------------------------------------------


 INCAR:
 POTCAR:    PAW_PBE S 06Sep2000                   
 POTCAR:     PAW_PBE Cu_pv 06Sep2000              
 POTCAR:     PAW_PBE Fe_pv 02Aug2007              

 ----------------------------------------------------------------------------- 
|                                                                             |
|           W    W    AA    RRRRR   N    N  II  N    N   GGGG   !!!           |
|           W    W   A  A   R    R  NN   N  II  NN   N  G    G  !!!           |
|           W    W  A    A  R    R  N N  N  II  N N  N  G       !!!           |
|           W WW W  AAAAAA  RRRRR   N  N N  II  N  N N  G  GGG   !            |
|           WW  WW  A    A  R   R   N   NN  II  N   NN  G    G                |
|           W    W  A    A  R    R  N    N  II  N    N   GGGG   !!!           |
|                                                                             |
|      For optimal performance we recommend to set                            |
|        NCORE= 4 - approx SQRT( number of cores)                             |
|      NCORE specifies how many cores store one orbital (NPAR=cpu/NCORE).     |
|      This setting can  greatly improve the performance of VASP for DFT.     |
|      The default,   NCORE=1            might be grossly inefficient         |
|      on modern multi-core architectures or massively parallel machines.     |
|      Do your own testing !!!!                                               |
|      Unfortunately you need to use the default for GW and RPA calculations. |
|      (for HF NCORE is supported but not extensively tested yet)             |
|                                                                             |
 ----------------------------------------------------------------------------- 

 POTCAR:    PAW_PBE S 06Sep2000                   
   SHA256 =  0fc7481fb0695f01bdc6462160264c5c84044ae9ec85a907d398b887a2bc3132 S/
   COPYR  = (c) Copyright 06Sep2000 Georg Kresse                                
   COPYR  = This file is part of the software VASP. Any use, copying, and all ot
   COPYR  = If you do not have a valid VASP license, you may not use, copy or di
   VRHFIN =S : s2p4                                                             
   LEXCH  = PE                                                                  
   EATOM  =   276.8230 eV,   20.3459 Ry                                         
                                                                                
   TITEL  = PAW_PBE S 06Sep2000                                                 
   LULTRA =        F    use ultrasoft PP ?                                      
   IUNSCR =        1    unscreen: 0-lin 1-nonlin 2-no                           
   RPACOR =    1.500    partial core radius                                     
   POMASS =   32.066; ZVAL   =    6.000    mass and valenz                      
   RCORE  =    1.900    outmost cutoff radius                                   
   RWIGS  =    2.200; RWIGS  =    1.164    wigner-seitz radius (au A)           
   ENMAX  =  258.689; ENMIN  =  194.016 eV                                      
   ICORE  =        2    local potential                                         
   LCOR   =        T    correct aug charges                                     
   LPAW   =        T    paw PP                                                  
   EAUG   =  335.092                                                            
   DEXC   =    0.000                                                            
   RMAX   =    1.942    core radius for proj-oper                               
   RAUG   =    1.300    factor for augmentation sphere                          
   RDEP   =    1.954    radius for radial grids                                 
   RDEPT  =    1.744    core radius for aug-charge                              
                                                                                
   Atomic configuration                                                         
    6 entries                                                                   
     n  l   j            E        occ.                                          
     1  0  0.50     -2405.8406   2.0000                                         
     2  0  0.50      -211.7007   2.0000                                         
     2  1  1.50      -156.4958   6.0000                                         
     3  0  0.50       -17.2562   2.0000                                         
     3  1  0.50        -7.0085   4.0000                                         
     3  2  1.50        -6.8029   0.0000                                         
   Description                                                                  
     l       E           TYP  RCUT    TYP  RCUT                                 
     0    -17.2561641     23  1.900                                             
     0    -15.8743224     23  1.900                                             
     1     -7.0085400     23  1.900                                             
     1     -2.7779785     23  1.900                                             
     2     -6.8029130     23  1.900                                             
  local pseudopotential read in
  partial core-charges read in
  partial kinetic energy density read in
  atomic valenz-charges read in
  non local Contribution for L=           0  read in
    real space projection operators read in
  non local Contribution for L=           0  read in
    real space projection operators read in
  non local Contribution for L=           1  read in
    real space projection operators read in
  non local Contribution for L=           1  read in
    real space projection operators read in
    PAW grid and wavefunctions read in
 
   number of l-projection  operators is LMAX  =           4
   number of lm-projection operators is LMMAX =           8
 
 POTCAR:     PAW_PBE Cu_pv 06Sep2000              
   SHA256 =  cb7b504e2ea725fe1f25c85a9ac77d4012ce94cd394135b722c4e25ec297f1cb Cu
   COPYR  = (c) Copyright 06Sep2000 Georg Kresse                                
   COPYR  = This file is part of the software VASP. Any use, copying, and all ot
   COPYR  = If you do not have a valid VASP license, you may not use, copy or di
   VRHFIN =Cu: d10 p1                                                           
   LEXCH  = PE                                                                  
   EATOM  =  4120.1201 eV,  302.8203 Ry                                         
                                                                                
   TITEL  = PAW_PBE Cu_pv 06Sep2000                                             
   LULTRA =        F    use ultrasoft PP ?                                      
   IUNSCR =        1    unscreen: 0-lin 1-nonlin 2-no                           
   RPACOR =    1.500    partial core radius                                     
   POMASS =   63.546; ZVAL   =   17.000    mass and valenz                      
   RCORE  =    2.000    outmost cutoff radius                                   
   RWIGS  =    2.000; RWIGS  =    1.058    wigner-seitz radius (au A)           
   ENMAX  =  368.648; ENMIN  =  276.486 eV                                      
   RCLOC  =    1.304    cutoff for local pot                                    
   LCOR   =        T    correct aug charges                                     
   LPAW   =        T    paw PP                                                  
   EAUG   =  758.233                                                            
   DEXC   =    0.000                                                            
   RMAX   =    2.046    core radius for proj-oper                               
   RAUG   =    1.300    factor for augmentation sphere                          
   RDEP   =    2.025    radius for radial grids                                 
   RDEPT  =    1.558    core radius for aug-charge                              
                                                                                
   Atomic configuration                                                         
    8 entries                                                                   
     n  l   j            E        occ.                                          
     1  0  0.50     -8850.2467   2.0000                                         
     2  0  0.50     -1062.3498   2.0000                                         
     2  1  1.50      -916.8226   6.0000                                         
     3  0  0.50      -114.6929   2.0000                                         
     3  1  1.50       -72.1325   6.0000                                         
     3  2  2.50        -5.0394  10.0000                                         
     4  0  0.50        -4.6097   1.0000                                         
     4  3  2.50        -1.3606   0.0000                                         
   Description                                                                  
     l       E           TYP  RCUT    TYP  RCUT                                 
     1    -72.1324777     23  1.700                                             
     1     -1.3605826     23  1.700                                             
     2     -5.0393776     23  2.000                                             
     2     -6.3999602     23  2.000                                             
     0     -4.6097062     23  1.800                                             
     0     14.1620818     23  1.800                                             
  local pseudopotential read in
  partial core-charges read in
  partial kinetic energy density read in
  atomic valenz-charges read in
  non local Contribution for L=           1  read in
    real space projection operators read in
  non local Contribution for L=           1  read in
    real space projection operators read in
  non local Contribution for L=           2  read in
    real space projection operators read in
  non local Contribution for L=           2  read in
    real space projection operators read in
  non local Contribution for L=           0  read in
    real space projection operators read in
  non local Contribution for L=           0  read in
    real space projection operators read in
    PAW grid and wavefunctions read in
 
   number of l-projection  operators is LMAX  =           6
   number of lm-projection operators is LMMAX =          18
 
 POTCAR:     PAW_PBE Fe_pv 02Aug2007              
   SHA256 =  5d22e414b1f82158bf2c7ecb8b97b28fd0923e48cadc1c3bf74d524558f5dd32 Fe
   COPYR  = (c) Copyright 02Aug2007 Georg Kresse                                
   COPYR  = This file is part of the software VASP. Any use, copying, and all ot
   COPYR  = If you do not have a valid VASP license, you may not use, copy or di
   VRHFIN =Fe:  3pd7s1                                                          
   LEXCH  = PE                                                                  
   EATOM  =  2457.4239 eV,  180.6156 Ry                                         
                                                                                
   TITEL  = PAW_PBE Fe_pv 02Aug2007                                             
   LULTRA =        F    use ultrasoft PP ?                                      
   IUNSCR =        1    unscreen: 0-lin 1-nonlin 2-no                           
   RPACOR =    1.750    partial core radius                                     
   POMASS =   55.847; ZVAL   =   14.000    mass and valenz                      
   RCORE  =    2.200    outmost cutoff radius                                   
   RWIGS  =    2.200; RWIGS  =    1.164    wigner-seitz radius (au A)           
   ENMAX  =  293.238; ENMIN  =  219.928 eV                                      
   ICORE  =        3    local potential                                         
   LCOR   =        T    correct aug charges                                     
   LPAW   =        T    paw PP                                                  
   EAUG   =  578.342                                                            
   DEXC   =    0.000                                                            
   RMAX   =    2.249    core radius for proj-oper                               
   RAUG   =    1.300    factor for augmentation sphere                          
   RDEP   =    2.296    radius for radial grids                                 
   RDEPT  =    1.766    core radius for aug-charge                              
                                                                                
   Atomic configuration                                                         
    8 entries                                                                   
     n  l   j            E        occ.                                          
     1  0  0.50     -6993.8440   2.0000                                         
     2  0  0.50      -814.6047   2.0000                                         
     2  1  1.50      -693.3689   6.0000                                         
     3  0  0.50       -89.4732   2.0000                                         
     3  1  1.50       -55.6373   6.0000                                         
     3  2  2.50        -3.8151   7.0000                                         
     4  0  0.50        -4.2551   1.0000                                         
     4  3  2.50        -1.3606   0.0000                                         
   Description                                                                  
     l       E           TYP  RCUT    TYP  RCUT                                 
     1    -55.6372668     23  2.000                                             
     1     -5.4423304     23  2.000                                             
     2     -3.8151096     23  2.200                                             
     2     -5.1756922     23  2.200                                             
     0     -4.2550951     23  2.200                                             
     0     27.2116520     23  2.200                                             
     3     -1.3605826     23  2.200                                             
  local pseudopotential read in
  partial core-charges read in
  partial kinetic energy density read in
  atomic valenz-charges read in
  non local Contribution for L=           1  read in
    real space projection operators read in
  non local Contribution for L=           1  read in
    real space projection operators read in
  non local Contribution for L=           2  read in
    real space projection operators read in
  non local Contribution for L=           2  read in
    real space projection operators read in
  non local Contribution for L=           0  read in
    real space projection operators read in
  non local Contribution for L=           0  read in
    real space projection operators read in
    PAW grid and wavefunctions read in
 
   number of l-projection  operators is LMAX  =           6
   number of lm-projection operators is LMMAX =          18
 

 ----------------------------------------------------------------------------- 
|                                                                             |
|  ADVICE TO THIS USER RUNNING 'VASP/VAMP'   (HEAR YOUR MASTER'S VOICE ...):  |
|                                                                             |
|      You have a (more or less) 'large supercell' and for larger cells       |
|      it might be more efficient to use real space projection opertators     |
|      So try LREAL= Auto  in the INCAR   file.                               |
|      Mind:          For very  accurate calculation you might also keep the  |
|      reciprocal projection scheme          (i.e. LREAL=.FALSE.)             |
|                                                                             |
 ----------------------------------------------------------------------------- 


 ----------------------------------------------------------------------------- 
|                                                                             |
|  ADVICE TO THIS USER RUNNING 'VASP/VAMP'   (HEAR YOUR MASTER'S VOICE ...):  |
|                                                                             |
|      You enforced a specific xc-type in the INCAR file,                     |
|      a different type was found on the POTCAR file                          |
|          I HOPE YOU KNOW, WHAT YOU ARE  DOING                               |
|                                                                             |
 ----------------------------------------------------------------------------- 

  PAW_PBE S 06Sep2000                   :
 energy of atom  1       EATOM= -276.8230
 kinetic energy error for atom=    0.0007 (will be added to EATOM!!)
   PAW_PBE Cu_pv 06Sep2000              :
 energy of atom  2       EATOM=-4120.1201
 kinetic energy error for atom=    0.0094 (will be added to EATOM!!)
   PAW_PBE Fe_pv 02Aug2007              :
 energy of atom  3       EATOM=-2457.4239
 kinetic energy error for atom=    0.0025 (will be added to EATOM!!)
 
 
 POSCAR: Fe16 Cu16 S32                           
  positions in direct lattice
  No initial velocities read in
 exchange correlation table for  LEXCH =       14
   RHO(1)=    0.500       N(1)  =     2000
   RHO(2)=  100.500       N(2)  =     4000
 


--------------------------------------------------------------------------------------------------------


 ion  position               nearest neighbor table
   1  0.126  0.125  0.124-  37 2.26  41 2.26  61 2.27  49 2.28
   2  0.626  0.125  0.124-  38 2.26  42 2.26  62 2.27  50 2.28
   3  0.126  0.625  0.124-  39 2.26  43 2.26  63 2.27  51 2.28
   4  0.626  0.625  0.124-  40 2.26  44 2.26  64 2.27  52 2.28
   5  0.374  0.375  0.124-  39 2.26  41 2.26  62 2.27  52 2.28
   6  0.874  0.375  0.124-  40 2.26  42 2.26  61 2.27  51 2.28
   7  0.374  0.875  0.124-  37 2.26  43 2.26  64 2.27  50 2.28
   8  0.874  0.875  0.124-  38 2.26  44 2.26  63 2.27  49 2.28
   9  0.125  0.374  0.874-  41 2.26  45 2.26  51 2.27  55 2.28
  10  0.625  0.374  0.874-  42 2.26  46 2.26  52 2.27  56 2.28
  11  0.125  0.874  0.874-  43 2.26  47 2.26  49 2.27  53 2.28
  12  0.625  0.874  0.874-  44 2.26  48 2.26  50 2.27  54 2.28
  13  0.375  0.126  0.874-  41 2.26  46 2.26  50 2.27  53 2.28
  14  0.875  0.126  0.874-  42 2.26  45 2.26  49 2.27  54 2.28
  15  0.375  0.626  0.874-  43 2.26  48 2.26  52 2.27  55 2.28
  16  0.875  0.626  0.874-  44 2.26  47 2.26  51 2.27  56 2.28
  17  0.124  0.125  0.624-  45 2.26  33 2.26  53 2.27  57 2.28
  18  0.624  0.125  0.624-  46 2.26  34 2.26  54 2.27  58 2.28
  19  0.124  0.625  0.624-  47 2.26  35 2.26  55 2.27  59 2.28
  20  0.624  0.625  0.624-  48 2.26  36 2.26  56 2.27  60 2.28
  21  0.376  0.375  0.624-  46 2.26  36 2.26  55 2.27  57 2.28
  22  0.876  0.375  0.624-  45 2.26  35 2.26  56 2.27  58 2.28
  23  0.376  0.875  0.624-  48 2.26  34 2.26  53 2.27  59 2.28
  24  0.876  0.875  0.624-  47 2.26  33 2.26  54 2.27  60 2.28
  25  0.375  0.124  0.374-  34 2.26  37 2.26  57 2.27  62 2.28
  26  0.875  0.124  0.374-  33 2.26  38 2.26  58 2.27  61 2.28
  27  0.375  0.624  0.374-  36 2.26  39 2.26  59 2.27  64 2.28
  28  0.875  0.624  0.374-  35 2.26  40 2.26  60 2.27  63 2.28
  29  0.125  0.376  0.374-  35 2.26  39 2.26  57 2.27  61 2.28
  30  0.625  0.376  0.374-  36 2.26  40 2.26  58 2.27  62 2.28
  31  0.125  0.876  0.374-  33 2.26  37 2.26  59 2.27  63 2.28
  32  0.625  0.876  0.374-  34 2.26  38 2.26  60 2.27  64 2.28
  33  0.000  0.000  0.501-  26 2.26  31 2.26  17 2.26  24 2.26
  34  0.500  0.000  0.501-  25 2.26  32 2.26  18 2.26  23 2.26
  35  0.000  0.500  0.501-  28 2.26  29 2.26  19 2.26  22 2.26
  36  0.500  0.500  0.501-  27 2.26  30 2.26  20 2.26  21 2.26
  37  0.250  0.000  0.251-   1 2.26   7 2.26  25 2.26  31 2.26
  38  0.750  0.000  0.251-   2 2.26   8 2.26  26 2.26  32 2.26
  39  0.250  0.500  0.251-   3 2.26   5 2.26  27 2.26  29 2.26
  40  0.750  0.500  0.251-   4 2.26   6 2.26  28 2.26  30 2.26
  41  0.250  0.250  0.001-   9 2.26  13 2.26   1 2.26   5 2.26
  42  0.750  0.250  0.001-  10 2.26  14 2.26   2 2.26   6 2.26
  43  0.250  0.750  0.001-  11 2.26  15 2.26   3 2.26   7 2.26
  44  0.750  0.750  0.001-  12 2.26  16 2.26   4 2.26   8 2.26
  45  0.000  0.250  0.751-  17 2.26  22 2.26   9 2.26  14 2.26
  46  0.500  0.250  0.751-  18 2.26  21 2.26  10 2.26  13 2.26
  47  0.000  0.750  0.751-  19 2.26  24 2.26  11 2.26  16 2.26
  48  0.500  0.750  0.751-  20 2.26  23 2.26  12 2.26  15 2.26
  49  0.000  0.000  0.001-  11 2.27  14 2.27   1 2.28   8 2.28
  50  0.500  0.000  0.001-  12 2.27  13 2.27   2 2.28   7 2.28
  51  0.000  0.500  0.001-   9 2.27  16 2.27   3 2.28   6 2.28
  52  0.500  0.500  0.001-  10 2.27  15 2.27   4 2.28   5 2.28
  53  0.250  0.000  0.751-  17 2.27  23 2.27  11 2.28  13 2.28
  54  0.750  0.000  0.751-  18 2.27  24 2.27  12 2.28  14 2.28
  55  0.250  0.500  0.751-  19 2.27  21 2.27   9 2.28  15 2.28
  56  0.750  0.500  0.751-  20 2.27  22 2.27  10 2.28  16 2.28
  57  0.250  0.250  0.501-  25 2.27  29 2.27  17 2.28  21 2.28
  58  0.750  0.250  0.501-  26 2.27  30 2.27  18 2.28  22 2.28
  59  0.250  0.750  0.501-  27 2.27  31 2.27  19 2.28  23 2.28
  60  0.750  0.750  0.501-  28 2.27  32 2.27  20 2.28  24 2.28
  61  0.000  0.250  0.251-   1 2.27   6 2.27  26 2.28  29 2.28
  62  0.500  0.250  0.251-   2 2.27   5 2.27  25 2.28  30 2.28
  63  0.000  0.750  0.251-   3 2.27   8 2.27  28 2.28  31 2.28
  64  0.500  0.750  0.251-   4 2.27   7 2.27  27 2.28  32 2.28
 
  LATTYP: Found a base centered orthorhombic cell.
 ALAT       =    14.7635580336
 B/A-ratio  =     1.0140471513
 C/A-ratio  =     0.7054374681
  
  Lattice vectors:
  
 A1 = (  10.5127340000,   0.0733220000,   0.0000000000)
 A2 = (  -0.0733220000, -10.5127340000,   0.0000000000)
 A3 = (   0.0000000000,   0.0000000000, -10.4147670000)


Analysis of symmetry for initial positions (statically):
=====================================================================
 Subroutine PRICEL returns following result:
 
  LATTYP: Found a face centered orthorhombic cell.
 ALAT       =     7.3817790168
 B/A-ratio  =     1.0140471513
 C/A-ratio  =     1.4108749363
  
  Lattice vectors:
  
 A1 = (  -2.6465140000,  -2.6465140000,   5.2073835000)
 A2 = (  -2.6098530000,   2.6098530000,   5.2073835000)
 A3 = (  -5.2563670000,  -0.0366610000,   0.0000000000)
 
   8 primitive cells build up your supercell.
 

 Routine SETGRP: Setting up the symmetry group for a 
 base centered orthorhombic supercell.


 Subroutine GETGRP returns: Found  4 space group operations
 (whereof  2 operations were pure point group operations)
 out of a pool of  8 trial point group operations.


The static configuration has the point symmetry C_2 .
 The point group associated with its full space group is C_2v.


Analysis of symmetry for dynamics (positions and initial velocities):
=====================================================================
 Subroutine PRICEL returns following result:
 
  LATTYP: Found a face centered orthorhombic cell.
 ALAT       =     7.3817790168
 B/A-ratio  =     1.0140471513
 C/A-ratio  =     1.4108749363
  
  Lattice vectors:
  
 A1 = (  -2.6465140000,  -2.6465140000,   5.2073835000)
 A2 = (  -2.6098530000,   2.6098530000,   5.2073835000)
 A3 = (  -5.2563670000,  -0.0366610000,   0.0000000000)
 
   8 primitive cells build up your supercell.
 

 Routine SETGRP: Setting up the symmetry group for a 
 base centered orthorhombic supercell.


 Subroutine GETGRP returns: Found  4 space group operations
 (whereof  2 operations were pure point group operations)
 out of a pool of  8 trial point group operations.


The dynamic configuration has the point symmetry C_2 .
 The point group associated with its full space group is C_2v.


Analysis of structural, dynamic, and magnetic symmetry:
=====================================================================
 Subroutine PRICEL returns following result:
 
  LATTYP: Found a face centered orthorhombic cell.
 ALAT       =     7.3817790168
 B/A-ratio  =     1.0140471513
 C/A-ratio  =     1.4108749363
  
  Lattice vectors:
  
 A1 = (  -2.6465140000,  -2.6465140000,   5.2073835000)
 A2 = (  -2.6098530000,   2.6098530000,   5.2073835000)
 A3 = (  -5.2563670000,  -0.0366610000,   0.0000000000)
 
   8 primitive cells build up your supercell.
 

 Routine SETGRP: Setting up the symmetry group for a 
 base centered orthorhombic supercell.


 Subroutine GETGRP returns: Found  4 space group operations
 (whereof  2 operations were pure point group operations)
 out of a pool of  8 trial point group operations.


The magnetic configuration has the point symmetry C_2 .
 The point group associated with its full space group is C_2v.


 Subroutine INISYM returns: Found  4 space group operations
 (whereof  2 operations are pure point group operations),
 and found     8 'primitive' translations

 
 
 KPOINTS: Automatic mesh                          

Automatic generation of k-mesh.
Space group operators:
 irot       det(A)        alpha          n_x          n_y          n_z        tau_x        tau_y        tau_z
    1     1.000000     0.000000     1.000000     0.000000     0.000000     0.000000     0.000000     0.000000
    2     1.000000   180.000000     0.000000     0.000000     1.000000     0.000000     0.000000     0.000000
    3    -1.000000   180.000000     0.707107     0.707107     0.000000    -0.750000     0.000000     0.750000
    4    -1.000000   180.000000     0.707107    -0.707107     0.000000    -0.750000     0.000000     0.750000
 
 Subroutine IBZKPT returns following result:
 ===========================================
 
 Found      6 irreducible k-points:
 
 Following reciprocal coordinates:
            Coordinates               Weight
  0.000000  0.000000  0.000000      1.000000
  0.500000  0.000000  0.000000      2.000000
  0.500000  0.500000  0.000000      1.000000
  0.000000  0.000000  0.500000      1.000000
  0.500000  0.000000  0.500000      2.000000
  0.500000  0.500000  0.500000      1.000000
 
 Following cartesian coordinates:
            Coordinates               Weight
  0.000000  0.000000  0.000000      1.000000
  0.047564 -0.000332  0.000000      2.000000
  0.047232  0.047232  0.000000      1.000000
  0.000000  0.000000  0.048009      1.000000
  0.047564 -0.000332  0.048009      2.000000
  0.047232  0.047232  0.048009      1.000000
 
 TETIRR: Found     12 inequivalent tetrahedra from       48
 
 Subroutine IBZKPT_HF returns following result:
 ==============================================
 
 Found      8 k-points in 1st BZ
 the following      8 k-points will be used (e.g. in the exchange kernel)
 Following reciprocal coordinates:   # in IRBZ
  0.000000  0.000000  0.000000    0.12500000   1 t-inv F
  0.500000  0.000000  0.000000    0.12500000   2 t-inv F
  0.500000  0.500000  0.000000    0.12500000   3 t-inv F
  0.000000  0.000000  0.500000    0.12500000   4 t-inv F
  0.500000  0.000000  0.500000    0.12500000   5 t-inv F
  0.500000  0.500000  0.500000    0.12500000   6 t-inv F
  0.000000 -0.500000  0.000000    0.12500000   2 t-inv F spinflp
  0.000000 -0.500000  0.500000    0.12500000   5 t-inv F spinflp


--------------------------------------------------------------------------------------------------------




 Dimension of arrays:
   k-points           NKPTS =      6   k-points in BZ     NKDIM =      6   number of bands    NBANDS=    512
   number of dos      NEDOS =    301   number of ions     NIONS =     64
   non local maximal  LDIM  =      6   non local SUM 2l+1 LMDIM =     18
   total plane-waves  NPLWV = 829440
   max r-space proj   IRMAX =      1   max aug-charges    IRDMAX=  22901
   dimension x,y,z NGX =    96 NGY =   96 NGZ =   90
   dimension x,y,z NGXF=   192 NGYF=  192 NGZF=  180
   support grid    NGXF=   192 NGYF=  192 NGZF=  180
   ions per type =              32  16  16
   NGX,Y,Z   is equivalent  to a cutoff of  15.18, 15.18, 14.37 a.u.
   NGXF,Y,Z  is equivalent  to a cutoff of  30.36, 30.36, 28.73 a.u.

 SYSTEM =  CuFeS2                                  
 POSCAR =  Fe16 Cu16 S32                           

 Startparameter for this run:
   NWRITE =      2    write-flag & timer
   PREC   = accura    normal or accurate (medium, high low for compatibility)
   ISTART =      1    job   : 0-new  1-cont  2-samecut
   ICHARG =      1    charge: 1-file 2-atom 10-const
   ISPIN  =      2    spin polarized calculation?
   LNONCOLLINEAR =      F non collinear calculations
   LSORBIT =      F    spin-orbit coupling
   INIWAV =      1    electr: 0-lowe 1-rand  2-diag
   LASPH  =      F    aspherical Exc in radial PAW
   METAGGA=      F    non-selfconsistent MetaGGA calc.

 Electronic Relaxation 1
   ENCUT  =  700.0 eV  51.45 Ry    7.17 a.u.  22.68 22.68 22.47*2*pi/ulx,y,z
   ENINI  =  700.0     initial cutoff
   ENAUG  =  758.2 eV  augmentation charge cutoff
   NELM   =    500;   NELMIN=  2; NELMDL=  0     # of ELM steps 
   EDIFF  = 0.1E-07   stopping-criterion for ELM
   LREAL  =      F    real-space projection
   NLSPLINE    = F    spline interpolate recip. space projectors
   LCOMPAT=      F    compatible to vasp.4.4
   GGA_COMPAT  = T    GGA compatible to vasp.4.4-vasp.4.6
   LMAXPAW     = -100 max onsite density
   LMAXMIX     =    4 max onsite mixed and CHGCAR
   VOSKOWN=      0    Vosko Wilk Nusair interpolation
   ROPT   =    0.00000   0.00000   0.00000
 Ionic relaxation
   EDIFFG = -.1E-04   stopping-criterion for IOM
   NSW    =      0    number of steps for IOM
   NBLOCK =      1;   KBLOCK =      1    inner block; outer block 
   IBRION =     -1    ionic relax: 0-MD 1-quasi-New 2-CG
   NFREE  =      0    steps in history (QN), initial steepest desc. (CG)
   ISIF   =      2    stress and relaxation
   IWAVPR =     10    prediction:  0-non 1-charg 2-wave 3-comb
   ISYM   =      2    0-nonsym 1-usesym 2-fastsym
   LCORR  =      T    Harris-Foulkes like correction to forces

   POTIM  = 0.5000    time-step for ionic-motion
   TEIN   =    0.0    initial temperature
   TEBEG  =    0.0;   TEEND  =   0.0 temperature during run
   SMASS  =  -3.00    Nose mass-parameter (am)
   estimated Nose-frequenzy (Omega)   =  0.10E-29 period in steps =****** mass=  -0.253E-26a.u.
   SCALEE = 1.0000    scale energy and forces
   NPACO  =    256;   APACO  = 16.0  distance and # of slots for P.C.
   PSTRESS=    0.0 pullay stress

  Mass of Ions in am
   POMASS =  32.07 63.55 55.85
  Ionic Valenz
   ZVAL   =   6.00 17.00 14.00
  Atomic Wigner-Seitz radii
   RWIGS  =  -1.00 -1.00 -1.00
  virtual crystal weights 
   VCA    =   1.00  1.00  1.00
   NELECT =     688.0000    total number of electrons
   NUPDOWN=      -1.0000    fix difference up-down

 DOS related values:
   EMIN   =  10.00;   EMAX   =-10.00  energy-range for DOS
   EFERMI =   0.00
   ISMEAR =    -5;   SIGMA  =   0.03  broadening in eV -4-tet -1-fermi 0-gaus

 Electronic relaxation 2 (details)
   IALGO  =     38    algorithm
   LDIAG  =      T    sub-space diagonalisation (order eigenvalues)
   LSUBROT=      F    optimize rotation matrix (better conditioning)
   TURBO    =      0    0=normal 1=particle mesh
   IRESTART =      0    0=no restart 2=restart with 2 vectors
   NREBOOT  =      0    no. of reboots
   NMIN     =      0    reboot dimension
   EREF     =   0.00    reference energy to select bands
   IMIX   =      4    mixing-type and parameters
     AMIX     =   0.40;   BMIX     =  1.00
     AMIX_MAG =   1.60;   BMIX_MAG =  1.00
     AMIN     =   0.10
     WC   =   100.;   INIMIX=   1;  MIXPRE=   1;  MAXMIX= -45

 Intra band minimization:
   WEIMIN = 0.0000     energy-eigenvalue tresh-hold
   EBREAK =  0.49E-11  absolut break condition
   DEPER  =   0.30     relativ break condition  

   TIME   =   0.40     timestep for ELM

  volume/ion in A,a.u.               =      17.98       121.36
  Fermi-wavevector in a.u.,A,eV,Ry     =   1.379064  2.606053 25.875794  1.901817
  Thomas-Fermi vector in A             =   2.504068
 
 Write flags
   LWAVE        =      T    write WAVECAR
   LDOWNSAMPLE  =      F    k-point downsampling of WAVECAR
   LCHARG       =      T    write CHGCAR
   LVTOT        =      F    write LOCPOT, total local potential
   LVHAR        =      F    write LOCPOT, Hartree potential only
   LELF         =      F    write electronic localiz. function (ELF)
   LORBIT       =     11    0 simple, 1 ext, 2 COOP (PROOUT), +10 PAW based schemes


 Dipole corrections
   LMONO  =      F    monopole corrections only (constant potential shift)
   LDIPOL =      F    correct potential (dipole corrections)
   IDIPOL =      0    1-x, 2-y, 3-z, 4-all directions 
   EPSILON=  1.0000000 bulk dielectric constant

 LDA+U is selected, type is set to LDAUTYPE =  2
   angular momentum for each species LDAUL =     2    2    2
   U (eV)           for each species LDAUU =   0.0  0.1  4.7
   J (eV)           for each species LDAUJ =   0.0  0.0  0.0
 Exchange correlation treatment:
   GGA     =    PS    GGA type
   LEXCH   =    14    internal setting for exchange type
   VOSKOWN=      0    Vosko Wilk Nusair interpolation
   LHFCALC =     F    Hartree Fock is set to
   LHFONE  =     F    Hartree Fock one center treatment
   AEXX    =    0.0000 exact exchange contribution

 Linear response parameters
   LEPSILON=     F    determine dielectric tensor
   LRPA    =     F    only Hartree local field effects (RPA)
   LNABLA  =     F    use nabla operator in PAW spheres
   LVEL    =     F    velocity operator in full k-point grid
   LINTERFAST=   F  fast interpolation
   KINTER  =     0    interpolate to denser k-point grid
   CSHIFT  =0.1000    complex shift for real part using Kramers Kronig
   OMEGAMAX=  -1.0    maximum frequency
   DEG_THRESHOLD= 0.2000000E-02 threshold for treating states as degnerate
   RTIME   =   -0.100 relaxation time in fs
  (WPLASMAI=    0.000 imaginary part of plasma frequency in eV, 0.658/RTIME)
   DFIELD  = 0.0000000 0.0000000 0.0000000 field for delta impulse in time
 
 Orbital magnetization related:
   ORBITALMAG=     F  switch on orbital magnetization
   LCHIMAG   =     F  perturbation theory with respect to B field
   DQ        =  0.001000  dq finite difference perturbation B field
   LLRAUG    =     F  two centre corrections for induced B field

 PEAD related settings:
   LPEAD      =     T    switch on PEAD
   IPEAD      =     4    finite difference order for dpsi/dk
   LCALCPOL   =     T    calculate macroscopic polarization
   LCALCEPS   =     F    calculate dielectric tensor
   EFIELD_PEAD=    0.0000    0.0000    0.0000
   SKIP_EDOTP =     F
   LRPA       =     F
   SKIP_SCF   =     F


--------------------------------------------------------------------------------------------------------


 Static calculation
 charge density and potential will be updated during run
 spin polarized calculation
 Variant of blocked Davidson
 Davidson routine will perform the subspace rotation
 perform sub-space diagonalisation
    after iterative eigenvector-optimisation
 modified Broyden-mixing scheme, WC =      100.0
 initial mixing is a Kerker type mixing with AMIX =  0.4000 and BMIX =      1.0000
 Hartree-type preconditioning will be used
 using additional bands          168
 reciprocal scheme for non local part
 use partial core corrections
 calculate Harris-corrections to forces 
   (improved forces if not selfconsistent)
 use gradient corrections 
 use of overlap-Matrix (Vanderbilt PP)
 Fermi weights with tetrahedron method with Bloechl corrections


--------------------------------------------------------------------------------------------------------


  energy-cutoff  :      700.00
  volume of cell :     1150.96
      direct lattice vectors                 reciprocal lattice vectors
    10.512734000  0.073322000  0.000000000     0.095127361 -0.000663474  0.000000000
     0.073322000 10.512734000  0.000000000    -0.000663474  0.095127361  0.000000000
     0.000000000  0.000000000 10.414767000     0.000000000  0.000000000  0.096017511

  length of vectors
    10.512989692 10.512989692 10.414767000     0.095129675  0.095129675  0.096017511


 
 old parameters found on file WAVECAR:
  energy-cutoff  :      700.00
  volume of cell :     1150.96
      direct lattice vectors                 reciprocal lattice vectors
    10.512734000  0.073322000  0.000000000     0.095127361 -0.000663474  0.000000000
     0.073322000 10.512734000  0.000000000    -0.000663474  0.095127361  0.000000000
     0.000000000  0.000000000 10.414767000     0.000000000  0.000000000  0.096017511

  length of vectors

 
 k-points in units of 2pi/SCALE and weight: Automatic mesh                          
   0.00000000  0.00000000  0.00000000       0.125
   0.04756368 -0.00033174  0.00000000       0.250
   0.04723194  0.04723194  0.00000000       0.125
   0.00000000  0.00000000  0.04800876       0.125
   0.04756368 -0.00033174  0.04800876       0.250
   0.04723194  0.04723194  0.04800876       0.125
 
 k-points in reciprocal lattice and weights: Automatic mesh                          
   0.00000000  0.00000000  0.00000000       0.125
   0.50000000  0.00000000  0.00000000       0.250
   0.50000000  0.50000000  0.00000000       0.125
   0.00000000  0.00000000  0.50000000       0.125
   0.50000000  0.00000000  0.50000000       0.250
   0.50000000  0.50000000  0.50000000       0.125
 
 position of ions in fractional coordinates (direct lattice) 
   0.12615100  0.12508000  0.12422300
   0.62615100  0.12508000  0.12422300
   0.12615100  0.62508000  0.12422300
   0.62615100  0.62508000  0.12422300
   0.37384900  0.37492000  0.12422300
   0.87384900  0.37492000  0.12422300
   0.37384900  0.87492000  0.12422300
   0.87384900  0.87492000  0.12422300
   0.12492000  0.37384900  0.87422300
   0.62492000  0.37384900  0.87422300
   0.12492000  0.87384900  0.87422300
   0.62492000  0.87384900  0.87422300
   0.37508000  0.12615100  0.87422300
   0.87508000  0.12615100  0.87422300
   0.37508000  0.62615100  0.87422300
   0.87508000  0.62615100  0.87422300
   0.12384900  0.12492000  0.62422300
   0.62384900  0.12492000  0.62422300
   0.12384900  0.62492000  0.62422300
   0.62384900  0.62492000  0.62422300
   0.37615100  0.37508000  0.62422300
   0.87615100  0.37508000  0.62422300
   0.37615100  0.87508000  0.62422300
   0.87615100  0.87508000  0.62422300
   0.37492000  0.12384900  0.37422300
   0.87492000  0.12384900  0.37422300
   0.37492000  0.62384900  0.37422300
   0.87492000  0.62384900  0.37422300
   0.12508000  0.37615100  0.37422300
   0.62508000  0.37615100  0.37422300
   0.12508000  0.87615100  0.37422300
   0.62508000  0.87615100  0.37422300
   0.00000000  0.00000000  0.50067600
   0.50000000  0.00000000  0.50067600
   0.00000000  0.50000000  0.50067600
   0.50000000  0.50000000  0.50067600
   0.25000000  0.00000000  0.25067600
   0.75000000  0.00000000  0.25067600
   0.25000000  0.50000000  0.25067600
   0.75000000  0.50000000  0.25067600
   0.25000000  0.25000000  0.00067600
   0.75000000  0.25000000  0.00067600
   0.25000000  0.75000000  0.00067600
   0.75000000  0.75000000  0.00067600
   0.00000000  0.25000000  0.75067600
   0.50000000  0.25000000  0.75067600
   0.00000000  0.75000000  0.75067600
   0.50000000  0.75000000  0.75067600
   0.00000000  0.00000000  0.00087800
   0.50000000  0.00000000  0.00087800
   0.00000000  0.50000000  0.00087800
   0.50000000  0.50000000  0.00087800
   0.25000000  0.00000000  0.75087800
   0.75000000  0.00000000  0.75087800
   0.25000000  0.50000000  0.75087800
   0.75000000  0.50000000  0.75087800
   0.25000000  0.25000000  0.50087800
   0.75000000  0.25000000  0.50087800
   0.25000000  0.75000000  0.50087800
   0.75000000  0.75000000  0.50087800
   0.00000000  0.25000000  0.25087800
   0.50000000  0.25000000  0.25087800
   0.00000000  0.75000000  0.25087800
   0.50000000  0.75000000  0.25087800
 
 position of ions in cartesian coordinates  (Angst):
   1.33536302  1.32418241  1.29375360
   6.59173002  1.36084341  1.29375360
   1.37202402  6.58054941  1.29375360
   6.62839102  6.61721041  1.29375360
   3.95766498  3.96884559  1.29375360
   9.21403198  4.00550659  1.29375360
   3.99432598  9.22521259  1.29375360
   9.25069298  9.26187359  1.29375360
   1.34066209  3.93933448  9.10482885
   6.59702909  3.97599548  9.10482885
   1.37732309  9.19570148  9.10482885
   6.63369009  9.23236248  9.10482885
   3.95236591  1.35369352  9.10482885
   9.20873291  1.39035452  9.10482885
   3.98902691  6.61006052  9.10482885
   9.24539391  6.64672152  9.10482885
   1.31115098  1.32233159  6.50113710
   6.56751798  1.35899259  6.50113710
   1.34781198  6.57869859  6.50113710
   6.60417898  6.61535959  6.50113710
   3.98187702  3.97069641  6.50113710
   9.23824402  4.00735741  6.50113710
   4.01853802  9.22706341  6.50113710
   9.27490502  9.26372441  6.50113710
   3.95051509  1.32948148  3.89744535
   9.20688209  1.36614248  3.89744535
   3.98717609  6.58584848  3.89744535
   9.24354309  6.62250948  3.89744535
   1.34251291  3.96354652  3.89744535
   6.59887991  4.00020752  3.89744535
   1.37917391  9.21991352  3.89744535
   6.63554091  9.25657452  3.89744535
   0.00000000  0.00000000  5.21442388
   5.25636700  0.03666100  5.21442388
   0.03666100  5.25636700  5.21442388
   5.29302800  5.29302800  5.21442388
   2.62818350  0.01833050  2.61073213
   7.88455050  0.05499150  2.61073213
   2.66484450  5.27469750  2.61073213
   7.92121150  5.31135850  2.61073213
   2.64651400  2.64651400  0.00704038
   7.90288100  2.68317500  0.00704038
   2.68317500  7.90288100  0.00704038
   7.93954200  7.93954200  0.00704038
   0.01833050  2.62818350  7.81811563
   5.27469750  2.66484450  7.81811563
   0.05499150  7.88455050  7.81811563
   5.31135850  7.92121150  7.81811563
   0.00000000  0.00000000  0.00914417
   5.25636700  0.03666100  0.00914417
   0.03666100  5.25636700  0.00914417
   5.29302800  5.29302800  0.00914417
   2.62818350  0.01833050  7.82021942
   7.88455050  0.05499150  7.82021942
   2.66484450  5.27469750  7.82021942
   7.92121150  5.31135850  7.82021942
   2.64651400  2.64651400  5.21652767
   7.90288100  2.68317500  5.21652767
   2.68317500  7.90288100  5.21652767
   7.93954200  7.93954200  5.21652767
   0.01833050  2.62818350  2.61283592
   5.27469750  2.66484450  2.61283592
   0.05499150  7.88455050  2.61283592
   5.31135850  7.92121150  2.61283592
 


--------------------------------------------------------------------------------------------------------


 k-point  1 :   0.0000 0.0000 0.0000  plane waves:   48439
 k-point  2 :   0.5000 0.0000 0.0000  plane waves:   48432
 k-point  3 :   0.5000 0.5000 0.0000  plane waves:   48432
 k-point  4 :   0.0000 0.0000 0.5000  plane waves:   48400
 k-point  5 :   0.5000 0.0000 0.5000  plane waves:   48360
 k-point  6 :   0.5000 0.5000 0.5000  plane waves:   48360

 maximum and minimum number of plane-waves per node :     48439    48360

 maximum number of plane-waves:     48439
 maximum index in each direction: 
   IXMAX=   22   IYMAX=   22   IZMAX=   22
   IXMIN=  -23   IYMIN=  -23   IZMIN=  -22


 serial   3D FFT for wavefunctions
 parallel 3D FFT for charge:
    minimum data exchange during FFTs selected (reduces bandwidth)


 total amount of memory used by VASP MPI-rank0   301249. kBytes
=======================================================================

   base      :      30000. kBytes
   nonl-proj :     175882. kBytes
   fftplans  :       4588. kBytes
   grid      :      69719. kBytes
   one-center:       1990. kBytes
   wavefun   :      19070. kBytes
 
     INWAV:  cpu time   11.3558: real time   11.5787
 Broyden mixing: mesh for mixing (old mesh)
   NGX = 45   NGY = 45   NGZ = 45
  (NGX  =192   NGY  =192   NGZ  =180)
  gives a total of  91125 points

 initial charge density was supplied:
 number of electron     688.0000471 magnetization      -0.0000000
 keeping initial charge density in first step


--------------------------------------------------------------------------------------------------------


 Maximum index for augmentation-charges          901 (set IRDMAX)


--------------------------------------------------------------------------------------------------------


 First call to EWALD:  gamma=   0.169
 Maximum number of real-space cells 3x 3x 3
 Maximum number of reciprocal cells 3x 3x 3

    FEWALD:  cpu time    0.0026: real time    0.0031


--------------------------------------- Iteration      1(   1)  ---------------------------------------


    POTLOK:  cpu time    0.3271: real time    0.3739
    SETDIJ:  cpu time    0.0143: real time    0.0145
     EDDAV:  cpu time  141.6956: real time  142.8598
 BZINTS: Fermi energy:  4.961439;688.000000 electrons
         Band energy:***********;  BLOECHL correction:  0.000000
       DOS:  cpu time    0.0033: real time    0.0034
    CHARGE:  cpu time    1.1882: real time    1.1962
    MIXING:  cpu time    0.0050: real time    0.0051
    --------------------------------------------
      LOOP:  cpu time  143.2338: real time  144.4529

 eigenvalue-minimisations  : 18944
 total energy-change (2. order) :-0.2984172E+03  (-0.1771747E+03)
 number of electron     688.0000473 magnetization      -0.0000000
 augmentation part      283.1682310 magnetization      -0.0000000

 Broyden mixing:
  rms(total) = 0.41605E+01    rms(broyden)= 0.41605E+01
  rms(prec ) = 0.41623E+01
  weight for this iteration     100.00

 Free energy of the ion-electron system (eV)
  ---------------------------------------------------
  alpha Z        PSCENC =      2355.55826305
  Ewald energy   TEWEN  =    -62462.89303357
  -Hartree energ DENC   =    -42968.51707205
  -exchange      EXHF   =         0.00000000
  -V(xc)+E(xc)   XCENC  =      3287.09974093
  PAW double counting   =    112319.46530445  -116012.29576210
  entropy T*S    EENTRO =         0.00000000
  eigenvalues    EBANDS =    -10836.89969961
  atomic energy  EATOM  =    114020.06510763
  Solvation  Ediel_sol  =         0.00000000
  ---------------------------------------------------
  free energy    TOTEN  =      -298.41715128 eV

  energy without entropy =     -298.41715128  energy(sigma->0) =     -298.41715128


--------------------------------------------------------------------------------------------------------




--------------------------------------- Iteration      1(   2)  ---------------------------------------


    POTLOK:  cpu time    0.1237: real time    0.1263
    SETDIJ:  cpu time    0.0127: real time    0.0128
     EDDAV:  cpu time   77.8712: real time   78.4550
 BZINTS: Fermi energy:  4.907156;688.000000 electrons
         Band energy:***********;  BLOECHL correction:  0.000000
       DOS:  cpu time    0.0030: real time    0.0031
    CHARGE:  cpu time    1.4227: real time    1.4312
    MIXING:  cpu time    0.0027: real time    0.0111
    --------------------------------------------
      LOOP:  cpu time   79.4360: real time   80.0395

 eigenvalue-minimisations  : 13568
 total energy-change (2. order) :-0.2938540E+02  (-0.2946553E+02)
 number of electron     688.0000471 magnetization      -0.0000000
 augmentation part      281.4483496 magnetization      -0.0000000

 Broyden mixing:
  rms(total) = 0.16962E+01    rms(broyden)= 0.16962E+01
  rms(prec ) = 0.17128E+01
  weight for this iteration     100.00

 eigenvalues of (default mixing * dielectric matrix)
  average eigenvalue GAMMA=   0.6994
  0.6994

 Free energy of the ion-electron system (eV)
  ---------------------------------------------------
  alpha Z        PSCENC =      2355.55826305
  Ewald energy   TEWEN  =    -62462.89303357
  -Hartree energ DENC   =    -42981.02943980
  -exchange      EXHF   =         0.00000000
  -V(xc)+E(xc)   XCENC  =      3287.43001315
  PAW double counting   =    115888.72186720  -119598.58475654
  entropy T*S    EENTRO =         0.00000000
  eigenvalues    EBANDS =    -10837.07057303
  atomic energy  EATOM  =    114020.06510763
  Solvation  Ediel_sol  =         0.00000000
  ---------------------------------------------------
  free energy    TOTEN  =      -327.80255192 eV

  energy without entropy =     -327.80255192  energy(sigma->0) =     -327.80255192


--------------------------------------------------------------------------------------------------------




--------------------------------------- Iteration      1(   3)  ---------------------------------------


    POTLOK:  cpu time    0.1294: real time    0.1335
    SETDIJ:  cpu time    0.0150: real time    0.0151
     EDDAV:  cpu time  142.9154: real time  143.8795
 BZINTS: Fermi energy:  4.860610;688.000000 electrons
         Band energy:***********;  BLOECHL correction:  0.000000
       DOS:  cpu time    0.0027: real time    0.0027
    CHARGE:  cpu time    1.1827: real time    1.1906
    MIXING:  cpu time    0.0012: real time    0.0013
    --------------------------------------------
      LOOP:  cpu time  144.2466: real time  145.2227

 eigenvalue-minimisations  : 19200
 total energy-change (2. order) :-0.3248889E+00  (-0.5510305E+00)
 number of electron     688.0000472 magnetization      -0.0000000
 augmentation part      282.3364188 magnetization      -0.0000000

 Broyden mixing:
  rms(total) = 0.12741E+01    rms(broyden)= 0.12741E+01
  rms(prec ) = 0.12912E+01
  weight for this iteration     100.00

 eigenvalues of (default mixing * dielectric matrix)
  average eigenvalue GAMMA=   0.5061
  0.5061  0.5061

 Free energy of the ion-electron system (eV)
  ---------------------------------------------------
  alpha Z        PSCENC =      2355.55826305
  Ewald energy   TEWEN  =    -62462.89303357
  -Hartree energ DENC   =    -42944.97277622
  -exchange      EXHF   =         0.00000000
  -V(xc)+E(xc)   XCENC  =      3286.76618607
  PAW double counting   =    114889.30135076  -118589.35463413
  entropy T*S    EENTRO =         0.00000000
  eigenvalues    EBANDS =    -10882.59790439
  atomic energy  EATOM  =    114020.06510763
  Solvation  Ediel_sol  =         0.00000000
  ---------------------------------------------------
  free energy    TOTEN  =      -328.12744081 eV

  energy without entropy =     -328.12744081  energy(sigma->0) =     -328.12744081


--------------------------------------------------------------------------------------------------------




--------------------------------------- Iteration      1(   4)  ---------------------------------------


    POTLOK:  cpu time    0.1195: real time    0.1231
    SETDIJ:  cpu time    0.0127: real time    0.0128
     EDDAV:  cpu time   90.3991: real time   91.0537
 BZINTS: Fermi energy:  4.844834;688.000000 electrons
         Band energy:***********;  BLOECHL correction:  0.000000
       DOS:  cpu time    0.0027: real time    0.0027
    CHARGE:  cpu time    1.1839: real time    1.1917
    MIXING:  cpu time    0.0020: real time    0.0435
    --------------------------------------------
      LOOP:  cpu time   91.7198: real time   92.4274

 eigenvalue-minimisations  : 14592
 total energy-change (2. order) : 0.2148071E-01  (-0.7386349E-01)
 number of electron     688.0000472 magnetization      -0.0000000
 augmentation part      282.1797211 magnetization      -0.0000000

 Broyden mixing:
  rms(total) = 0.10589E+01    rms(broyden)= 0.10589E+01
  rms(prec ) = 0.10599E+01
  weight for this iteration     100.00

 eigenvalues of (default mixing * dielectric matrix)
  average eigenvalue GAMMA=   0.5333
  0.6281  0.6281  0.3439

 Free energy of the ion-electron system (eV)
  ---------------------------------------------------
  alpha Z        PSCENC =      2355.55826305
  Ewald energy   TEWEN  =    -62462.89303357
  -Hartree energ DENC   =    -42945.89259593
  -exchange      EXHF   =         0.00000000
  -V(xc)+E(xc)   XCENC  =      3286.38905957
  PAW double counting   =    114588.71266522  -118289.43035780
  entropy T*S    EENTRO =         0.00000000
  eigenvalues    EBANDS =    -10880.61506828
  atomic energy  EATOM  =    114020.06510763
  Solvation  Ediel_sol  =         0.00000000
  ---------------------------------------------------
  free energy    TOTEN  =      -328.10596010 eV

  energy without entropy =     -328.10596010  energy(sigma->0) =     -328.10596010


--------------------------------------------------------------------------------------------------------




--------------------------------------- Iteration      1(   5)  ---------------------------------------


    POTLOK:  cpu time    0.1213: real time    0.1223
    SETDIJ:  cpu time    0.0129: real time    0.0130
     EDDAV:  cpu time   89.9411: real time   90.5955
 BZINTS: Fermi energy:  4.849960;688.000000 electrons
         Band energy:***********;  BLOECHL correction:  0.000000
       DOS:  cpu time    0.0027: real time    0.0027
    CHARGE:  cpu time    1.1822: real time    1.1902
    MIXING:  cpu time    0.0022: real time    0.0022
    --------------------------------------------
      LOOP:  cpu time   91.2624: real time   91.9260

 eigenvalue-minimisations  : 14592
 total energy-change (2. order) :-0.3274393E-03  (-0.4589256E-02)
 number of electron     688.0000471 magnetization      -0.0000000
 augmentation part      282.1143311 magnetization      -0.0000000

 Broyden mixing:
  rms(total) = 0.91269E+00    rms(broyden)= 0.91269E+00
  rms(prec ) = 0.91295E+00
  weight for this iteration     100.00

 eigenvalues of (default mixing * dielectric matrix)
  average eigenvalue GAMMA=   0.5723
  0.7891  0.7891  0.3554  0.3554

 Free energy of the ion-electron system (eV)
  ---------------------------------------------------
  alpha Z        PSCENC =      2355.55826305
  Ewald energy   TEWEN  =    -62462.89303357
  -Hartree energ DENC   =    -42954.03604447
  -exchange      EXHF   =         0.00000000
  -V(xc)+E(xc)   XCENC  =      3286.60802512
  PAW double counting   =    114237.67086727  -117938.08154624
  entropy T*S    EENTRO =         0.00000000
  eigenvalues    EBANDS =    -10872.99792632
  atomic energy  EATOM  =    114020.06510763
  Solvation  Ediel_sol  =         0.00000000
  ---------------------------------------------------
  free energy    TOTEN  =      -328.10628754 eV

  energy without entropy =     -328.10628754  energy(sigma->0) =     -328.10628754


--------------------------------------------------------------------------------------------------------




--------------------------------------- Iteration      1(   6)  ---------------------------------------


    POTLOK:  cpu time    0.1235: real time    0.1246
    SETDIJ:  cpu time    0.0126: real time    0.0127
     EDDAV:  cpu time  113.4088: real time  114.2002
 BZINTS: Fermi energy:  4.848959;688.000000 electrons
         Band energy:***********;  BLOECHL correction:  0.000000
       DOS:  cpu time    0.0027: real time    0.0027
    CHARGE:  cpu time    1.1846: real time    1.1923
    MIXING:  cpu time    0.0021: real time    0.0021
    --------------------------------------------
      LOOP:  cpu time  114.7343: real time  115.5347

 eigenvalue-minimisations  : 16384
 total energy-change (2. order) : 0.4109223E-03  (-0.3876426E-03)
 number of electron     688.0000471 magnetization      -0.0000000
 augmentation part      282.1062379 magnetization      -0.0000000

 Broyden mixing:
  rms(total) = 0.73366E+00    rms(broyden)= 0.73366E+00
  rms(prec ) = 0.73410E+00
  weight for this iteration     100.00

 eigenvalues of (default mixing * dielectric matrix)
  average eigenvalue GAMMA=   0.8231
  1.3449  1.3449  0.5480  0.5480  0.3301

 Free energy of the ion-electron system (eV)
  ---------------------------------------------------
  alpha Z        PSCENC =      2355.55826305
  Ewald energy   TEWEN  =    -62462.89303357
  -Hartree energ DENC   =    -42955.55052145
  -exchange      EXHF   =         0.00000000
  -V(xc)+E(xc)   XCENC  =      3286.59019992
  PAW double counting   =    113826.17831318  -117525.23698317
  entropy T*S    EENTRO =         0.00000000
  eigenvalues    EBANDS =    -10872.81722220
  atomic energy  EATOM  =    114020.06510763
  Solvation  Ediel_sol  =         0.00000000
  ---------------------------------------------------
  free energy    TOTEN  =      -328.10587662 eV

  energy without entropy =     -328.10587662  energy(sigma->0) =     -328.10587662


--------------------------------------------------------------------------------------------------------




--------------------------------------- Iteration      1(   7)  ---------------------------------------


    POTLOK:  cpu time    0.1187: real time    0.1232
    SETDIJ:  cpu time    0.0127: real time    0.0128
     EDDAV:  cpu time  110.0351: real time  110.8068
 BZINTS: Fermi energy:  4.847668;688.000000 electrons
         Band energy:***********;  BLOECHL correction:  0.000000
       DOS:  cpu time    0.0027: real time    0.0027
    CHARGE:  cpu time    1.1852: real time    1.1929
    MIXING:  cpu time    0.0014: real time    0.0014
    --------------------------------------------
      LOOP:  cpu time  111.3559: real time  112.1398

 eigenvalue-minimisations  : 16128
 total energy-change (2. order) : 0.2324777E-02  (-0.8358412E-03)
 number of electron     688.0000472 magnetization      -0.0000000
 augmentation part      282.2137230 magnetization      -0.0000000

 Broyden mixing:
  rms(total) = 0.14141E+00    rms(broyden)= 0.14141E+00
  rms(prec ) = 0.14161E+00
  weight for this iteration     100.00

 eigenvalues of (default mixing * dielectric matrix)
  average eigenvalue GAMMA=   0.8711
  1.5541  1.5541  0.6091  0.6091  0.5626  0.3377

 Free energy of the ion-electron system (eV)
  ---------------------------------------------------
  alpha Z        PSCENC =      2355.55826305
  Ewald energy   TEWEN  =    -62462.89303357
  -Hartree energ DENC   =    -42956.53729475
  -exchange      EXHF   =         0.00000000
  -V(xc)+E(xc)   XCENC  =      3286.50565581
  PAW double counting   =    112499.41489489  -116193.67315077
  entropy T*S    EENTRO =         0.00000000
  eigenvalues    EBANDS =    -10876.54399413
  atomic energy  EATOM  =    114020.06510763
  Solvation  Ediel_sol  =         0.00000000
  ---------------------------------------------------
  free energy    TOTEN  =      -328.10355184 eV

  energy without entropy =     -328.10355184  energy(sigma->0) =     -328.10355184


--------------------------------------------------------------------------------------------------------




--------------------------------------- Iteration      1(   8)  ---------------------------------------


    POTLOK:  cpu time    0.1219: real time    0.1249
    SETDIJ:  cpu time    0.0128: real time    0.0128
     EDDAV:  cpu time   84.0599: real time   84.6787
 BZINTS: Fermi energy:  4.847884;688.000000 electrons
         Band energy:***********;  BLOECHL correction:  0.000000
       DOS:  cpu time    0.0027: real time    0.0027
    CHARGE:  cpu time    1.1993: real time    1.2074
    MIXING:  cpu time    0.0019: real time    0.0019
    --------------------------------------------
      LOOP:  cpu time   85.3984: real time   86.0285

 eigenvalue-minimisations  : 13824
 total energy-change (2. order) :-0.3727122E-04  (-0.3585640E-04)
 number of electron     688.0000472 magnetization      -0.0000000
 augmentation part      282.2065829 magnetization      -0.0000000

 Broyden mixing:
  rms(total) = 0.97447E-01    rms(broyden)= 0.97447E-01
  rms(prec ) = 0.97729E-01
  weight for this iteration     100.00

 eigenvalues of (default mixing * dielectric matrix)
  average eigenvalue GAMMA=   0.7910
  1.5715  1.5715  0.6152  0.6152  0.5235  0.3512  0.2892

 Free energy of the ion-electron system (eV)
  ---------------------------------------------------
  alpha Z        PSCENC =      2355.55826305
  Ewald energy   TEWEN  =    -62462.89303357
  -Hartree energ DENC   =    -42957.21184512
  -exchange      EXHF   =         0.00000000
  -V(xc)+E(xc)   XCENC  =      3286.51854821
  PAW double counting   =    112420.72016853  -116114.89490895
  entropy T*S    EENTRO =         0.00000000
  eigenvalues    EBANDS =    -10875.96588889
  atomic energy  EATOM  =    114020.06510763
  Solvation  Ediel_sol  =         0.00000000
  ---------------------------------------------------
  free energy    TOTEN  =      -328.10358911 eV

  energy without entropy =     -328.10358911  energy(sigma->0) =     -328.10358911


--------------------------------------------------------------------------------------------------------




--------------------------------------- Iteration      1(   9)  ---------------------------------------


    POTLOK:  cpu time    0.1223: real time    0.1238
    SETDIJ:  cpu time    0.0127: real time    0.0127
     EDDAV:  cpu time  127.6442: real time  128.5121
 BZINTS: Fermi energy:  4.847864;688.000000 electrons
         Band energy:***********;  BLOECHL correction:  0.000000
       DOS:  cpu time    0.0027: real time    0.0027
    CHARGE:  cpu time    1.1856: real time    1.1935
    MIXING:  cpu time    0.0017: real time    0.0017
    --------------------------------------------
      LOOP:  cpu time  128.9692: real time  129.8466

 eigenvalue-minimisations  : 17408
 total energy-change (2. order) : 0.1637622E-04  (-0.2528400E-05)
 number of electron     688.0000472 magnetization       0.0000000
 augmentation part      282.2073211 magnetization       0.0000000

 Broyden mixing:
  rms(total) = 0.89122E-01    rms(broyden)= 0.89122E-01
  rms(prec ) = 0.89348E-01
  weight for this iteration     100.00

 eigenvalues of (default mixing * dielectric matrix)
  average eigenvalue GAMMA=   1.1313
  2.4291  2.4291  1.0231  1.0231  0.3353  0.5933  0.5933  0.6239

 Free energy of the ion-electron system (eV)
  ---------------------------------------------------
  alpha Z        PSCENC =      2355.55826305
  Ewald energy   TEWEN  =    -62462.89303357
  -Hartree energ DENC   =    -42957.08561459
  -exchange      EXHF   =         0.00000000
  -V(xc)+E(xc)   XCENC  =      3286.51792797
  PAW double counting   =    112415.38370318  -116109.57841770
  entropy T*S    EENTRO =         0.00000000
  eigenvalues    EBANDS =    -10876.07150870
  atomic energy  EATOM  =    114020.06510763
  Solvation  Ediel_sol  =         0.00000000
  ---------------------------------------------------
  free energy    TOTEN  =      -328.10357274 eV

  energy without entropy =     -328.10357274  energy(sigma->0) =     -328.10357274


--------------------------------------------------------------------------------------------------------




--------------------------------------- Iteration      1(  10)  ---------------------------------------


    POTLOK:  cpu time    0.1228: real time    0.1253
    SETDIJ:  cpu time    0.0128: real time    0.0128
     EDDAV:  cpu time   95.2761: real time   95.9602
 BZINTS: Fermi energy:  4.847803;688.000000 electrons
         Band energy:***********;  BLOECHL correction:  0.000000
       DOS:  cpu time    0.0027: real time    0.0027
    CHARGE:  cpu time    1.1902: real time    1.1980
    MIXING:  cpu time    0.0022: real time    0.0022
    --------------------------------------------
      LOOP:  cpu time   96.6068: real time   97.3012

 eigenvalue-minimisations  : 14592
 total energy-change (2. order) : 0.5271831E-04  (-0.3875980E-04)
 number of electron     688.0000472 magnetization       0.0000000
 augmentation part      282.2179778 magnetization       0.0000000

 Broyden mixing:
  rms(total) = 0.10895E-01    rms(broyden)= 0.10895E-01
  rms(prec ) = 0.10916E-01
  weight for this iteration     100.00

 eigenvalues of (default mixing * dielectric matrix)
  average eigenvalue GAMMA=   1.0488
  2.6235  1.9785  1.1982  0.9337  0.3354  0.6733  0.5867  0.5867  0.5234

 Free energy of the ion-electron system (eV)
  ---------------------------------------------------
  alpha Z        PSCENC =      2355.55826305
  Ewald energy   TEWEN  =    -62462.89303357
  -Hartree energ DENC   =    -42956.57896073
  -exchange      EXHF   =         0.00000000
  -V(xc)+E(xc)   XCENC  =      3286.51031113
  PAW double counting   =    112302.26680501  -115996.28866573
  entropy T*S    EENTRO =         0.00000000
  eigenvalues    EBANDS =    -10876.74334680
  atomic energy  EATOM  =    114020.06510763
  Solvation  Ediel_sol  =         0.00000000
  ---------------------------------------------------
  free energy    TOTEN  =      -328.10352002 eV

  energy without entropy =     -328.10352002  energy(sigma->0) =     -328.10352002


--------------------------------------------------------------------------------------------------------




--------------------------------------- Iteration      1(  11)  ---------------------------------------


    POTLOK:  cpu time    0.1303: real time    0.1355
    SETDIJ:  cpu time    0.0128: real time    0.0128
     EDDAV:  cpu time   93.9312: real time   94.5998
 BZINTS: Fermi energy:  4.847808;688.000000 electrons
         Band energy:***********;  BLOECHL correction:  0.000000
       DOS:  cpu time    0.0027: real time    0.0027
    CHARGE:  cpu time    1.1835: real time    1.1914
    MIXING:  cpu time    0.0018: real time    0.0018
    --------------------------------------------
      LOOP:  cpu time   95.2622: real time   95.9441

 eigenvalue-minimisations  : 14336
 total energy-change (2. order) :-0.5177426E-06  (-0.1380390E-05)
 number of electron     688.0000472 magnetization       0.0000000
 augmentation part      282.2201378 magnetization       0.0000000

 Broyden mixing:
  rms(total) = 0.24988E-02    rms(broyden)= 0.24988E-02
  rms(prec ) = 0.25157E-02
  weight for this iteration     100.00

 eigenvalues of (default mixing * dielectric matrix)
  average eigenvalue GAMMA=   1.0369
  2.8817  1.5383  1.5383  0.3353  0.7130  0.7130  0.6028  0.6028  0.7221  0.7221

 Free energy of the ion-electron system (eV)
  ---------------------------------------------------
  alpha Z        PSCENC =      2355.55826305
  Ewald energy   TEWEN  =    -62462.89303357
  -Hartree energ DENC   =    -42956.57992520
  -exchange      EXHF   =         0.00000000
  -V(xc)+E(xc)   XCENC  =      3286.50819811
  PAW double counting   =    112283.54711809  -115977.52496288
  entropy T*S    EENTRO =         0.00000000
  eigenvalues    EBANDS =    -10876.78428576
  atomic energy  EATOM  =    114020.06510763
  Solvation  Ediel_sol  =         0.00000000
  ---------------------------------------------------
  free energy    TOTEN  =      -328.10352054 eV

  energy without entropy =     -328.10352054  energy(sigma->0) =     -328.10352054


--------------------------------------------------------------------------------------------------------




--------------------------------------- Iteration      1(  12)  ---------------------------------------


    POTLOK:  cpu time    0.1182: real time    0.1222
    SETDIJ:  cpu time    0.0127: real time    0.0128
     EDDAV:  cpu time  173.0498: real time  174.1785
 BZINTS: Fermi energy:  4.847808;688.000000 electrons
         Band energy:***********;  BLOECHL correction:  0.000000
       DOS:  cpu time    0.0027: real time    0.0027
    CHARGE:  cpu time    1.1873: real time    1.1950
    MIXING:  cpu time    0.0020: real time    0.0168
    --------------------------------------------
      LOOP:  cpu time  174.3727: real time  175.5280

 eigenvalue-minimisations  : 21504
 total energy-change (2. order) :-0.1424341E-06  (-0.1398697E-06)
 number of electron     688.0000472 magnetization       0.0000000
 augmentation part      282.2203997 magnetization       0.0000000

 Broyden mixing:
  rms(total) = 0.32869E-02    rms(broyden)= 0.32869E-02
  rms(prec ) = 0.32958E-02
  weight for this iteration     100.00

 eigenvalues of (default mixing * dielectric matrix)
  average eigenvalue GAMMA=   1.1235
  3.0616  1.7071  1.7071  1.1322  1.1322  0.3353  0.7408  0.7408  0.5955  0.5955
  0.6108

 Free energy of the ion-electron system (eV)
  ---------------------------------------------------
  alpha Z        PSCENC =      2355.55826305
  Ewald energy   TEWEN  =    -62462.89303357
  -Hartree energ DENC   =    -42956.59200102
  -exchange      EXHF   =         0.00000000
  -V(xc)+E(xc)   XCENC  =      3286.50783089
  PAW double counting   =    112273.01236727  -115966.97824049
  entropy T*S    EENTRO =         0.00000000
  eigenvalues    EBANDS =    -10876.78381444
  atomic energy  EATOM  =    114020.06510763
  Solvation  Ediel_sol  =         0.00000000
  ---------------------------------------------------
  free energy    TOTEN  =      -328.10352068 eV

  energy without entropy =     -328.10352068  energy(sigma->0) =     -328.10352068


--------------------------------------------------------------------------------------------------------




--------------------------------------- Iteration      1(  13)  ---------------------------------------


    POTLOK:  cpu time    0.1244: real time    0.1255
    SETDIJ:  cpu time    0.0131: real time    0.0131
     EDDAV:  cpu time   95.9682: real time   96.6511
 BZINTS: Fermi energy:  4.847849;688.000000 electrons
         Band energy:***********;  BLOECHL correction:  0.000000
       DOS:  cpu time    0.0027: real time    0.0027
    CHARGE:  cpu time    1.1834: real time    1.1916
    MIXING:  cpu time    0.0021: real time    0.0022
    --------------------------------------------
      LOOP:  cpu time   97.2939: real time   97.9861

 eigenvalue-minimisations  : 14848
 total energy-change (2. order) :-0.7030030E-06  (-0.1170705E-06)
 number of electron     688.0000472 magnetization       0.0000000
 augmentation part      282.2200347 magnetization       0.0000000

 Broyden mixing:
  rms(total) = 0.30563E-02    rms(broyden)= 0.30563E-02
  rms(prec ) = 0.30575E-02
  weight for this iteration     100.00

 eigenvalues of (default mixing * dielectric matrix)
  average eigenvalue GAMMA=   1.1231
  2.9169  1.9092  1.9092  1.1741  1.1741  0.3353  0.8144  0.8144  0.5961  0.5961
  0.6186  0.6186

 Free energy of the ion-electron system (eV)
  ---------------------------------------------------
  alpha Z        PSCENC =      2355.55826305
  Ewald energy   TEWEN  =    -62462.89303357
  -Hartree energ DENC   =    -42956.63042177
  -exchange      EXHF   =         0.00000000
  -V(xc)+E(xc)   XCENC  =      3286.50841767
  PAW double counting   =    112271.88297129  -115965.86629346
  entropy T*S    EENTRO =         0.00000000
  eigenvalues    EBANDS =    -10876.72853222
  atomic energy  EATOM  =    114020.06510763
  Solvation  Ediel_sol  =         0.00000000
  ---------------------------------------------------
  free energy    TOTEN  =      -328.10352138 eV

  energy without entropy =     -328.10352138  energy(sigma->0) =     -328.10352138


--------------------------------------------------------------------------------------------------------




--------------------------------------- Iteration      1(  14)  ---------------------------------------


    POTLOK:  cpu time    0.1207: real time    0.1245
    SETDIJ:  cpu time    0.0129: real time    0.0129
     EDDAV:  cpu time  117.2149: real time  118.0161
 BZINTS: Fermi energy:  4.847855;688.000000 electrons
         Band energy:***********;  BLOECHL correction:  0.000000
       DOS:  cpu time    0.0027: real time    0.0027
    CHARGE:  cpu time    1.1843: real time    1.1918
    MIXING:  cpu time    0.0019: real time    0.0019
    --------------------------------------------
      LOOP:  cpu time  118.5373: real time  119.3501

 eigenvalue-minimisations  : 16384
 total energy-change (2. order) :-0.4375324E-06  (-0.1670039E-07)
 number of electron     688.0000472 magnetization       0.0000000
 augmentation part      282.2201296 magnetization       0.0000000

 Broyden mixing:
  rms(total) = 0.14443E-02    rms(broyden)= 0.14443E-02
  rms(prec ) = 0.14449E-02
  weight for this iteration     100.00

 eigenvalues of (default mixing * dielectric matrix)
  average eigenvalue GAMMA=   1.1407
  3.0185  2.0852  2.0852  1.2097  1.2097  0.3353  0.8679  0.8679  0.5978  0.5978
  0.6778  0.6778  0.5982

 Free energy of the ion-electron system (eV)
  ---------------------------------------------------
  alpha Z        PSCENC =      2355.55826305
  Ewald energy   TEWEN  =    -62462.89303357
  -Hartree energ DENC   =    -42956.61825048
  -exchange      EXHF   =         0.00000000
  -V(xc)+E(xc)   XCENC  =      3286.50813890
  PAW double counting   =    112274.60061007  -115968.59575140
  entropy T*S    EENTRO =         0.00000000
  eigenvalues    EBANDS =    -10876.72860601
  atomic energy  EATOM  =    114020.06510763
  Solvation  Ediel_sol  =         0.00000000
  ---------------------------------------------------
  free energy    TOTEN  =      -328.10352182 eV

  energy without entropy =     -328.10352182  energy(sigma->0) =     -328.10352182


--------------------------------------------------------------------------------------------------------




--------------------------------------- Iteration      1(  15)  ---------------------------------------


    POTLOK:  cpu time    0.1241: real time    0.1251
    SETDIJ:  cpu time    0.0128: real time    0.0129
     EDDAV:  cpu time   79.8447: real time   80.4089
 BZINTS: Fermi energy:  4.847853;688.000000 electrons
         Band energy:***********;  BLOECHL correction:  0.000000
       DOS:  cpu time    0.0028: real time    0.0028
    CHARGE:  cpu time    1.1845: real time    1.1921
    MIXING:  cpu time    0.0025: real time    0.0025
    --------------------------------------------
      LOOP:  cpu time   81.1713: real time   81.7443

 eigenvalue-minimisations  : 11520
 total energy-change (2. order) :-0.1552398E-06  (-0.8932557E-08)
 number of electron     688.0000472 magnetization      -0.0000000
 augmentation part      282.2201952 magnetization      -0.0000000

 Broyden mixing:
  rms(total) = 0.10317E-02    rms(broyden)= 0.10317E-02
  rms(prec ) = 0.10322E-02
  weight for this iteration     100.00

 eigenvalues of (default mixing * dielectric matrix)
  average eigenvalue GAMMA=   1.2323
  3.5659  2.3154  2.3154  1.3576  1.3576  1.0331  1.0331  0.3353  0.5964  0.5964
  0.7473  0.7473  0.6259  0.6259

 Free energy of the ion-electron system (eV)
  ---------------------------------------------------
  alpha Z        PSCENC =      2355.55826305
  Ewald energy   TEWEN  =    -62462.89303357
  -Hartree energ DENC   =    -42956.60646453
  -exchange      EXHF   =         0.00000000
  -V(xc)+E(xc)   XCENC  =      3286.50779718
  PAW double counting   =    112275.38122196  -115969.38196966
  entropy T*S    EENTRO =         0.00000000
  eigenvalues    EBANDS =    -10876.73444402
  atomic energy  EATOM  =    114020.06510763
  Solvation  Ediel_sol  =         0.00000000
  ---------------------------------------------------
  free energy    TOTEN  =      -328.10352197 eV

  energy without entropy =     -328.10352197  energy(sigma->0) =     -328.10352197


--------------------------------------------------------------------------------------------------------




--------------------------------------- Iteration      1(  16)  ---------------------------------------


    POTLOK:  cpu time    0.1199: real time    0.1210
    SETDIJ:  cpu time    0.0127: real time    0.0128
     EDDAV:  cpu time  108.5633: real time  109.3163
 BZINTS: Fermi energy:  4.847854;688.000000 electrons
         Band energy:***********;  BLOECHL correction:  0.000000
       DOS:  cpu time    0.0028: real time    0.0028
    CHARGE:  cpu time    1.1875: real time    1.1953
    MIXING:  cpu time    0.0026: real time    0.0026
    --------------------------------------------
      LOOP:  cpu time  109.8888: real time  110.6508

 eigenvalue-minimisations  : 15616
 total energy-change (2. order) :-0.1042499E-06  (-0.9112771E-08)
 number of electron     688.0000472 magnetization      -0.0000000
 augmentation part      282.2200682 magnetization      -0.0000000

 Broyden mixing:
  rms(total) = 0.28354E-03    rms(broyden)= 0.28354E-03
  rms(prec ) = 0.28371E-03
  weight for this iteration     100.00

 eigenvalues of (default mixing * dielectric matrix)
  average eigenvalue GAMMA=   1.2196
  3.7258  2.5004  2.0697  1.6223  1.2164  1.2164  0.9737  0.3353  0.7786  0.7786
  0.5969  0.5969  0.6721  0.6055  0.6055

 Free energy of the ion-electron system (eV)
  ---------------------------------------------------
  alpha Z        PSCENC =      2355.55826305
  Ewald energy   TEWEN  =    -62462.89303357
  -Hartree energ DENC   =    -42956.60263565
  -exchange      EXHF   =         0.00000000
  -V(xc)+E(xc)   XCENC  =      3286.50776113
  PAW double counting   =    112276.89985432  -115970.90688397
  entropy T*S    EENTRO =         0.00000000
  eigenvalues    EBANDS =    -10876.73195501
  atomic energy  EATOM  =    114020.06510763
  Solvation  Ediel_sol  =         0.00000000
  ---------------------------------------------------
  free energy    TOTEN  =      -328.10352208 eV

  energy without entropy =     -328.10352208  energy(sigma->0) =     -328.10352208


--------------------------------------------------------------------------------------------------------




--------------------------------------- Iteration      1(  17)  ---------------------------------------


    POTLOK:  cpu time    0.1230: real time    0.1242
    SETDIJ:  cpu time    0.0131: real time    0.0131
     EDDAV:  cpu time   58.2795: real time   58.7131
 BZINTS: Fermi energy:  4.847854;688.000000 electrons
         Band energy:***********;  BLOECHL correction:  0.000000
       DOS:  cpu time    0.0027: real time    0.0027
    CHARGE:  cpu time    1.1842: real time    1.1921
    MIXING:  cpu time    0.0028: real time    0.0028
    --------------------------------------------
      LOOP:  cpu time   59.6053: real time   60.0481

 eigenvalue-minimisations  :  9216
 total energy-change (2. order) :-0.2633897E-07  (-0.5772369E-09)
 number of electron     688.0000472 magnetization       0.0000000
 augmentation part      282.2200456 magnetization       0.0000000

 Broyden mixing:
  rms(total) = 0.45070E-04    rms(broyden)= 0.45069E-04
  rms(prec ) = 0.45422E-04
  weight for this iteration     100.00

 eigenvalues of (default mixing * dielectric matrix)
  average eigenvalue GAMMA=   1.2330
  3.7646  2.7631  1.9096  1.9096  1.2460  1.2460  0.8894  0.8894  0.3353  0.8362
  0.8362  0.5965  0.5965  0.6519  0.6519  0.6049

 Free energy of the ion-electron system (eV)
  ---------------------------------------------------
  alpha Z        PSCENC =      2355.55826305
  Ewald energy   TEWEN  =    -62462.89303357
  -Hartree energ DENC   =    -42956.60174075
  -exchange      EXHF   =         0.00000000
  -V(xc)+E(xc)   XCENC  =      3286.50778382
  PAW double counting   =    112277.50489307  -115971.51296652
  entropy T*S    EENTRO =         0.00000000
  eigenvalues    EBANDS =    -10876.73182883
  atomic energy  EATOM  =    114020.06510763
  Solvation  Ediel_sol  =         0.00000000
  ---------------------------------------------------
  free energy    TOTEN  =      -328.10352210 eV

  energy without entropy =     -328.10352210  energy(sigma->0) =     -328.10352210


--------------------------------------------------------------------------------------------------------




--------------------------------------- Iteration      1(  18)  ---------------------------------------


    POTLOK:  cpu time    0.1193: real time    0.1223
    SETDIJ:  cpu time    0.0132: real time    0.0132
     EDDAV:  cpu time   84.3822: real time   84.9648
 BZINTS: Fermi energy:  4.835968;688.000000 electrons
         Band energy:***********;  BLOECHL correction:  0.000000
       DOS:  cpu time    0.0027: real time    0.0027
    --------------------------------------------
      LOOP:  cpu time   84.5172: real time   85.1029

 eigenvalue-minimisations  : 11264
[...]
   -.421E+02 0.103E+00 0.432E+01   0.430E+02 -.982E-01 -.436E+01   -.863E+00 -.474E-02 0.420E-01   -.358E-05 0.126E-05 0.251E-05
   -.421E+02 0.103E+00 0.432E+01   0.430E+02 -.982E-01 -.436E+01   -.863E+00 -.474E-02 0.420E-01   -.358E-05 0.126E-05 0.251E-05
   -.421E+02 0.103E+00 0.432E+01   0.430E+02 -.982E-01 -.436E+01   -.863E+00 -.474E-02 0.420E-01   -.358E-05 0.126E-05 0.251E-05
   -.421E+02 0.103E+00 0.432E+01   0.430E+02 -.982E-01 -.436E+01   -.863E+00 -.474E-02 0.420E-01   -.358E-05 0.126E-05 0.251E-05
   0.421E+02 -.103E+00 0.432E+01   -.430E+02 0.982E-01 -.436E+01   0.863E+00 0.474E-02 0.420E-01   0.358E-05 -.126E-05 0.251E-05
   0.421E+02 -.103E+00 0.432E+01   -.430E+02 0.982E-01 -.436E+01   0.863E+00 0.474E-02 0.420E-01   0.358E-05 -.126E-05 0.251E-05
   0.421E+02 -.103E+00 0.432E+01   -.430E+02 0.982E-01 -.436E+01   0.863E+00 0.474E-02 0.420E-01   0.358E-05 -.126E-05 0.251E-05
   0.421E+02 -.103E+00 0.432E+01   -.430E+02 0.982E-01 -.436E+01   0.863E+00 0.474E-02 0.420E-01   0.358E-05 -.126E-05 0.251E-05
   0.103E+00 -.421E+02 0.432E+01   -.982E-01 0.430E+02 -.436E+01   -.474E-02 -.863E+00 0.420E-01   0.126E-05 -.358E-05 0.251E-05
   0.103E+00 -.421E+02 0.432E+01   -.982E-01 0.430E+02 -.436E+01   -.474E-02 -.863E+00 0.420E-01   0.126E-05 -.358E-05 0.251E-05
   0.103E+00 -.421E+02 0.432E+01   -.982E-01 0.430E+02 -.436E+01   -.474E-02 -.863E+00 0.420E-01   0.126E-05 -.358E-05 0.251E-05
   0.103E+00 -.421E+02 0.432E+01   -.982E-01 0.430E+02 -.436E+01   -.474E-02 -.863E+00 0.420E-01   0.126E-05 -.358E-05 0.251E-05
   -.103E+00 0.421E+02 0.432E+01   0.982E-01 -.430E+02 -.436E+01   0.474E-02 0.863E+00 0.420E-01   -.126E-05 0.358E-05 0.251E-05
   -.103E+00 0.421E+02 0.432E+01   0.982E-01 -.430E+02 -.436E+01   0.474E-02 0.863E+00 0.420E-01   -.126E-05 0.358E-05 0.251E-05
   -.103E+00 0.421E+02 0.432E+01   0.982E-01 -.430E+02 -.436E+01   0.474E-02 0.863E+00 0.420E-01   -.126E-05 0.358E-05 0.251E-05
   -.103E+00 0.421E+02 0.432E+01   0.982E-01 -.430E+02 -.436E+01   0.474E-02 0.863E+00 0.420E-01   -.126E-05 0.358E-05 0.251E-05
   -.120E-06 0.228E-07 -.506E+01   0.158E-13 0.995E-13 0.486E+01   0.874E-25 -.969E-25 0.206E+00   0.212E-12 -.309E-12 -.137E-04
   -.120E-06 0.228E-07 -.506E+01   0.476E-13 0.853E-13 0.486E+01   0.158E-24 -.388E-25 0.206E+00   -.535E-12 -.300E-12 -.137E-04
   -.120E-06 0.228E-07 -.506E+01   0.442E-13 0.924E-13 0.486E+01   -.184E-24 0.905E-25 0.206E+00   0.842E-13 0.383E-12 -.137E-04
   -.120E-06 0.228E-07 -.506E+01   0.476E-13 0.853E-13 0.486E+01   -.165E-24 0.000E+00 0.206E+00   -.432E-12 0.357E-12 -.137E-04
   0.228E-07 -.120E-06 -.506E+01   0.227E-12 0.000E+00 0.486E+01   -.573E-25 0.155E-24 0.206E+00   -.114E-12 -.327E-12 -.137E-04
   0.228E-07 -.120E-06 -.506E+01   0.284E-12 0.000E+00 0.486E+01   -.778E-25 0.129E-25 0.206E+00   -.196E-12 -.135E-12 -.137E-04
   0.228E-07 -.120E-06 -.506E+01   0.256E-12 0.568E-13 0.486E+01   0.403E-25 0.110E-24 0.206E+00   -.134E-13 0.467E-12 -.137E-04
   0.228E-07 -.120E-06 -.506E+01   0.284E-12 0.000E+00 0.486E+01   0.121E-24 -.162E-24 0.206E+00   -.269E-12 0.320E-12 -.137E-04
   -.120E-06 0.228E-07 -.506E+01   -.711E-14 0.225E-12 0.486E+01   -.230E-24 -.679E-25 0.206E+00   -.283E-12 -.849E-13 -.137E-04
   -.120E-06 0.228E-07 -.506E+01   0.213E-13 0.268E-12 0.486E+01   0.128E-24 0.258E-25 0.206E+00   -.359E-12 0.154E-12 -.137E-04
   -.120E-06 0.228E-07 -.506E+01   -.284E-13 0.253E-12 0.486E+01   -.563E-25 0.969E-25 0.206E+00   -.701E-13 -.646E-13 -.137E-04
   -.120E-06 0.229E-07 -.506E+01   0.284E-13 0.246E-12 0.486E+01   0.126E-26 -.582E-25 0.206E+00   -.501E-12 -.333E-13 -.137E-04
   0.228E-07 -.120E-06 -.506E+01   0.253E-12 0.166E-12 0.486E+01   0.498E-25 -.549E-25 0.206E+00   0.139E-12 0.223E-12 -.137E-04
   0.228E-07 -.120E-06 -.506E+01   0.284E-12 0.222E-12 0.486E+01   0.217E-25 -.242E-26 0.206E+00   -.238E-12 0.238E-12 -.137E-04
   0.228E-07 -.120E-06 -.506E+01   0.225E-12 0.115E-12 0.486E+01   0.332E-25 0.129E-24 0.206E+00   0.211E-12 0.206E-13 -.137E-04
   0.228E-07 -.120E-06 -.506E+01   0.256E-12 0.172E-12 0.486E+01   0.662E-25 0.142E-24 0.206E+00   -.310E-12 -.164E-12 -.137E-04
   0.227E-08 -.376E-07 -.411E+01   -.119E-12 -.924E-13 0.386E+01   0.675E-25 -.291E-24 0.246E+00   0.468E-12 -.145E-12 0.655E-05
   0.227E-08 -.376E-07 -.411E+01   -.131E-12 -.995E-13 0.386E+01   0.518E-24 -.171E-24 0.246E+00   -.332E-12 -.308E-12 0.655E-05
   0.227E-08 -.376E-07 -.411E+01   -.126E-12 -.995E-13 0.386E+01   -.265E-24 0.291E-24 0.246E+00   0.388E-12 0.274E-12 0.655E-05
   0.227E-08 -.376E-07 -.411E+01   -.138E-12 -.711E-13 0.386E+01   -.381E-24 0.181E-24 0.246E+00   -.320E-12 0.334E-12 0.655E-05
   -.376E-07 0.227E-08 -.411E+01   0.178E-13 -.153E-12 0.386E+01   0.346E-24 0.233E-24 0.246E+00   -.249E-12 -.441E-12 0.655E-05
   -.376E-07 0.227E-08 -.411E+01   -.355E-14 -.103E-12 0.386E+01   0.106E-24 0.129E-24 0.246E+00   -.703E-13 -.319E-12 0.655E-05
   -.376E-07 0.227E-08 -.411E+01   -.213E-13 -.135E-12 0.386E+01   0.535E-25 -.258E-24 0.246E+00   -.133E-12 0.375E-12 0.655E-05
   -.376E-07 0.227E-08 -.411E+01   -.426E-13 -.192E-12 0.386E+01   0.165E-24 -.310E-24 0.246E+00   -.188E-12 0.266E-12 0.655E-05
   0.227E-08 -.376E-07 -.411E+01   -.782E-13 -.114E-12 0.386E+01   0.152E-24 -.840E-25 0.246E+00   -.131E-12 0.725E-13 0.655E-05
   0.227E-08 -.376E-07 -.411E+01   -.782E-13 -.107E-12 0.386E+01   -.532E-24 0.194E-24 0.246E+00   0.227E-13 0.227E-12 0.655E-05
   0.227E-08 -.376E-07 -.411E+01   -.114E-12 -.947E-13 0.386E+01   0.241E-24 0.226E-24 0.246E+00   -.845E-13 -.691E-13 0.655E-05
   0.227E-08 -.377E-07 -.411E+01   -.995E-13 -.126E-12 0.386E+01   -.818E-25 -.207E-24 0.246E+00   0.192E-13 -.166E-12 0.655E-05
   -.376E-07 0.227E-08 -.411E+01   -.843E-14 -.190E-12 0.386E+01   -.317E-25 -.775E-25 0.246E+00   0.330E-12 0.367E-13 0.655E-05
   -.376E-07 0.228E-08 -.411E+01   0.680E-13 -.239E-12 0.386E+01   -.771E-25 0.000E+00 0.246E+00   -.491E-12 0.918E-13 0.655E-05
   -.376E-07 0.227E-08 -.411E+01   -.184E-13 -.114E-12 0.386E+01   0.116E-24 0.310E-24 0.246E+00   0.434E-12 -.412E-13 0.655E-05
   -.376E-07 0.230E-08 -.411E+01   0.124E-14 -.114E-12 0.386E+01   -.395E-24 0.310E-24 0.246E+00   -.596E-12 -.867E-13 0.655E-05
 -----------------------------------------------------------------------------------------------
   -.520E-06 -.520E-06 -.859E+01   0.143E-12 -.859E-13 -.995E-12   -.552E-15 -.189E-14 0.858E+01   -.426E-11 0.215E-12 -.337E-04
 
 
 POSITION                                       TOTAL-FORCE (eV/Angst)
 -----------------------------------------------------------------------------------
      1.33536      1.32418      1.29375         0.000569     -0.000200     -0.000661
      6.59173      1.36084      1.29375         0.000569     -0.000200     -0.000661
      1.37202      6.58055      1.29375         0.000569     -0.000200     -0.000661
      6.62839      6.61721      1.29375         0.000569     -0.000200     -0.000661
      3.95766      3.96885      1.29375        -0.000569      0.000200     -0.000661
      9.21403      4.00551      1.29375        -0.000569      0.000200     -0.000661
      3.99433      9.22521      1.29375        -0.000569      0.000200     -0.000661
      9.25069      9.26187      1.29375        -0.000569      0.000200     -0.000661
      1.34066      3.93933      9.10483         0.000200     -0.000569     -0.000661
      6.59703      3.97600      9.10483         0.000200     -0.000569     -0.000661
      1.37732      9.19570      9.10483         0.000200     -0.000569     -0.000661
      6.63369      9.23236      9.10483         0.000200     -0.000569     -0.000661
      3.95237      1.35369      9.10483        -0.000200      0.000569     -0.000661
      9.20873      1.39035      9.10483        -0.000200      0.000569     -0.000661
      3.98903      6.61006      9.10483        -0.000200      0.000569     -0.000661
      9.24539      6.64672      9.10483        -0.000200      0.000569     -0.000661
      1.31115      1.32233      6.50114        -0.000569      0.000200     -0.000661
      6.56752      1.35899      6.50114        -0.000569      0.000200     -0.000661
      1.34781      6.57870      6.50114        -0.000569      0.000200     -0.000661
      6.60418      6.61536      6.50114        -0.000569      0.000200     -0.000661
      3.98188      3.97070      6.50114         0.000569     -0.000200     -0.000661
      9.23824      4.00736      6.50114         0.000569     -0.000200     -0.000661
      4.01854      9.22706      6.50114         0.000569     -0.000200     -0.000661
      9.27491      9.26372      6.50114         0.000569     -0.000200     -0.000661
      3.95052      1.32948      3.89745         0.000200     -0.000569     -0.000661
      9.20688      1.36614      3.89745         0.000200     -0.000569     -0.000661
      3.98718      6.58585      3.89745         0.000200     -0.000569     -0.000661
      9.24354      6.62251      3.89745         0.000200     -0.000569     -0.000661
      1.34251      3.96355      3.89745        -0.000200      0.000569     -0.000661
      6.59888      4.00021      3.89745        -0.000200      0.000569     -0.000661
      1.37917      9.21991      3.89745        -0.000200      0.000569     -0.000661
      6.63554      9.25657      3.89745        -0.000200      0.000569     -0.000661
      0.00000      0.00000      5.21442         0.000000     -0.000000     -0.000014
      5.25637      0.03666      5.21442         0.000000     -0.000000     -0.000014
      0.03666      5.25637      5.21442         0.000000      0.000000     -0.000014
      5.29303      5.29303      5.21442         0.000000      0.000000     -0.000014
      2.62818      0.01833      2.61073         0.000000     -0.000000     -0.000014
      7.88455      0.05499      2.61073         0.000000      0.000000     -0.000014
      2.66484      5.27470      2.61073         0.000000      0.000000     -0.000014
      7.92121      5.31136      2.61073         0.000000     -0.000000     -0.000014
      2.64651      2.64651      0.00704         0.000000      0.000000     -0.000014
      7.90288      2.68317      0.00704         0.000000      0.000000     -0.000014
      2.68317      7.90288      0.00704         0.000000     -0.000000     -0.000014
      7.93954      7.93954      0.00704         0.000000      0.000000     -0.000014
      0.01833      2.62818      7.81812         0.000000      0.000000     -0.000014
      5.27470      2.66484      7.81812         0.000000     -0.000000     -0.000014
      0.05499      7.88455      7.81812         0.000000     -0.000000     -0.000014
      5.31136      7.92121      7.81812         0.000000     -0.000000     -0.000014
      0.00000      0.00000      0.00914         0.000000      0.000000      0.001336
      5.25637      0.03666      0.00914         0.000000      0.000000      0.001336
      0.03666      5.25637      0.00914         0.000000      0.000000      0.001336
      5.29303      5.29303      0.00914         0.000000     -0.000000      0.001336
      2.62818      0.01833      7.82022         0.000000      0.000000      0.001336
      7.88455      0.05499      7.82022         0.000000     -0.000000      0.001336
      2.66484      5.27470      7.82022         0.000000      0.000000      0.001336
      7.92121      5.31136      7.82022         0.000000      0.000000      0.001336
      2.64651      2.64651      5.21653         0.000000      0.000000      0.001336
      7.90288      2.68317      5.21653         0.000000      0.000000      0.001336
      2.68317      7.90288      5.21653         0.000000     -0.000000      0.001336
      7.93954      7.93954      5.21653         0.000000     -0.000000      0.001336
      0.01833      2.62818      2.61284         0.000000      0.000000      0.001336
      5.27470      2.66484      2.61284         0.000000      0.000000      0.001336
      0.05499      7.88455      2.61284         0.000000     -0.000000      0.001336
      5.31136      7.92121      2.61284         0.000000      0.000000      0.001336
 -----------------------------------------------------------------------------------
    total drift:                               -0.000001     -0.000001     -0.008427


--------------------------------------------------------------------------------------------------------



  FREE ENERGIE OF THE ION-ELECTRON SYSTEM (eV)
  ---------------------------------------------------
  free  energy   TOTEN  =      -328.10352211 eV

  energy  without entropy=     -328.10352211  energy(sigma->0) =     -328.10352211
 


--------------------------------------------------------------------------------------------------------


    POTLOK:  cpu time    0.1329: real time    0.1336


--------------------------------------------------------------------------------------------------------


 writing wavefunctions
     LOOP+:  cpu time 2033.5213: real time 2293.3154
    4ORBIT:  cpu time    0.0000: real time    0.0000
 


 total charge     
 
# of ion       s       p       d       tot
------------------------------------------
    1        1.313   2.410   0.000   3.724
    2        1.313   2.410   0.000   3.724
    3        1.313   2.410   0.000   3.724
    4        1.313   2.410   0.000   3.724
    5        1.313   2.410   0.000   3.724
    6        1.313   2.410   0.000   3.724
    7        1.313   2.410   0.000   3.724
    8        1.313   2.410   0.000   3.724
    9        1.313   2.410   0.000   3.724
   10        1.313   2.410   0.000   3.724
   11        1.313   2.410   0.000   3.724
   12        1.313   2.410   0.000   3.724
   13        1.313   2.410   0.000   3.724
   14        1.313   2.410   0.000   3.724
   15        1.313   2.410   0.000   3.724
   16        1.313   2.410   0.000   3.724
   17        1.313   2.410   0.000   3.724
   18        1.313   2.410   0.000   3.724
   19        1.313   2.410   0.000   3.724
   20        1.313   2.410   0.000   3.724
   21        1.313   2.410   0.000   3.724
   22        1.313   2.410   0.000   3.724
   23        1.313   2.410   0.000   3.724
   24        1.313   2.410   0.000   3.724
   25        1.313   2.410   0.000   3.724
   26        1.313   2.410   0.000   3.724
   27        1.313   2.410   0.000   3.724
   28        1.313   2.410   0.000   3.724
   29        1.313   2.410   0.000   3.724
   30        1.313   2.410   0.000   3.724
   31        1.313   2.410   0.000   3.724
   32        1.313   2.410   0.000   3.724
   33        0.260   6.202   8.916  15.378
   34        0.260   6.202   8.916  15.378
   35        0.260   6.202   8.916  15.378
   36        0.260   6.202   8.916  15.378
   37        0.260   6.202   8.917  15.378
   38        0.260   6.202   8.917  15.378
   39        0.260   6.202   8.917  15.378
   40        0.260   6.202   8.917  15.378
   41        0.260   6.202   8.916  15.378
   42        0.260   6.202   8.916  15.378
   43        0.260   6.202   8.916  15.378
   44        0.260   6.202   8.916  15.378
   45        0.260   6.202   8.917  15.378
   46        0.260   6.202   8.917  15.378
   47        0.260   6.202   8.917  15.378
   48        0.260   6.202   8.917  15.378
   49        0.350   6.351   5.820  12.521
   50        0.350   6.351   5.820  12.521
   51        0.350   6.351   5.820  12.521
   52        0.350   6.351   5.820  12.521
   53        0.350   6.351   5.820  12.521
   54        0.350   6.351   5.820  12.521
   55        0.350   6.351   5.820  12.521
   56        0.350   6.351   5.820  12.521
   57        0.350   6.351   5.820  12.521
   58        0.350   6.351   5.820  12.521
   59        0.350   6.351   5.820  12.521
   60        0.350   6.351   5.820  12.521
   61        0.350   6.351   5.820  12.521
   62        0.350   6.351   5.820  12.521
   63        0.350   6.351   5.820  12.521
   64        0.350   6.351   5.820  12.521
--------------------------------------------------
tot         51.790 277.979 235.780 565.549
 


 magnetization (x)
 
# of ion       s       p       d       tot
------------------------------------------
    1       -0.000  -0.003   0.000  -0.004
    2       -0.000  -0.003   0.000  -0.004
    3       -0.000  -0.003   0.000  -0.004
    4       -0.000  -0.003   0.000  -0.004
    5       -0.000  -0.003   0.000  -0.004
    6       -0.000  -0.003   0.000  -0.004
    7       -0.000  -0.003   0.000  -0.004
    8       -0.000  -0.003   0.000  -0.004
    9        0.000   0.003   0.000   0.004
   10        0.000   0.003   0.000   0.004
   11        0.000   0.003   0.000   0.004
   12        0.000   0.003   0.000   0.004
   13        0.000   0.003   0.000   0.004
   14        0.000   0.003   0.000   0.004
   15        0.000   0.003   0.000   0.004
   16        0.000   0.003   0.000   0.004
   17       -0.000  -0.003   0.000  -0.004
   18       -0.000  -0.003   0.000  -0.004
   19       -0.000  -0.003   0.000  -0.004
   20       -0.000  -0.003   0.000  -0.004
   21       -0.000  -0.003   0.000  -0.004
   22       -0.000  -0.003   0.000  -0.004
   23       -0.000  -0.003   0.000  -0.004
   24       -0.000  -0.003   0.000  -0.004
   25        0.000   0.003   0.000   0.004
   26        0.000   0.003   0.000   0.004
   27        0.000   0.003   0.000   0.004
   28        0.000   0.003   0.000   0.004
   29        0.000   0.003   0.000   0.004
   30        0.000   0.003   0.000   0.004
   31        0.000   0.003   0.000   0.004
   32        0.000   0.003   0.000   0.004
   33        0.000   0.000  -0.001   0.000
   34        0.000   0.000  -0.001   0.000
   35        0.000   0.000  -0.001   0.000
   36        0.000   0.000  -0.001   0.000
   37       -0.000  -0.000   0.001  -0.000
   38       -0.000  -0.000   0.001  -0.000
   39       -0.000  -0.000   0.001  -0.000
   40       -0.000  -0.000   0.001  -0.000
   41        0.000   0.000  -0.001   0.000
   42        0.000   0.000  -0.001   0.000
   43        0.000   0.000  -0.001   0.000
   44        0.000   0.000  -0.001   0.000
   45       -0.000  -0.000   0.001  -0.000
   46       -0.000  -0.000   0.001  -0.000
   47       -0.000  -0.000   0.001  -0.000
   48       -0.000  -0.000   0.001  -0.000
   49        0.020   0.054   3.671   3.744
   50        0.020   0.054   3.671   3.744
   51        0.020   0.054   3.671   3.744
   52        0.020   0.054   3.671   3.744
   53       -0.020  -0.054  -3.671  -3.744
   54       -0.020  -0.054  -3.671  -3.744
   55       -0.020  -0.054  -3.671  -3.744
   56       -0.020  -0.054  -3.671  -3.744
   57        0.020   0.054   3.671   3.744
   58        0.020   0.054   3.671   3.744
   59        0.020   0.054   3.671   3.744
   60        0.020   0.054   3.671   3.744
   61       -0.020  -0.054  -3.671  -3.744
   62       -0.020  -0.054  -3.671  -3.744
   63       -0.020  -0.054  -3.671  -3.744
   64       -0.020  -0.054  -3.671  -3.744
--------------------------------------------------
tot         -0.000   0.000  -0.000  -0.000
 
 BZINTS: Fermi energy:  4.835968;688.000000 electrons
         Band energy:***********;  BLOECHL correction:  0.000000

 total amount of memory used by VASP MPI-rank0   301249. kBytes
=======================================================================

   base      :      30000. kBytes
   nonl-proj :     175882. kBytes
   fftplans  :       4588. kBytes
   grid      :      69719. kBytes
   one-center:       1990. kBytes
   wavefun   :      19070. kBytes
 
  
  
 General timing and accounting informations for this job:
 ========================================================
  
                  Total CPU time used (sec):     2084.196
                            User time (sec):     2072.129
                          System time (sec):       12.066
                         Elapsed time (sec):     2345.688
  
                   Maximum memory used (kb):      667664.
                   Average memory used (kb):           0.
  
                          Minor page faults:       522655
                          Major page faults:         5623
                 Voluntary context switches:         8196
