 vasp.5.4.4.18Apr17-6-g9f103f2a35 (build Oct 30 2023 17:49:44) complex          
  
 executed on             LinuxIFC date 2024.12.05  01:52:42
 running on  256 total cores
 distrk:  each k-point on  256 cores,    1 groups
 distr:  one band on NCORES_PER_BAND=   1 cores,  256 groups


--------------------------------------------------------------------------------------------------------


 INCAR:
 POTCAR:    PAW_PBE S 06Sep2000                   
 POTCAR:     PAW_PBE Cu_pv 06Sep2000              
 POTCAR:     PAW_PBE Fe_pv 02Aug2007              

 ----------------------------------------------------------------------------- 
|                                                                             |
|           W    W    AA    RRRRR   N    N  II  N    N   GGGG   !!!           |
|           W    W   A  A   R    R  NN   N  II  NN   N  G    G  !!!           |
|           W    W  A    A  R    R  N N  N  II  N N  N  G       !!!           |
|           W WW W  AAAAAA  RRRRR   N  N N  II  N  N N  G  GGG   !            |
|           WW  WW  A    A  R   R   N   NN  II  N   NN  G    G                |
|           W    W  A    A  R    R  N    N  II  N    N   GGGG   !!!           |
|                                                                             |
|      For optimal performance we recommend to set                            |
|        NCORE= 4 - approx SQRT( number of cores)                             |
|      NCORE specifies how many cores store one orbital (NPAR=cpu/NCORE).     |
|      This setting can  greatly improve the performance of VASP for DFT.     |
|      The default,   NCORE=1            might be grossly inefficient         |
|      on modern multi-core architectures or massively parallel machines.     |
|      Do your own testing !!!!                                               |
|      Unfortunately you need to use the default for GW and RPA calculations. |
|      (for HF NCORE is supported but not extensively tested yet)             |
|                                                                             |
 ----------------------------------------------------------------------------- 

 POTCAR:    PAW_PBE S 06Sep2000                   
   SHA256 =  0fc7481fb0695f01bdc6462160264c5c84044ae9ec85a907d398b887a2bc3132 S/
   COPYR  = (c) Copyright 06Sep2000 Georg Kresse                                
   COPYR  = This file is part of the software VASP. Any use, copying, and all ot
   COPYR  = If you do not have a valid VASP license, you may not use, copy or di
   VRHFIN =S : s2p4                                                             
   LEXCH  = PE                                                                  
   EATOM  =   276.8230 eV,   20.3459 Ry                                         
                                                                                
   TITEL  = PAW_PBE S 06Sep2000                                                 
   LULTRA =        F    use ultrasoft PP ?                                      
   IUNSCR =        1    unscreen: 0-lin 1-nonlin 2-no                           
   RPACOR =    1.500    partial core radius                                     
   POMASS =   32.066; ZVAL   =    6.000    mass and valenz                      
   RCORE  =    1.900    outmost cutoff radius                                   
   RWIGS  =    2.200; RWIGS  =    1.164    wigner-seitz radius (au A)           
   ENMAX  =  258.689; ENMIN  =  194.016 eV                                      
   ICORE  =        2    local potential                                         
   LCOR   =        T    correct aug charges                                     
   LPAW   =        T    paw PP                                                  
   EAUG   =  335.092                                                            
   DEXC   =    0.000                                                            
   RMAX   =    1.942    core radius for proj-oper                               
   RAUG   =    1.300    factor for augmentation sphere                          
   RDEP   =    1.954    radius for radial grids                                 
   RDEPT  =    1.744    core radius for aug-charge                              
                                                                                
   Atomic configuration                                                         
    6 entries                                                                   
     n  l   j            E        occ.                                          
     1  0  0.50     -2405.8406   2.0000                                         
     2  0  0.50      -211.7007   2.0000                                         
     2  1  1.50      -156.4958   6.0000                                         
     3  0  0.50       -17.2562   2.0000                                         
     3  1  0.50        -7.0085   4.0000                                         
     3  2  1.50        -6.8029   0.0000                                         
   Description                                                                  
     l       E           TYP  RCUT    TYP  RCUT                                 
     0    -17.2561641     23  1.900                                             
     0    -15.8743224     23  1.900                                             
     1     -7.0085400     23  1.900                                             
     1     -2.7779785     23  1.900                                             
     2     -6.8029130     23  1.900                                             
  local pseudopotential read in
  partial core-charges read in
  partial kinetic energy density read in
  atomic valenz-charges read in
  non local Contribution for L=           0  read in
    real space projection operators read in
  non local Contribution for L=           0  read in
    real space projection operators read in
  non local Contribution for L=           1  read in
    real space projection operators read in
  non local Contribution for L=           1  read in
    real space projection operators read in
    PAW grid and wavefunctions read in
 
   number of l-projection  operators is LMAX  =           4
   number of lm-projection operators is LMMAX =           8
 
 POTCAR:     PAW_PBE Cu_pv 06Sep2000              
   SHA256 =  cb7b504e2ea725fe1f25c85a9ac77d4012ce94cd394135b722c4e25ec297f1cb Cu
   COPYR  = (c) Copyright 06Sep2000 Georg Kresse                                
   COPYR  = This file is part of the software VASP. Any use, copying, and all ot
   COPYR  = If you do not have a valid VASP license, you may not use, copy or di
   VRHFIN =Cu: d10 p1                                                           
   LEXCH  = PE                                                                  
   EATOM  =  4120.1201 eV,  302.8203 Ry                                         
                                                                                
   TITEL  = PAW_PBE Cu_pv 06Sep2000                                             
   LULTRA =        F    use ultrasoft PP ?                                      
   IUNSCR =        1    unscreen: 0-lin 1-nonlin 2-no                           
   RPACOR =    1.500    partial core radius                                     
   POMASS =   63.546; ZVAL   =   17.000    mass and valenz                      
   RCORE  =    2.000    outmost cutoff radius                                   
   RWIGS  =    2.000; RWIGS  =    1.058    wigner-seitz radius (au A)           
   ENMAX  =  368.648; ENMIN  =  276.486 eV                                      
   RCLOC  =    1.304    cutoff for local pot                                    
   LCOR   =        T    correct aug charges                                     
   LPAW   =        T    paw PP                                                  
   EAUG   =  758.233                                                            
   DEXC   =    0.000                                                            
   RMAX   =    2.046    core radius for proj-oper                               
   RAUG   =    1.300    factor for augmentation sphere                          
   RDEP   =    2.025    radius for radial grids                                 
   RDEPT  =    1.558    core radius for aug-charge                              
                                                                                
   Atomic configuration                                                         
    8 entries                                                                   
     n  l   j            E        occ.                                          
     1  0  0.50     -8850.2467   2.0000                                         
     2  0  0.50     -1062.3498   2.0000                                         
     2  1  1.50      -916.8226   6.0000                                         
     3  0  0.50      -114.6929   2.0000                                         
     3  1  1.50       -72.1325   6.0000                                         
     3  2  2.50        -5.0394  10.0000                                         
     4  0  0.50        -4.6097   1.0000                                         
     4  3  2.50        -1.3606   0.0000                                         
   Description                                                                  
     l       E           TYP  RCUT    TYP  RCUT                                 
     1    -72.1324777     23  1.700                                             
     1     -1.3605826     23  1.700                                             
     2     -5.0393776     23  2.000                                             
     2     -6.3999602     23  2.000                                             
     0     -4.6097062     23  1.800                                             
     0     14.1620818     23  1.800                                             
  local pseudopotential read in
  partial core-charges read in
  partial kinetic energy density read in
  atomic valenz-charges read in
  non local Contribution for L=           1  read in
    real space projection operators read in
  non local Contribution for L=           1  read in
    real space projection operators read in
  non local Contribution for L=           2  read in
    real space projection operators read in
  non local Contribution for L=           2  read in
    real space projection operators read in
  non local Contribution for L=           0  read in
    real space projection operators read in
  non local Contribution for L=           0  read in
    real space projection operators read in
    PAW grid and wavefunctions read in
 
   number of l-projection  operators is LMAX  =           6
   number of lm-projection operators is LMMAX =          18
 
 POTCAR:     PAW_PBE Fe_pv 02Aug2007              
   SHA256 =  5d22e414b1f82158bf2c7ecb8b97b28fd0923e48cadc1c3bf74d524558f5dd32 Fe
   COPYR  = (c) Copyright 02Aug2007 Georg Kresse                                
   COPYR  = This file is part of the software VASP. Any use, copying, and all ot
   COPYR  = If you do not have a valid VASP license, you may not use, copy or di
   VRHFIN =Fe:  3pd7s1                                                          
   LEXCH  = PE                                                                  
   EATOM  =  2457.4239 eV,  180.6156 Ry                                         
                                                                                
   TITEL  = PAW_PBE Fe_pv 02Aug2007                                             
   LULTRA =        F    use ultrasoft PP ?                                      
   IUNSCR =        1    unscreen: 0-lin 1-nonlin 2-no                           
   RPACOR =    1.750    partial core radius                                     
   POMASS =   55.847; ZVAL   =   14.000    mass and valenz                      
   RCORE  =    2.200    outmost cutoff radius                                   
   RWIGS  =    2.200; RWIGS  =    1.164    wigner-seitz radius (au A)           
   ENMAX  =  293.238; ENMIN  =  219.928 eV                                      
   ICORE  =        3    local potential                                         
   LCOR   =        T    correct aug charges                                     
   LPAW   =        T    paw PP                                                  
   EAUG   =  578.342                                                            
   DEXC   =    0.000                                                            
   RMAX   =    2.249    core radius for proj-oper                               
   RAUG   =    1.300    factor for augmentation sphere                          
   RDEP   =    2.296    radius for radial grids                                 
   RDEPT  =    1.766    core radius for aug-charge                              
                                                                                
   Atomic configuration                                                         
    8 entries                                                                   
     n  l   j            E        occ.                                          
     1  0  0.50     -6993.8440   2.0000                                         
     2  0  0.50      -814.6047   2.0000                                         
     2  1  1.50      -693.3689   6.0000                                         
     3  0  0.50       -89.4732   2.0000                                         
     3  1  1.50       -55.6373   6.0000                                         
     3  2  2.50        -3.8151   7.0000                                         
     4  0  0.50        -4.2551   1.0000                                         
     4  3  2.50        -1.3606   0.0000                                         
   Description                                                                  
     l       E           TYP  RCUT    TYP  RCUT                                 
     1    -55.6372668     23  2.000                                             
     1     -5.4423304     23  2.000                                             
     2     -3.8151096     23  2.200                                             
     2     -5.1756922     23  2.200                                             
     0     -4.2550951     23  2.200                                             
     0     27.2116520     23  2.200                                             
     3     -1.3605826     23  2.200                                             
  local pseudopotential read in
  partial core-charges read in
  partial kinetic energy density read in
  atomic valenz-charges read in
  non local Contribution for L=           1  read in
    real space projection operators read in
  non local Contribution for L=           1  read in
    real space projection operators read in
  non local Contribution for L=           2  read in
    real space projection operators read in
  non local Contribution for L=           2  read in
    real space projection operators read in
  non local Contribution for L=           0  read in
    real space projection operators read in
  non local Contribution for L=           0  read in
    real space projection operators read in
    PAW grid and wavefunctions read in
 
   number of l-projection  operators is LMAX  =           6
   number of lm-projection operators is LMMAX =          18
 

 ----------------------------------------------------------------------------- 
|                                                                             |
|  ADVICE TO THIS USER RUNNING 'VASP/VAMP'   (HEAR YOUR MASTER'S VOICE ...):  |
|                                                                             |
|      You enforced a specific xc-type in the INCAR file,                     |
|      a different type was found on the POTCAR file                          |
|          I HOPE YOU KNOW, WHAT YOU ARE  DOING                               |
|                                                                             |
 ----------------------------------------------------------------------------- 

  PAW_PBE S 06Sep2000                   :
 energy of atom  1       EATOM= -276.8230
 kinetic energy error for atom=    0.0007 (will be added to EATOM!!)
   PAW_PBE Cu_pv 06Sep2000              :
 energy of atom  2       EATOM=-4120.1201
 kinetic energy error for atom=    0.0094 (will be added to EATOM!!)
   PAW_PBE Fe_pv 02Aug2007              :
 energy of atom  3       EATOM=-2457.4239
 kinetic energy error for atom=    0.0025 (will be added to EATOM!!)
 
 
 POSCAR: Fe4 Cu4 S8                              
  positions in direct lattice
  velocities in cartesian coordinates
 exchange correlation table for  LEXCH =       14
   RHO(1)=    0.500       N(1)  =     2000
   RHO(2)=  100.500       N(2)  =     4000
 


--------------------------------------------------------------------------------------------------------


 ion  position               nearest neighbor table
   1  0.252  0.248  0.125-  11 2.26  10 2.26  16 2.27  13 2.28
   2  0.748  0.748  0.125-  10 2.26  11 2.26  13 2.27  16 2.28
   3  0.250  0.746  0.875-  11 2.26  12 2.26  13 2.27  14 2.27
   4  0.750  0.251  0.875-  11 2.26  12 2.26  13 2.28  14 2.28
   5  0.248  0.248  0.625-  12 2.26   9 2.26  15 2.27  14 2.28
   6  0.752  0.748  0.625-   9 2.26  12 2.26  14 2.27  15 2.28
   7  0.750  0.246  0.375-   9 2.26  10 2.26  16 2.27  15 2.27
   8  0.250  0.751  0.375-   9 2.26  10 2.26  16 2.28  15 2.28
   9  0.999  0.002  0.500-   6 2.26   8 2.26   7 2.26   5 2.26
  10  0.501  0.002  0.250-   2 2.26   8 2.26   7 2.26   1 2.26
  11  0.499  0.502  0.000-   1 2.26   4 2.26   3 2.26   2 2.26
  12  0.001  0.502  0.750-   5 2.26   4 2.26   3 2.26   6 2.26
  13  1.000  0.002  0.000-   2 2.27   3 2.27   4 2.28   1 2.28
  14  0.500  0.002  0.750-   6 2.27   3 2.27   4 2.28   5 2.28
  15  0.500  0.502  0.500-   5 2.27   7 2.27   8 2.28   6 2.28
  16  0.000  0.502  0.250-   1 2.27   7 2.27   8 2.28   2 2.28
 
  LATTYP: Found a simple monoclinic cell.
 ALAT       =    11.7389344743
 B/A-ratio  =     0.4482038978
 C/A-ratio  =     1.8359398355
 COS(beta)  =    -0.9763566294
  
  Lattice vectors:
  
 A1 = (  -5.3475000000,   0.0000000000, -10.4502070000)
 A2 = (   0.0000000000,  -5.2614361876,   0.0000000000)
 A3 = (   5.4382150000,   0.0000000000,  20.8545810000)


Analysis of symmetry for initial positions (statically):
=====================================================================
 Subroutine PRICEL returns following result:
 
  LATTYP: Found a base centered monoclinic cell.
 ALAT       =    11.5753034903
 B/A-ratio  =     0.4545398047
 C/A-ratio  =     0.8988766014
 COS(beta)  =    -0.8110997991
  
  Lattice vectors:
  
 A1 = (  -2.5830350000,  -2.6307180938,   5.1792705000)
 A2 = (  -2.5830350000,   2.6307180938,   5.1792705000)
 A3 = (  -0.0907150000,   0.0000000000, -10.4043740000)
 
   2 primitive cells build up your supercell.
 

 Routine SETGRP: Setting up the symmetry group for a 
 simple monoclinic supercell.


 Subroutine GETGRP returns: Found  2 space group operations
 (whereof  1 operations were pure point group operations)
 out of a pool of  4 trial point group operations.


The static configuration has the point symmetry C_1 .
 The point group associated with its full space group is C_2 .


Analysis of symmetry for dynamics (positions and initial velocities):
=====================================================================
 Subroutine PRICEL returns following result:
 
  LATTYP: Found a base centered monoclinic cell.
 ALAT       =    11.5753034903
 B/A-ratio  =     0.4545398047
 C/A-ratio  =     0.8988766014
 COS(beta)  =    -0.8110997991
  
  Lattice vectors:
  
 A1 = (  -2.5830350000,  -2.6307180938,   5.1792705000)
 A2 = (  -2.5830350000,   2.6307180938,   5.1792705000)
 A3 = (  -0.0907150000,   0.0000000000, -10.4043740000)
 
   2 primitive cells build up your supercell.
 

 Routine SETGRP: Setting up the symmetry group for a 
 simple monoclinic supercell.


 Subroutine GETGRP returns: Found  2 space group operations
 (whereof  1 operations were pure point group operations)
 out of a pool of  4 trial point group operations.


The dynamic configuration has the point symmetry C_1 .
 The point group associated with its full space group is C_2 .


Analysis of structural, dynamic, and magnetic symmetry:
=====================================================================
 Subroutine PRICEL returns following result:
 
  LATTYP: Found a base centered monoclinic cell.
 ALAT       =    11.5753034903
 B/A-ratio  =     0.4545398047
 C/A-ratio  =     0.8988766014
 COS(beta)  =    -0.8110997991
  
  Lattice vectors:
  
 A1 = (  -2.5830350000,  -2.6307180938,   5.1792705000)
 A2 = (  -2.5830350000,   2.6307180938,   5.1792705000)
 A3 = (  -0.0907150000,   0.0000000000, -10.4043740000)
 
   2 primitive cells build up your supercell.
 

 Routine SETGRP: Setting up the symmetry group for a 
 simple monoclinic supercell.


 Subroutine GETGRP returns: Found  2 space group operations
 (whereof  1 operations were pure point group operations)
 out of a pool of  4 trial point group operations.


The (compounded) configuration has the point symmetry C_1 .
 The point group associated with its full space group is C_2 .


 Subroutine INISYM returns: Found  2 space group operations
 (whereof  1 operations are pure point group operations),
 and found     2 'primitive' translations

 
 
 KPOINTS: Automatic mesh                          

Automatic generation of k-mesh.
Space group operators:
 irot       det(A)        alpha          n_x          n_y          n_z        tau_x        tau_y        tau_z
    1     1.000000     0.000001     1.000000     0.000000     0.000000     0.000000     0.000000     0.000000
    2     1.000000   180.000000     0.000000     1.000000     0.000000    -0.500000     0.000000    -0.250000
 
 Subroutine IBZKPT returns following result:
 ===========================================
 
 Found     60 irreducible k-points:
 
 Following reciprocal coordinates:
            Coordinates               Weight
  0.000000  0.000000  0.000000      1.000000
  0.166667  0.000000  0.000000      2.000000
  0.333333  0.000000  0.000000      2.000000
  0.500000  0.000000  0.000000      1.000000
  0.000000  0.166667  0.000000      1.000000
  0.166667  0.166667  0.000000      2.000000
  0.333333  0.166667  0.000000      2.000000
  0.500000  0.166667  0.000000      1.000000
  0.000000  0.333333  0.000000      1.000000
  0.166667  0.333333  0.000000      2.000000
  0.333333  0.333333  0.000000      2.000000
  0.500000  0.333333  0.000000      1.000000
  0.000000  0.500000  0.000000      1.000000
  0.166667  0.500000  0.000000      2.000000
  0.333333  0.500000  0.000000      2.000000
  0.500000  0.500000  0.000000      1.000000
  0.000000 -0.333333  0.000000      1.000000
  0.166667 -0.333333  0.000000      2.000000
  0.333333 -0.333333  0.000000      2.000000
  0.500000 -0.333333  0.000000      1.000000
  0.000000 -0.166667  0.000000      1.000000
  0.166667 -0.166667  0.000000      2.000000
  0.333333 -0.166667  0.000000      2.000000
  0.500000 -0.166667  0.000000      1.000000
  0.000000  0.000000  0.333333      2.000000
  0.166667  0.000000  0.333333      2.000000
  0.333333  0.000000  0.333333      2.000000
  0.500000  0.000000  0.333333      2.000000
 -0.333333  0.000000  0.333333      2.000000
 -0.166667  0.000000  0.333333      2.000000
  0.000000  0.166667  0.333333      2.000000
  0.166667  0.166667  0.333333      2.000000
  0.333333  0.166667  0.333333      2.000000
  0.500000  0.166667  0.333333      2.000000
 -0.333333  0.166667  0.333333      2.000000
 -0.166667  0.166667  0.333333      2.000000
  0.000000  0.333333  0.333333      2.000000
  0.166667  0.333333  0.333333      2.000000
  0.333333  0.333333  0.333333      2.000000
  0.500000  0.333333  0.333333      2.000000
 -0.333333  0.333333  0.333333      2.000000
 -0.166667  0.333333  0.333333      2.000000
  0.000000  0.500000  0.333333      2.000000
  0.166667  0.500000  0.333333      2.000000
  0.333333  0.500000  0.333333      2.000000
  0.500000  0.500000  0.333333      2.000000
 -0.333333  0.500000  0.333333      2.000000
 -0.166667  0.500000  0.333333      2.000000
  0.000000 -0.333333  0.333333      2.000000
  0.166667 -0.333333  0.333333      2.000000
  0.333333 -0.333333  0.333333      2.000000
  0.500000 -0.333333  0.333333      2.000000
 -0.333333 -0.333333  0.333333      2.000000
 -0.166667 -0.333333  0.333333      2.000000
  0.000000 -0.166667  0.333333      2.000000
  0.166667 -0.166667  0.333333      2.000000
  0.333333 -0.166667  0.333333      2.000000
  0.500000 -0.166667  0.333333      2.000000
 -0.333333 -0.166667  0.333333      2.000000
 -0.166667 -0.166667  0.333333      2.000000
 
 Following cartesian coordinates:
            Coordinates               Weight
  0.000000  0.000000  0.000000      1.000000
  0.031707  0.000000 -0.000276      2.000000
  0.063415  0.000000 -0.000553      2.000000
  0.095122  0.000000 -0.000829      1.000000
  0.000000  0.031677  0.000000      1.000000
  0.031707  0.031677 -0.000276      2.000000
  0.063415  0.031677 -0.000553      2.000000
  0.095122  0.031677 -0.000829      1.000000
  0.000000  0.063354  0.000000      1.000000
  0.031707  0.063354 -0.000276      2.000000
  0.063415  0.063354 -0.000553      2.000000
  0.095122  0.063354 -0.000829      1.000000
  0.000000  0.095031  0.000000      1.000000
  0.031707  0.095031 -0.000276      2.000000
  0.063415  0.095031 -0.000553      2.000000
  0.095122  0.095031 -0.000829      1.000000
  0.000000 -0.063354  0.000000      1.000000
  0.031707 -0.063354 -0.000276      2.000000
  0.063415 -0.063354 -0.000553      2.000000
  0.095122 -0.063354 -0.000829      1.000000
  0.000000 -0.031677  0.000000      1.000000
  0.031707 -0.031677 -0.000276      2.000000
  0.063415 -0.031677 -0.000553      2.000000
  0.095122 -0.031677 -0.000829      1.000000
 -0.000279  0.000000  0.032040      2.000000
  0.031428  0.000000  0.031764      2.000000
  0.063136  0.000000  0.031487      2.000000
  0.094843  0.000000  0.031211      2.000000
 -0.063694  0.000000  0.032593      2.000000
 -0.031987  0.000000  0.032317      2.000000
 -0.000279  0.031677  0.032040      2.000000
  0.031428  0.031677  0.031764      2.000000
  0.063136  0.031677  0.031487      2.000000
  0.094843  0.031677  0.031211      2.000000
 -0.063694  0.031677  0.032593      2.000000
 -0.031987  0.031677  0.032317      2.000000
 -0.000279  0.063354  0.032040      2.000000
  0.031428  0.063354  0.031764      2.000000
  0.063136  0.063354  0.031487      2.000000
  0.094843  0.063354  0.031211      2.000000
 -0.063694  0.063354  0.032593      2.000000
 -0.031987  0.063354  0.032317      2.000000
 -0.000279  0.095031  0.032040      2.000000
  0.031428  0.095031  0.031764      2.000000
  0.063136  0.095031  0.031487      2.000000
  0.094843  0.095031  0.031211      2.000000
 -0.063694  0.095031  0.032593      2.000000
 -0.031987  0.095031  0.032317      2.000000
 -0.000279 -0.063354  0.032040      2.000000
  0.031428 -0.063354  0.031764      2.000000
  0.063136 -0.063354  0.031487      2.000000
  0.094843 -0.063354  0.031211      2.000000
 -0.063694 -0.063354  0.032593      2.000000
 -0.031987 -0.063354  0.032317      2.000000
 -0.000279 -0.031677  0.032040      2.000000
  0.031428 -0.031677  0.031764      2.000000
  0.063136 -0.031677  0.031487      2.000000
  0.094843 -0.031677  0.031211      2.000000
 -0.063694 -0.031677  0.032593      2.000000
 -0.031987 -0.031677  0.032317      2.000000
 
 TETIRR: Found    648 inequivalent tetrahedra from      648
 
 Subroutine IBZKPT_HF returns following result:
 ==============================================
 
 Found    108 k-points in 1st BZ
 the following    108 k-points will be used (e.g. in the exchange kernel)
 Following reciprocal coordinates:   # in IRBZ
  0.000000  0.000000  0.000000    0.00925926   1 t-inv F
  0.166667  0.000000  0.000000    0.00925926   2 t-inv F
  0.333333  0.000000  0.000000    0.00925926   3 t-inv F
  0.500000  0.000000  0.000000    0.00925926   4 t-inv F
  0.000000  0.166667  0.000000    0.00925926   5 t-inv F
  0.166667  0.166667  0.000000    0.00925926   6 t-inv F
  0.333333  0.166667  0.000000    0.00925926   7 t-inv F
  0.500000  0.166667  0.000000    0.00925926   8 t-inv F
  0.000000  0.333333  0.000000    0.00925926   9 t-inv F
  0.166667  0.333333  0.000000    0.00925926  10 t-inv F
  0.333333  0.333333  0.000000    0.00925926  11 t-inv F
  0.500000  0.333333  0.000000    0.00925926  12 t-inv F
  0.000000  0.500000  0.000000    0.00925926  13 t-inv F
  0.166667  0.500000  0.000000    0.00925926  14 t-inv F
  0.333333  0.500000  0.000000    0.00925926  15 t-inv F
  0.500000  0.500000  0.000000    0.00925926  16 t-inv F
  0.000000 -0.333333  0.000000    0.00925926  17 t-inv F
  0.166667 -0.333333  0.000000    0.00925926  18 t-inv F
  0.333333 -0.333333  0.000000    0.00925926  19 t-inv F
  0.500000 -0.333333  0.000000    0.00925926  20 t-inv F
  0.000000 -0.166667  0.000000    0.00925926  21 t-inv F
  0.166667 -0.166667  0.000000    0.00925926  22 t-inv F
  0.333333 -0.166667  0.000000    0.00925926  23 t-inv F
  0.500000 -0.166667  0.000000    0.00925926  24 t-inv F
  0.000000  0.000000  0.333333    0.00925926  25 t-inv F
  0.166667  0.000000  0.333333    0.00925926  26 t-inv F
  0.333333  0.000000  0.333333    0.00925926  27 t-inv F
  0.500000  0.000000  0.333333    0.00925926  28 t-inv F
 -0.333333  0.000000  0.333333    0.00925926  29 t-inv F
 -0.166667  0.000000  0.333333    0.00925926  30 t-inv F
  0.000000  0.166667  0.333333    0.00925926  31 t-inv F
  0.166667  0.166667  0.333333    0.00925926  32 t-inv F
  0.333333  0.166667  0.333333    0.00925926  33 t-inv F
  0.500000  0.166667  0.333333    0.00925926  34 t-inv F
 -0.333333  0.166667  0.333333    0.00925926  35 t-inv F
 -0.166667  0.166667  0.333333    0.00925926  36 t-inv F
  0.000000  0.333333  0.333333    0.00925926  37 t-inv F
  0.166667  0.333333  0.333333    0.00925926  38 t-inv F
  0.333333  0.333333  0.333333    0.00925926  39 t-inv F
  0.500000  0.333333  0.333333    0.00925926  40 t-inv F
 -0.333333  0.333333  0.333333    0.00925926  41 t-inv F
 -0.166667  0.333333  0.333333    0.00925926  42 t-inv F
  0.000000  0.500000  0.333333    0.00925926  43 t-inv F
  0.166667  0.500000  0.333333    0.00925926  44 t-inv F
  0.333333  0.500000  0.333333    0.00925926  45 t-inv F
  0.500000  0.500000  0.333333    0.00925926  46 t-inv F
 -0.333333  0.500000  0.333333    0.00925926  47 t-inv F
 -0.166667  0.500000  0.333333    0.00925926  48 t-inv F
  0.000000 -0.333333  0.333333    0.00925926  49 t-inv F
  0.166667 -0.333333  0.333333    0.00925926  50 t-inv F
  0.333333 -0.333333  0.333333    0.00925926  51 t-inv F
  0.500000 -0.333333  0.333333    0.00925926  52 t-inv F
 -0.333333 -0.333333  0.333333    0.00925926  53 t-inv F
 -0.166667 -0.333333  0.333333    0.00925926  54 t-inv F
  0.000000 -0.166667  0.333333    0.00925926  55 t-inv F
  0.166667 -0.166667  0.333333    0.00925926  56 t-inv F
  0.333333 -0.166667  0.333333    0.00925926  57 t-inv F
  0.500000 -0.166667  0.333333    0.00925926  58 t-inv F
 -0.333333 -0.166667  0.333333    0.00925926  59 t-inv F
 -0.166667 -0.166667  0.333333    0.00925926  60 t-inv F
 -0.166667  0.000000 -0.000000    0.00925926   2 t-inv F
 -0.333333  0.000000 -0.000000    0.00925926   3 t-inv F
 -0.166667  0.166667 -0.000000    0.00925926   6 t-inv F
 -0.333333  0.166667 -0.000000    0.00925926   7 t-inv F
 -0.166667  0.333333 -0.000000    0.00925926  10 t-inv F
 -0.333333  0.333333 -0.000000    0.00925926  11 t-inv F
 -0.166667  0.500000 -0.000000    0.00925926  14 t-inv F
 -0.333333  0.500000 -0.000000    0.00925926  15 t-inv F
 -0.166667 -0.333333 -0.000000    0.00925926  18 t-inv F
 -0.333333 -0.333333 -0.000000    0.00925926  19 t-inv F
 -0.166667 -0.166667 -0.000000    0.00925926  22 t-inv F
 -0.333333 -0.166667 -0.000000    0.00925926  23 t-inv F
  0.000000  0.000000 -0.333333    0.00925926  25 t-inv F
 -0.166667  0.000000 -0.333333    0.00925926  26 t-inv F
 -0.333333  0.000000 -0.333333    0.00925926  27 t-inv F
 -0.500000  0.000000 -0.333333    0.00925926  28 t-inv F
  0.333333  0.000000 -0.333333    0.00925926  29 t-inv F
  0.166667  0.000000 -0.333333    0.00925926  30 t-inv F
  0.000000  0.166667 -0.333333    0.00925926  31 t-inv F
 -0.166667  0.166667 -0.333333    0.00925926  32 t-inv F
 -0.333333  0.166667 -0.333333    0.00925926  33 t-inv F
 -0.500000  0.166667 -0.333333    0.00925926  34 t-inv F
  0.333333  0.166667 -0.333333    0.00925926  35 t-inv F
  0.166667  0.166667 -0.333333    0.00925926  36 t-inv F
  0.000000  0.333333 -0.333333    0.00925926  37 t-inv F
 -0.166667  0.333333 -0.333333    0.00925926  38 t-inv F
 -0.333333  0.333333 -0.333333    0.00925926  39 t-inv F
 -0.500000  0.333333 -0.333333    0.00925926  40 t-inv F
  0.333333  0.333333 -0.333333    0.00925926  41 t-inv F
  0.166667  0.333333 -0.333333    0.00925926  42 t-inv F
  0.000000  0.500000 -0.333333    0.00925926  43 t-inv F
 -0.166667  0.500000 -0.333333    0.00925926  44 t-inv F
 -0.333333  0.500000 -0.333333    0.00925926  45 t-inv F
 -0.500000  0.500000 -0.333333    0.00925926  46 t-inv F
  0.333333  0.500000 -0.333333    0.00925926  47 t-inv F
  0.166667  0.500000 -0.333333    0.00925926  48 t-inv F
  0.000000 -0.333333 -0.333333    0.00925926  49 t-inv F
 -0.166667 -0.333333 -0.333333    0.00925926  50 t-inv F
 -0.333333 -0.333333 -0.333333    0.00925926  51 t-inv F
 -0.500000 -0.333333 -0.333333    0.00925926  52 t-inv F
  0.333333 -0.333333 -0.333333    0.00925926  53 t-inv F
  0.166667 -0.333333 -0.333333    0.00925926  54 t-inv F
  0.000000 -0.166667 -0.333333    0.00925926  55 t-inv F
 -0.166667 -0.166667 -0.333333    0.00925926  56 t-inv F
 -0.333333 -0.166667 -0.333333    0.00925926  57 t-inv F
 -0.500000 -0.166667 -0.333333    0.00925926  58 t-inv F
  0.333333 -0.166667 -0.333333    0.00925926  59 t-inv F
  0.166667 -0.166667 -0.333333    0.00925926  60 t-inv F


--------------------------------------------------------------------------------------------------------




 Dimension of arrays:
   k-points           NKPTS =     60   k-points in BZ     NKDIM =     60   number of bands    NBANDS=    256
   number of dos      NEDOS =    301   number of ions     NIONS =     16
   non local maximal  LDIM  =      6   non local SUM 2l+1 LMDIM =     18
   total plane-waves  NPLWV = 207360
   max r-space proj   IRMAX =      1   max aug-charges    IRDMAX=  22901
   dimension x,y,z NGX =    48 NGY =   48 NGZ =   90
   dimension x,y,z NGXF=    96 NGYF=   96 NGZF=  180
   support grid    NGXF=    96 NGYF=   96 NGZF=  180
   ions per type =               8   4   4
   NGX,Y,Z   is equivalent  to a cutoff of  15.18, 15.17, 14.38 a.u.
   NGXF,Y,Z  is equivalent  to a cutoff of  30.36, 30.33, 28.76 a.u.

 SYSTEM =  CuFeS2                                  
 POSCAR =  Fe4 Cu4 S8                              

 Startparameter for this run:
   NWRITE =      2    write-flag & timer
   PREC   = accura    normal or accurate (medium, high low for compatibility)
   ISTART =      1    job   : 0-new  1-cont  2-samecut
   ICHARG =      1    charge: 1-file 2-atom 10-const
   ISPIN  =      1    spin polarized calculation?
   LNONCOLLINEAR =      T non collinear calculations
   LSORBIT =      T    spin-orbit coupling
   INIWAV =      1    electr: 0-lowe 1-rand  2-diag
   LASPH  =      T    aspherical Exc in radial PAW
   METAGGA=      F    non-selfconsistent MetaGGA calc.

 Electronic Relaxation 1
   ENCUT  =  700.0 eV  51.45 Ry    7.17 a.u.  11.34 11.35 22.45*2*pi/ulx,y,z
   ENINI  =  700.0     initial cutoff
   ENAUG  =  758.2 eV  augmentation charge cutoff
   NELM   =    200;   NELMIN=  2; NELMDL=  0     # of ELM steps 
   EDIFF  = 0.1E-07   stopping-criterion for ELM
   LREAL  =      F    real-space projection
   NLSPLINE    = F    spline interpolate recip. space projectors
   LCOMPAT=      F    compatible to vasp.4.4
   GGA_COMPAT  = T    GGA compatible to vasp.4.4-vasp.4.6
   LMAXPAW     = -100 max onsite density
   LMAXMIX     =    4 max onsite mixed and CHGCAR
   VOSKOWN=      0    Vosko Wilk Nusair interpolation
   ROPT   =    0.00000   0.00000   0.00000
 Ionic relaxation
   EDIFFG = -.1E-04   stopping-criterion for IOM
   NSW    =      0    number of steps for IOM
   NBLOCK =      1;   KBLOCK =      1    inner block; outer block 
   IBRION =     -1    ionic relax: 0-MD 1-quasi-New 2-CG
   NFREE  =      0    steps in history (QN), initial steepest desc. (CG)
   ISIF   =      2    stress and relaxation
   IWAVPR =     10    prediction:  0-non 1-charg 2-wave 3-comb
   ISYM   =      2    0-nonsym 1-usesym 2-fastsym
   LCORR  =      T    Harris-Foulkes like correction to forces

   POTIM  = 0.5000    time-step for ionic-motion
   TEIN   =    0.0    initial temperature
   TEBEG  =    0.0;   TEEND  =   0.0 temperature during run
   SMASS  =  -3.00    Nose mass-parameter (am)
   estimated Nose-frequenzy (Omega)   =  0.10E-29 period in steps =****** mass=  -0.632E-27a.u.
   SCALEE = 1.0000    scale energy and forces
   NPACO  =    256;   APACO  = 16.0  distance and # of slots for P.C.
   PSTRESS=    0.0 pullay stress

  Mass of Ions in am
   POMASS =  32.07 63.55 55.85
  Ionic Valenz
   ZVAL   =   6.00 17.00 14.00
  Atomic Wigner-Seitz radii
   RWIGS  =  -1.00 -1.00 -1.00
  virtual crystal weights 
   VCA    =   1.00  1.00  1.00
   NELECT =     172.0000    total number of electrons
   NUPDOWN=      -1.0000    fix difference up-down

 DOS related values:
   EMIN   =  10.00;   EMAX   =-10.00  energy-range for DOS
   EFERMI =   0.00
   ISMEAR =    -5;   SIGMA  =   0.03  broadening in eV -4-tet -1-fermi 0-gaus

 Electronic relaxation 2 (details)
   IALGO  =     38    algorithm
   LDIAG  =      T    sub-space diagonalisation (order eigenvalues)
   LSUBROT=      F    optimize rotation matrix (better conditioning)
   TURBO    =      0    0=normal 1=particle mesh
   IRESTART =      0    0=no restart 2=restart with 2 vectors
   NREBOOT  =      0    no. of reboots
   NMIN     =      0    reboot dimension
   EREF     =   0.00    reference energy to select bands
   IMIX   =      4    mixing-type and parameters
     AMIX     =   0.40;   BMIX     =  1.00
     AMIX_MAG =   1.60;   BMIX_MAG =  1.00
     AMIN     =   0.10
     WC   =   100.;   INIMIX=   1;  MIXPRE=   1;  MAXMIX= -45

 Intra band minimization:
   WEIMIN = 0.0000     energy-eigenvalue tresh-hold
   EBREAK =  0.98E-11  absolut break condition
   DEPER  =   0.30     relativ break condition  

   TIME   =   0.40     timestep for ELM

  volume/ion in A,a.u.               =      17.98       121.36
  Fermi-wavevector in a.u.,A,eV,Ry     =   1.379056  2.606038 25.875489  1.901795
  Thomas-Fermi vector in A             =   2.504060
 
 Write flags
   LWAVE        =      T    write WAVECAR
   LDOWNSAMPLE  =      F    k-point downsampling of WAVECAR
   LCHARG       =      T    write CHGCAR
   LVTOT        =      F    write LOCPOT, total local potential
   LVHAR        =      F    write LOCPOT, Hartree potential only
   LELF         =      F    write electronic localiz. function (ELF)
   LORBIT       =     11    0 simple, 1 ext, 2 COOP (PROOUT), +10 PAW based schemes


 Dipole corrections
   LMONO  =      F    monopole corrections only (constant potential shift)
   LDIPOL =      F    correct potential (dipole corrections)
   IDIPOL =      0    1-x, 2-y, 3-z, 4-all directions 
   EPSILON=  1.0000000 bulk dielectric constant

 LDA+U is selected, type is set to LDAUTYPE =  2
   angular momentum for each species LDAUL =     2    2    2
   U (eV)           for each species LDAUU =   0.0  0.1  4.7
   J (eV)           for each species LDAUJ =   0.0  0.0  0.0
 Exchange correlation treatment:
   GGA     =    PS    GGA type
   LEXCH   =    14    internal setting for exchange type
   VOSKOWN=      0    Vosko Wilk Nusair interpolation
   LHFCALC =     F    Hartree Fock is set to
   LHFONE  =     F    Hartree Fock one center treatment
   AEXX    =    0.0000 exact exchange contribution

 Linear response parameters
   LEPSILON=     F    determine dielectric tensor
   LRPA    =     F    only Hartree local field effects (RPA)
   LNABLA  =     F    use nabla operator in PAW spheres
   LVEL    =     F    velocity operator in full k-point grid
   LINTERFAST=   F  fast interpolation
   KINTER  =     0    interpolate to denser k-point grid
   CSHIFT  =0.1000    complex shift for real part using Kramers Kronig
   OMEGAMAX=  -1.0    maximum frequency
   DEG_THRESHOLD= 0.2000000E-02 threshold for treating states as degnerate
   RTIME   =   -0.100 relaxation time in fs
  (WPLASMAI=    0.000 imaginary part of plasma frequency in eV, 0.658/RTIME)
   DFIELD  = 0.0000000 0.0000000 0.0000000 field for delta impulse in time
 
 Orbital magnetization related:
   ORBITALMAG=     F  switch on orbital magnetization
   LCHIMAG   =     F  perturbation theory with respect to B field
   DQ        =  0.001000  dq finite difference perturbation B field
   LLRAUG    =     F  two centre corrections for induced B field

 PEAD related settings:
   LPEAD      =     T    switch on PEAD
   IPEAD      =     4    finite difference order for dpsi/dk
   LCALCPOL   =     T    calculate macroscopic polarization
   LCALCEPS   =     F    calculate dielectric tensor
   EFIELD_PEAD=    0.0000    0.0000    0.0000
   SKIP_EDOTP =     F
   LRPA       =     F
   SKIP_SCF   =     F


--------------------------------------------------------------------------------------------------------


 Static calculation
 charge density and potential will be updated during run
 non collinear spin polarized calculation
 Variant of blocked Davidson
 Davidson routine will perform the subspace rotation
 perform sub-space diagonalisation
    after iterative eigenvector-optimisation
 modified Broyden-mixing scheme, WC =      100.0
 initial mixing is a Kerker type mixing with AMIX =  0.4000 and BMIX =      1.0000
 Hartree-type preconditioning will be used
 using additional bands          170
 reciprocal scheme for non local part
 use partial core corrections
 calculate Harris-corrections to forces 
   (improved forces if not selfconsistent)
 use gradient corrections 
 use of overlap-Matrix (Vanderbilt PP)
 Fermi weights with tetrahedron method with Bloechl corrections


--------------------------------------------------------------------------------------------------------


  energy-cutoff  :      700.00
  volume of cell :      287.74
      direct lattice vectors                 reciprocal lattice vectors
     5.256785000  0.000000000  0.045833000     0.190244803  0.000000000 -0.001658731
     0.000000000  5.261436188  0.000000000     0.000000000  0.190062174  0.000000000
     0.090715000  0.000000000 10.404374000    -0.000838060  0.000000000  0.096120730

  length of vectors
     5.256984801  5.261436188 10.404769461     0.190252034  0.190062174  0.096124383


 
 old parameters found on file WAVECAR:
  energy-cutoff  :      700.00
  volume of cell :      287.60
      direct lattice vectors                 reciprocal lattice vectors
     5.256785000  0.000000000  0.045833000     0.190244803  0.000000000 -0.001658731
     0.000000000  5.258786000  0.000000000     0.000000000  0.190157957  0.000000000
     0.090715000  0.000000000 10.404374000    -0.000838060  0.000000000  0.096120730

  length of vectors

 
 k-points in units of 2pi/SCALE and weight: Automatic mesh                          
   0.00000000  0.00000000  0.00000000       0.009
   0.03170747  0.00000000 -0.00027646       0.019
   0.06341493  0.00000000 -0.00055291       0.019
   0.09512240  0.00000000 -0.00082937       0.009
   0.00000000  0.03167703  0.00000000       0.009
   0.03170747  0.03167703 -0.00027646       0.019
   0.06341493  0.03167703 -0.00055291       0.019
   0.09512240  0.03167703 -0.00082937       0.009
   0.00000000  0.06335406  0.00000000       0.009
   0.03170747  0.06335406 -0.00027646       0.019
   0.06341493  0.06335406 -0.00055291       0.019
   0.09512240  0.06335406 -0.00082937       0.009
   0.00000000  0.09503109  0.00000000       0.009
   0.03170747  0.09503109 -0.00027646       0.019
   0.06341493  0.09503109 -0.00055291       0.019
   0.09512240  0.09503109 -0.00082937       0.009
   0.00000000 -0.06335406  0.00000000       0.009
   0.03170747 -0.06335406 -0.00027646       0.019
   0.06341493 -0.06335406 -0.00055291       0.019
   0.09512240 -0.06335406 -0.00082937       0.009
   0.00000000 -0.03167703  0.00000000       0.009
   0.03170747 -0.03167703 -0.00027646       0.019
   0.06341493 -0.03167703 -0.00055291       0.019
   0.09512240 -0.03167703 -0.00082937       0.009
  -0.00027935  0.00000000  0.03204024       0.019
   0.03142811  0.00000000  0.03176379       0.019
   0.06313558  0.00000000  0.03148733       0.019
   0.09484305  0.00000000  0.03121088       0.019
  -0.06369429  0.00000000  0.03259315       0.019
  -0.03198682  0.00000000  0.03231670       0.019
  -0.00027935  0.03167703  0.03204024       0.019
   0.03142811  0.03167703  0.03176379       0.019
   0.06313558  0.03167703  0.03148733       0.019
   0.09484305  0.03167703  0.03121088       0.019
  -0.06369429  0.03167703  0.03259315       0.019
  -0.03198682  0.03167703  0.03231670       0.019
  -0.00027935  0.06335406  0.03204024       0.019
   0.03142811  0.06335406  0.03176379       0.019
   0.06313558  0.06335406  0.03148733       0.019
   0.09484305  0.06335406  0.03121088       0.019
  -0.06369429  0.06335406  0.03259315       0.019
  -0.03198682  0.06335406  0.03231670       0.019
  -0.00027935  0.09503109  0.03204024       0.019
   0.03142811  0.09503109  0.03176379       0.019
   0.06313558  0.09503109  0.03148733       0.019
   0.09484305  0.09503109  0.03121088       0.019
  -0.06369429  0.09503109  0.03259315       0.019
  -0.03198682  0.09503109  0.03231670       0.019
  -0.00027935 -0.06335406  0.03204024       0.019
   0.03142811 -0.06335406  0.03176379       0.019
   0.06313558 -0.06335406  0.03148733       0.019
   0.09484305 -0.06335406  0.03121088       0.019
  -0.06369429 -0.06335406  0.03259315       0.019
  -0.03198682 -0.06335406  0.03231670       0.019
  -0.00027935 -0.03167703  0.03204024       0.019
   0.03142811 -0.03167703  0.03176379       0.019
   0.06313558 -0.03167703  0.03148733       0.019
   0.09484305 -0.03167703  0.03121088       0.019
  -0.06369429 -0.03167703  0.03259315       0.019
  -0.03198682 -0.03167703  0.03231670       0.019
 
 k-points in reciprocal lattice and weights: Automatic mesh                          
   0.00000000  0.00000000  0.00000000       0.009
   0.16666667  0.00000000  0.00000000       0.019
   0.33333333  0.00000000  0.00000000       0.019
   0.50000000  0.00000000  0.00000000       0.009
   0.00000000  0.16666667  0.00000000       0.009
   0.16666667  0.16666667  0.00000000       0.019
   0.33333333  0.16666667  0.00000000       0.019
   0.50000000  0.16666667  0.00000000       0.009
   0.00000000  0.33333333  0.00000000       0.009
   0.16666667  0.33333333  0.00000000       0.019
   0.33333333  0.33333333  0.00000000       0.019
   0.50000000  0.33333333  0.00000000       0.009
   0.00000000  0.50000000  0.00000000       0.009
   0.16666667  0.50000000  0.00000000       0.019
   0.33333333  0.50000000  0.00000000       0.019
   0.50000000  0.50000000  0.00000000       0.009
   0.00000000 -0.33333333  0.00000000       0.009
   0.16666667 -0.33333333  0.00000000       0.019
   0.33333333 -0.33333333  0.00000000       0.019
   0.50000000 -0.33333333  0.00000000       0.009
   0.00000000 -0.16666667  0.00000000       0.009
   0.16666667 -0.16666667  0.00000000       0.019
   0.33333333 -0.16666667  0.00000000       0.019
   0.50000000 -0.16666667  0.00000000       0.009
   0.00000000  0.00000000  0.33333333       0.019
   0.16666667  0.00000000  0.33333333       0.019
   0.33333333  0.00000000  0.33333333       0.019
   0.50000000  0.00000000  0.33333333       0.019
  -0.33333333  0.00000000  0.33333333       0.019
  -0.16666667  0.00000000  0.33333333       0.019
   0.00000000  0.16666667  0.33333333       0.019
   0.16666667  0.16666667  0.33333333       0.019
   0.33333333  0.16666667  0.33333333       0.019
   0.50000000  0.16666667  0.33333333       0.019
  -0.33333333  0.16666667  0.33333333       0.019
  -0.16666667  0.16666667  0.33333333       0.019
   0.00000000  0.33333333  0.33333333       0.019
   0.16666667  0.33333333  0.33333333       0.019
   0.33333333  0.33333333  0.33333333       0.019
   0.50000000  0.33333333  0.33333333       0.019
  -0.33333333  0.33333333  0.33333333       0.019
  -0.16666667  0.33333333  0.33333333       0.019
   0.00000000  0.50000000  0.33333333       0.019
   0.16666667  0.50000000  0.33333333       0.019
   0.33333333  0.50000000  0.33333333       0.019
   0.50000000  0.50000000  0.33333333       0.019
  -0.33333333  0.50000000  0.33333333       0.019
  -0.16666667  0.50000000  0.33333333       0.019
   0.00000000 -0.33333333  0.33333333       0.019
   0.16666667 -0.33333333  0.33333333       0.019
   0.33333333 -0.33333333  0.33333333       0.019
   0.50000000 -0.33333333  0.33333333       0.019
  -0.33333333 -0.33333333  0.33333333       0.019
  -0.16666667 -0.33333333  0.33333333       0.019
   0.00000000 -0.16666667  0.33333333       0.019
   0.16666667 -0.16666667  0.33333333       0.019
   0.33333333 -0.16666667  0.33333333       0.019
   0.50000000 -0.16666667  0.33333333       0.019
  -0.33333333 -0.16666667  0.33333333       0.019
  -0.16666667 -0.16666667  0.33333333       0.019
 
 position of ions in fractional coordinates (direct lattice) 
   0.25240756  0.24781857  0.12519422
   0.74759244  0.74781857  0.12480578
   0.25000000  0.74609531  0.87500000
   0.75000000  0.25084414  0.87500000
   0.24759244  0.24781857  0.62480578
   0.75240756  0.74781857  0.62519422
   0.75000000  0.24609531  0.37500000
   0.25000000  0.75084414  0.37500000
   0.99930843  0.00187196  0.50000087
   0.50069157  0.00187196  0.24999913
   0.49930843  0.50187196  0.00000087
   0.00069157  0.50187196  0.74999913
   0.99967724  0.00183975  0.00001868
   0.50032276  0.00183975  0.74998132
   0.49967724  0.50183975  0.50001868
   0.00032276  0.50183975  0.24998132
 
 position of ions in cartesian coordinates  (Angst):
   1.33820928  1.30388159  1.31413608
   3.94125447  3.93459968  1.33279042
   1.39357187  3.92553288  9.11528550
   4.02196437  1.31980043  9.13820200
   1.35821947  1.30388159  6.51206092
   4.01195928  3.93459968  6.53923958
   3.97660687  1.29481478  3.93601500
   1.34821437  3.95051852  3.91309850
   5.29850716  0.00984919  5.24799737
   2.65470659  0.00984919  2.62403263
   2.62475716  2.64056729  0.02289387
   0.07167159  2.64056729  7.80330313
   5.25508999  0.00967971  0.04601251
   2.69812376  0.00967971  7.82601749
   2.67205499  2.64039780  5.22528301
   0.02437376  2.64039780  2.60091399
 
 Euler angles ALPHA=     0.0000000  BETA=     0.0000000

 transformation matrix from SAXIS to cartesian coordinates
 ---------------------------------------------------------
     1.0000000 m_x     0.0000000 m_y     0.0000000 m_z
     0.0000000 m_x     1.0000000 m_y     0.0000000 m_z
     0.0000000 m_x     0.0000000 m_y     1.0000000 m_z

 transformation matrix from cartesian coordinates to SAXIS
 ---------------------------------------------------------
     1.0000000 m_x     0.0000000 m_y     0.0000000 m_z
     0.0000000 m_x     1.0000000 m_y     0.0000000 m_z
     0.0000000 m_x     0.0000000 m_y     1.0000000 m_z




--------------------------------------------------------------------------------------------------------


 k-point  1 :   0.0000 0.0000 0.0000  plane waves:   24218
 k-point  2 :   0.1667 0.0000 0.0000  plane waves:   24228
 k-point  3 :   0.3333 0.0000 0.0000  plane waves:   24174
 k-point  4 :   0.5000 0.0000 0.0000  plane waves:   24240
 k-point  5 :   0.0000 0.1667 0.0000  plane waves:   24214
 k-point  6 :   0.1667 0.1667 0.0000  plane waves:   24218
 k-point  7 :   0.3333 0.1667 0.0000  plane waves:   24182
 k-point  8 :   0.5000 0.1667 0.0000  plane waves:   24224
 k-point  9 :   0.0000 0.3333 0.0000  plane waves:   24230
 k-point 10 :   0.1667 0.3333 0.0000  plane waves:   24230
 k-point 11 :   0.3333 0.3333 0.0000  plane waves:   24184
 k-point 12 :   0.5000 0.3333 0.0000  plane waves:   24160
 k-point 13 :   0.0000 0.5000 0.0000  plane waves:   24244
 k-point 14 :   0.1667 0.5000 0.0000  plane waves:   24212
 k-point 15 :   0.3333 0.5000 0.0000  plane waves:   24196
 k-point 16 :   0.5000 0.5000 0.0000  plane waves:   24176
 k-point 17 :   0.0000-0.3333 0.0000  plane waves:   24230
 k-point 18 :   0.1667-0.3333 0.0000  plane waves:   24230
 k-point 19 :   0.3333-0.3333 0.0000  plane waves:   24184
 k-point 20 :   0.5000-0.3333 0.0000  plane waves:   24160
 k-point 21 :   0.0000-0.1667 0.0000  plane waves:   24214
 k-point 22 :   0.1667-0.1667 0.0000  plane waves:   24218
 k-point 23 :   0.3333-0.1667 0.0000  plane waves:   24182
 k-point 24 :   0.5000-0.1667 0.0000  plane waves:   24224
 k-point 25 :   0.0000 0.0000 0.3333  plane waves:   24220
 k-point 26 :   0.1667 0.0000 0.3333  plane waves:   24202
 k-point 27 :   0.3333 0.0000 0.3333  plane waves:   24228
 k-point 28 :   0.5000 0.0000 0.3333  plane waves:   24258
 k-point 29 :  -0.3333 0.0000 0.3333  plane waves:   24214
 k-point 30 :  -0.1667 0.0000 0.3333  plane waves:   24218
 k-point 31 :   0.0000 0.1667 0.3333  plane waves:   24226
 k-point 32 :   0.1667 0.1667 0.3333  plane waves:   24216
 k-point 33 :   0.3333 0.1667 0.3333  plane waves:   24190
 k-point 34 :   0.5000 0.1667 0.3333  plane waves:   24242
 k-point 35 :  -0.3333 0.1667 0.3333  plane waves:   24190
 k-point 36 :  -0.1667 0.1667 0.3333  plane waves:   24212
 k-point 37 :   0.0000 0.3333 0.3333  plane waves:   24194
 k-point 38 :   0.1667 0.3333 0.3333  plane waves:   24186
 k-point 39 :   0.3333 0.3333 0.3333  plane waves:   24150
 k-point 40 :   0.5000 0.3333 0.3333  plane waves:   24174
 k-point 41 :  -0.3333 0.3333 0.3333  plane waves:   24194
 k-point 42 :  -0.1667 0.3333 0.3333  plane waves:   24200
 k-point 43 :   0.0000 0.5000 0.3333  plane waves:   24240
 k-point 44 :   0.1667 0.5000 0.3333  plane waves:   24216
 k-point 45 :   0.3333 0.5000 0.3333  plane waves:   24160
 k-point 46 :   0.5000 0.5000 0.3333  plane waves:   24088
 k-point 47 :  -0.3333 0.5000 0.3333  plane waves:   24148
 k-point 48 :  -0.1667 0.5000 0.3333  plane waves:   24232
 k-point 49 :   0.0000-0.3333 0.3333  plane waves:   24194
 k-point 50 :   0.1667-0.3333 0.3333  plane waves:   24186
 k-point 51 :   0.3333-0.3333 0.3333  plane waves:   24150
 k-point 52 :   0.5000-0.3333 0.3333  plane waves:   24174
 k-point 53 :  -0.3333-0.3333 0.3333  plane waves:   24194
 k-point 54 :  -0.1667-0.3333 0.3333  plane waves:   24200
 k-point 55 :   0.0000-0.1667 0.3333  plane waves:   24226
 k-point 56 :   0.1667-0.1667 0.3333  plane waves:   24216
 k-point 57 :   0.3333-0.1667 0.3333  plane waves:   24190
 k-point 58 :   0.5000-0.1667 0.3333  plane waves:   24242
 k-point 59 :  -0.3333-0.1667 0.3333  plane waves:   24190
 k-point 60 :  -0.1667-0.1667 0.3333  plane waves:   24212

 maximum and minimum number of plane-waves per node :     24258    24088

 maximum number of plane-waves:     24258
 maximum index in each direction: 
   IXMAX=   11   IYMAX=   11   IZMAX=   22
   IXMIN=  -11   IYMIN=  -11   IZMIN=  -22


 serial   3D FFT for wavefunctions
 parallel 3D FFT for charge:
    minimum data exchange during FFTs selected (reduces bandwidth)


 total amount of memory used by VASP MPI-rank0   410429. kBytes
=======================================================================

   base      :      30000. kBytes
   nonl-proj :     321650. kBytes
   fftplans  :       2735. kBytes
   grid      :      30965. kBytes
   one-center:        995. kBytes
   wavefun   :      24084. kBytes
 
     INWAV:  cpu time   15.9131: real time   16.0876
 Broyden mixing: mesh for mixing (old mesh)
   NGX = 23   NGY = 23   NGZ = 45
  (NGX  = 96   NGY  = 96   NGZ  =180)
  gives a total of  23805 points

 initial charge density was supplied:
 number of electron     172.0000108 magnetization       0.0000000      0.0000026     -0.0000000
 keeping initial charge density in first step


--------------------------------------------------------------------------------------------------------


 Maximum index for augmentation-charges          895 (set IRDMAX)


--------------------------------------------------------------------------------------------------------


 First call to EWALD:  gamma=   0.268
 Maximum number of real-space cells 3x 3x 2
 Maximum number of reciprocal cells 2x 2x 4

    FEWALD:  cpu time    0.0021: real time    0.0021


--------------------------------------- Iteration      1(   1)  ---------------------------------------


    POTLOK:  cpu time    0.2804: real time    0.2919
    SETDIJ:  cpu time    0.6016: real time    0.6040
     EDDAV:  cpu time   79.1756: real time   79.6390
 BZINTS: Fermi energy:  4.910412;172.000000 electrons
         Band energy:***********;  BLOECHL correction:  0.000000
       DOS:  cpu time    0.0394: real time    0.0396
    CHARGE:  cpu time    1.4754: real time    1.4875
    MIXING:  cpu time    0.0029: real time    0.0029
    --------------------------------------------
      LOOP:  cpu time   81.5754: real time   82.0649

 eigenvalue-minimisations  : 30720
 total energy-change (2. order) :-0.8225028E+02  (-0.1934198E+00)
 number of electron     172.0000108 magnetization       0.0000000      0.0000799     -0.0000000
 augmentation part       70.5550545 magnetization       0.0000000     -0.0000911     -0.0000000

 Broyden mixing:
  rms(total) = 0.79082E-01    rms(broyden)= 0.79082E-01
  rms(prec ) = 0.79142E-01
  weight for this iteration     100.00

 Free energy of the ion-electron system (eV)
  ---------------------------------------------------
  alpha Z        PSCENC =       588.87916559
  Ewald energy   TEWEN  =    -15615.58423096
  -Hartree energ DENC   =    -10739.85534005
  -exchange      EXHF   =         0.00000000
  -V(xc)+E(xc)   XCENC  =       821.62730736
  PAW double counting   =     28068.17567256   -28991.63296803
  entropy T*S    EENTRO =         0.00000000
  eigenvalues    EBANDS =     -2718.87616422
  atomic energy  EATOM  =     28505.01627691
  Solvation  Ediel_sol  =         0.00000000
  ---------------------------------------------------
  free energy    TOTEN  =       -82.25028084 eV

  energy without entropy =      -82.25028084  energy(sigma->0) =      -82.25028084


--------------------------------------------------------------------------------------------------------




--------------------------------------- Iteration      1(   2)  ---------------------------------------


    POTLOK:  cpu time    0.1267: real time    0.1309
    SETDIJ:  cpu time    0.5998: real time    0.6016
     EDDAV:  cpu time   82.3448: real time   82.7771
 BZINTS: Fermi energy:  4.867322;172.000000 electrons
         Band energy:***********;  BLOECHL correction:  0.000000
       DOS:  cpu time    0.0390: real time    0.0391
    CHARGE:  cpu time    1.4768: real time    1.4895
    MIXING:  cpu time    0.0024: real time    0.0115
    --------------------------------------------
      LOOP:  cpu time   84.5895: real time   85.0497

 eigenvalue-minimisations  : 30720
 total energy-change (2. order) :-0.8854542E-02  (-0.6450381E-02)
 number of electron     172.0000108 magnetization       0.0000000      0.0000920     -0.0000000
 augmentation part       70.5557529 magnetization       0.0000000      0.0000220     -0.0000000

 Broyden mixing:
  rms(total) = 0.47342E-01    rms(broyden)= 0.47342E-01
  rms(prec ) = 0.47642E-01
  weight for this iteration     100.00

 eigenvalues of (default mixing * dielectric matrix)
  average eigenvalue GAMMA=   0.6354
  0.6354

 Free energy of the ion-electron system (eV)
  ---------------------------------------------------
  alpha Z        PSCENC =       588.87916559
  Ewald energy   TEWEN  =    -15615.58423096
  -Hartree energ DENC   =    -10739.57879490
  -exchange      EXHF   =         0.00000000
  -V(xc)+E(xc)   XCENC  =       821.61357964
  PAW double counting   =     28069.08990083   -28992.52276650
  entropy T*S    EENTRO =         0.00000000
  eigenvalues    EBANDS =     -2719.17226599
  atomic energy  EATOM  =     28505.01627691
  Solvation  Ediel_sol  =         0.00000000
  ---------------------------------------------------
  free energy    TOTEN  =       -82.25913538 eV

  energy without entropy =      -82.25913538  energy(sigma->0) =      -82.25913538


--------------------------------------------------------------------------------------------------------




--------------------------------------- Iteration      1(   3)  ---------------------------------------


    POTLOK:  cpu time    0.1330: real time    0.1338
    SETDIJ:  cpu time    0.5984: real time    0.6003
     EDDAV:  cpu time  335.3853: real time  337.5988
 BZINTS: Fermi energy:  4.830625;172.000000 electrons
         Band energy:***********;  BLOECHL correction:  0.000000
       DOS:  cpu time    0.0400: real time    0.0401
    CHARGE:  cpu time    1.6643: real time    1.7434
    MIXING:  cpu time    0.0026: real time    0.0467
    --------------------------------------------
      LOOP:  cpu time  337.8236: real time  340.1632

 eigenvalue-minimisations  : 57600
 total energy-change (2. order) :-0.1133290E-02  (-0.1650040E-02)
 number of electron     172.0000108 magnetization       0.0000000      0.0001773     -0.0000000
 augmentation part       70.5568981 magnetization       0.0000000     -0.0003994     -0.0000000

 Broyden mixing:
  rms(total) = 0.14206E-01    rms(broyden)= 0.14206E-01
  rms(prec ) = 0.15276E-01
  weight for this iteration     100.00

 eigenvalues of (default mixing * dielectric matrix)
  average eigenvalue GAMMA=   0.5924
  0.6680  0.5168

 Free energy of the ion-electron system (eV)
  ---------------------------------------------------
  alpha Z        PSCENC =       588.87916559
  Ewald energy   TEWEN  =    -15615.58423096
  -Hartree energ DENC   =    -10739.75102991
  -exchange      EXHF   =         0.00000000
  -V(xc)+E(xc)   XCENC  =       821.62218020
  PAW double counting   =     28069.82097087   -28993.27281638
  entropy T*S    EENTRO =         0.00000000
  eigenvalues    EBANDS =     -2718.99078499
  atomic energy  EATOM  =     28505.01627691
  Solvation  Ediel_sol  =         0.00000000
  ---------------------------------------------------
  free energy    TOTEN  =       -82.26026867 eV

  energy without entropy =      -82.26026867  energy(sigma->0) =      -82.26026867


--------------------------------------------------------------------------------------------------------




--------------------------------------- Iteration      1(   4)  ---------------------------------------


    POTLOK:  cpu time    0.1423: real time    0.1780
    SETDIJ:  cpu time    0.5928: real time    0.5947
     EDDAV:  cpu time   89.3310: real time   89.7982
 BZINTS: Fermi energy:  4.814558;172.000000 electrons
         Band energy:***********;  BLOECHL correction:  0.000000
       DOS:  cpu time    0.0401: real time    0.0402
    CHARGE:  cpu time    1.4723: real time    1.4844
    MIXING:  cpu time    0.0023: real time    0.0029
    --------------------------------------------
      LOOP:  cpu time   91.5806: real time   92.0984

 eigenvalue-minimisations  : 31488
 total energy-change (2. order) :-0.1265344E-04  (-0.2709476E-02)
 number of electron     172.0000108 magnetization       0.0000000      0.0000623     -0.0000000
 augmentation part       70.5557507 magnetization       0.0000000      0.0004199     -0.0000000

 Broyden mixing:
  rms(total) = 0.14032E-01    rms(broyden)= 0.14032E-01
  rms(prec ) = 0.14662E-01
  weight for this iteration     100.00

 eigenvalues of (default mixing * dielectric matrix)
  average eigenvalue GAMMA=   0.7576
  1.3604  0.6265  0.2858

 Free energy of the ion-electron system (eV)
  ---------------------------------------------------
  alpha Z        PSCENC =       588.87916559
  Ewald energy   TEWEN  =    -15615.58423096
  -Hartree energ DENC   =    -10739.58840391
  -exchange      EXHF   =         0.00000000
  -V(xc)+E(xc)   XCENC  =       821.61139768
  PAW double counting   =     28070.29887133   -28993.75681619
  entropy T*S    EENTRO =         0.00000000
  eigenvalues    EBANDS =     -2719.13654176
  atomic energy  EATOM  =     28505.01627691
  Solvation  Ediel_sol  =         0.00000000
  ---------------------------------------------------
  free energy    TOTEN  =       -82.26028133 eV

  energy without entropy =      -82.26028133  energy(sigma->0) =      -82.26028133


--------------------------------------------------------------------------------------------------------




--------------------------------------- Iteration      1(   5)  ---------------------------------------


    POTLOK:  cpu time    0.1295: real time    0.1304
    SETDIJ:  cpu time    0.5994: real time    0.6016
     EDDAV:  cpu time  342.1213: real time  343.7455
 BZINTS: Fermi energy:  4.813357;172.000000 electrons
         Band energy:***********;  BLOECHL correction:  0.000000
       DOS:  cpu time    0.0401: real time    0.0403
 


 total charge     
 
# of ion       s       p       d       tot
------------------------------------------
    1        1.314   2.410   0.000   3.724
    2        1.313   2.410   0.000   3.724
    3        1.314   2.409   0.000   3.723
    4        1.313   2.411   0.000   3.724
    5        1.313   2.410   0.000   3.724
    6        1.314   2.410   0.000   3.724
    7        1.314   2.409   0.000   3.723
    8        1.313   2.411   0.000   3.724
    9        0.260   6.203   8.917  15.379
   10        0.260   6.203   8.917  15.379
   11        0.260   6.203   8.917  15.379
   12        0.260   6.203   8.917  15.379
   13        0.350   6.351   5.821  12.522
   14        0.350   6.351   5.821  12.522
   15        0.350   6.351   5.821  12.522
   16        0.350   6.351   5.821  12.522
--------------------------------------------------
tot         12.947  69.495  58.950 141.391
 


 magnetization (x)
 
# of ion       s       p       d       tot
------------------------------------------
    1       -0.000  -0.000   0.000  -0.000
    2        0.000  -0.000   0.000   0.000
    3       -0.000  -0.000   0.000  -0.000
    4       -0.000  -0.000   0.000  -0.000
    5        0.000  -0.000   0.000   0.000
    6       -0.000  -0.000   0.000  -0.000
    7       -0.000  -0.000   0.000  -0.000
    8       -0.000  -0.000   0.000  -0.000
    9        0.000   0.000  -0.000  -0.000
   10        0.000   0.000  -0.000  -0.000
   11        0.000   0.000  -0.000  -0.000
   12        0.000   0.000  -0.000  -0.000
   13       -0.000  -0.000  -0.000  -0.000
   14       -0.000   0.000   0.000   0.000
   15       -0.000  -0.000  -0.000  -0.000
   16       -0.000   0.000   0.000   0.000
--------------------------------------------------
tot         -0.000  -0.000  -0.000  -0.001
 


 magnetization (y)
 
# of ion       s       p       d       tot
------------------------------------------
    1       -0.000  -0.000   0.000  -0.000
    2       -0.000  -0.000   0.000  -0.000
    3       -0.000  -0.000   0.000  -0.000
    4        0.000  -0.000   0.000   0.000
    5       -0.000  -0.000   0.000  -0.000
    6       -0.000  -0.000   0.000  -0.000
    7       -0.000  -0.000   0.000  -0.000
    8        0.000  -0.000   0.000   0.000
    9       -0.000  -0.000  -0.000  -0.000
   10       -0.000  -0.000   0.000   0.000
   11       -0.000  -0.000  -0.000  -0.000
   12       -0.000  -0.000   0.000   0.000
   13        0.000   0.000  -0.000   0.000
   14        0.000   0.000  -0.000  -0.000
   15        0.000   0.000  -0.000   0.000
   16        0.000   0.000  -0.000  -0.000
--------------------------------------------------
tot         -0.000  -0.001  -0.000  -0.001
 


 magnetization (z)
 
# of ion       s       p       d       tot
------------------------------------------
    1       -0.000  -0.004   0.000  -0.004
    2        0.000   0.004   0.000   0.004
    3        0.000   0.000   0.000   0.000
    4       -0.000  -0.000   0.000  -0.000
    5        0.000   0.004   0.000   0.004
    6       -0.000  -0.004   0.000  -0.004
    7        0.000   0.000   0.000   0.000
    8       -0.000  -0.000   0.000  -0.000
    9        0.000   0.000  -0.001  -0.000
   10       -0.000  -0.000   0.001   0.000
   11        0.000   0.000  -0.001  -0.000
   12       -0.000  -0.000   0.001   0.000
   13        0.020   0.054   3.666   3.740
   14       -0.020  -0.054  -3.666  -3.740
   15        0.020   0.054   3.666   3.740
   16       -0.020  -0.054  -3.666  -3.740
--------------------------------------------------
tot         -0.000  -0.000   0.000   0.000
 
    CHARGE:  cpu time    1.6624: real time    1.6748
    MIXING:  cpu time    0.0021: real time    0.0021
    --------------------------------------------
      LOOP:  cpu time  344.5548: real time  346.1947

 eigenvalue-minimisations  : 57600
 total energy-change (2. order) :-0.3744547E-03  (-0.2427752E-02)
 number of electron     172.0000108 magnetization       0.0000000      0.0001116     -0.0000000
 augmentation part       70.5565440 magnetization       0.0000000     -0.0004076     -0.0000000

 Broyden mixing:
  rms(total) = 0.76973E-02    rms(broyden)= 0.76971E-02
  rms(prec ) = 0.79654E-02
  weight for this iteration     100.00

 eigenvalues of (default mixing * dielectric matrix)
  average eigenvalue GAMMA=   0.7141
  1.5687  0.6305  0.3695  0.2878

 Free energy of the ion-electron system (eV)
  ---------------------------------------------------
  alpha Z        PSCENC =       588.87916559
  Ewald energy   TEWEN  =    -15615.58423096
  -Hartree energ DENC   =    -10739.61686760
  -exchange      EXHF   =         0.00000000
  -V(xc)+E(xc)   XCENC  =       821.60980644
  PAW double counting   =     28071.49239437   -28994.95976354
  entropy T*S    EENTRO =         0.00000000
  eigenvalues    EBANDS =     -2719.09743697
  atomic energy  EATOM  =     28505.01627691
  Solvation  Ediel_sol  =         0.00000000
  ---------------------------------------------------
  free energy    TOTEN  =       -82.26065578 eV

  energy without entropy =      -82.26065578  energy(sigma->0) =      -82.26065578


--------------------------------------------------------------------------------------------------------




--------------------------------------- Iteration      1(   6)  ---------------------------------------


    POTLOK:  cpu time    0.1295: real time    0.1303
    SETDIJ:  cpu time    0.5941: real time    0.5959
     EDDAV:  cpu time   92.7468: real time   93.2274
 BZINTS: Fermi energy:  4.813694;172.000000 electrons
         Band energy:***********;  BLOECHL correction:  0.000000
       DOS:  cpu time    0.0401: real time    0.0402
    CHARGE:  cpu time    1.7232: real time    1.7355
    MIXING:  cpu time    0.0022: real time    0.0022
    --------------------------------------------
      LOOP:  cpu time   95.2359: real time   95.7316

 eigenvalue-minimisations  : 31744
 total energy-change (2. order) : 0.1910229E-03  (-0.1865686E-02)
 number of electron     172.0000108 magnetization       0.0000000     -0.0000392     -0.0000000
 augmentation part       70.5564274 magnetization       0.0000000      0.0004103     -0.0000000

 Broyden mixing:
  rms(total) = 0.56456E-02    rms(broyden)= 0.56455E-02
  rms(prec ) = 0.56492E-02
  weight for this iteration     100.00

 eigenvalues of (default mixing * dielectric matrix)
  average eigenvalue GAMMA=   0.7688
  1.8784  0.8213  0.6207  0.3061  0.2176

 Free energy of the ion-electron system (eV)
  ---------------------------------------------------
  alpha Z        PSCENC =       588.87916559
  Ewald energy   TEWEN  =    -15615.58423096
  -Hartree energ DENC   =    -10739.66947008
  -exchange      EXHF   =         0.00000000
  -V(xc)+E(xc)   XCENC  =       821.61258330
  PAW double counting   =     28071.84639922   -28995.31738008
  entropy T*S    EENTRO =         0.00000000
  eigenvalues    EBANDS =     -2719.04380865
  atomic energy  EATOM  =     28505.01627691
  Solvation  Ediel_sol  =         0.00000000
  ---------------------------------------------------
  free energy    TOTEN  =       -82.26046476 eV

  energy without entropy =      -82.26046476  energy(sigma->0) =      -82.26046476


--------------------------------------------------------------------------------------------------------




--------------------------------------- Iteration      1(   7)  ---------------------------------------


    POTLOK:  cpu time    0.1425: real time    0.1434
    SETDIJ:  cpu time    0.5916: real time    0.5934
     EDDAV:  cpu time  209.4231: real time  210.4470
 BZINTS: Fermi energy:  4.813533;172.000000 electrons
         Band energy:***********;  BLOECHL correction:  0.000000
       DOS:  cpu time    0.0401: real time    0.0403
    CHARGE:  cpu time    1.4723: real time    1.4839
    MIXING:  cpu time    0.0023: real time    0.0197
    --------------------------------------------
      LOOP:  cpu time  211.6720: real time  212.7277

 eigenvalue-minimisations  : 43520
 total energy-change (2. order) :-0.2224381E-04  (-0.8414593E-03)
 number of electron     172.0000108 magnetization       0.0000000     -0.0000022      0.0000000
 augmentation part       70.5560042 magnetization       0.0000000     -0.0005986      0.0000000

 Broyden mixing:
  rms(total) = 0.29243E-02    rms(broyden)= 0.29243E-02
  rms(prec ) = 0.29564E-02
  weight for this iteration     100.00

 eigenvalues of (default mixing * dielectric matrix)
  average eigenvalue GAMMA=   0.7220
  1.9567  0.9279  0.6220  0.3035  0.3035  0.2184

 Free energy of the ion-electron system (eV)
  ---------------------------------------------------
  alpha Z        PSCENC =       588.87916559
  Ewald energy   TEWEN  =    -15615.58423096
  -Hartree energ DENC   =    -10739.69014945
  -exchange      EXHF   =         0.00000000
  -V(xc)+E(xc)   XCENC  =       821.61305545
  PAW double counting   =     28072.11914198   -28995.59183523
  entropy T*S    EENTRO =         0.00000000
  eigenvalues    EBANDS =     -2719.02191129
  atomic energy  EATOM  =     28505.01627691
  Solvation  Ediel_sol  =         0.00000000
  ---------------------------------------------------
  free energy    TOTEN  =       -82.26048700 eV

  energy without entropy =      -82.26048700  energy(sigma->0) =      -82.26048700


--------------------------------------------------------------------------------------------------------




--------------------------------------- Iteration      1(   8)  ---------------------------------------


    POTLOK:  cpu time    0.1262: real time    0.1295
    SETDIJ:  cpu time    0.5935: real time    0.5954
     EDDAV:  cpu time  104.6170: real time  105.1565
 BZINTS: Fermi energy:  4.813552;172.000000 electrons
         Band energy:***********;  BLOECHL correction:  0.000000
       DOS:  cpu time    0.0403: real time    0.0404
    CHARGE:  cpu time    1.4738: real time    1.4856
    MIXING:  cpu time    0.0025: real time    0.0025
    --------------------------------------------
      LOOP:  cpu time  106.8533: real time  107.4098

 eigenvalue-minimisations  : 33024
 total energy-change (2. order) :-0.1191698E-03  (-0.6440346E-03)
 number of electron     172.0000108 magnetization      -0.0000000     -0.0000970      0.0000000
 augmentation part       70.5561345 magnetization      -0.0000000      0.0004579      0.0000000

 Broyden mixing:
  rms(total) = 0.27054E-02    rms(broyden)= 0.27053E-02
  rms(prec ) = 0.27075E-02
  weight for this iteration     100.00

 eigenvalues of (default mixing * dielectric matrix)
  average eigenvalue GAMMA=   0.7117
  2.0728  1.0820  0.6209  0.5083  0.3069  0.2209  0.1702

 Free energy of the ion-electron system (eV)
  ---------------------------------------------------
  alpha Z        PSCENC =       588.87916559
  Ewald energy   TEWEN  =    -15615.58423096
  -Hartree energ DENC   =    -10739.67612994
  -exchange      EXHF   =         0.00000000
  -V(xc)+E(xc)   XCENC  =       821.61234438
  PAW double counting   =     28072.12474708   -28995.59578084
  entropy T*S    EENTRO =         0.00000000
  eigenvalues    EBANDS =     -2719.03699839
  atomic energy  EATOM  =     28505.01627691
  Solvation  Ediel_sol  =         0.00000000
  ---------------------------------------------------
  free energy    TOTEN  =       -82.26060617 eV

  energy without entropy =      -82.26060617  energy(sigma->0) =      -82.26060617


--------------------------------------------------------------------------------------------------------




--------------------------------------- Iteration      1(   9)  ---------------------------------------


    POTLOK:  cpu time    0.1294: real time    0.1302
    SETDIJ:  cpu time    0.5937: real time    0.5955
     EDDAV:  cpu time  163.7689: real time  164.5835
 BZINTS: Fermi energy:  4.813343;172.000000 electrons
         Band energy:***********;  BLOECHL correction:  0.000000
       DOS:  cpu time    0.0403: real time    0.0404
    CHARGE:  cpu time    1.4772: real time    1.4893
    MIXING:  cpu time    0.0025: real time    0.0025
    --------------------------------------------
      LOOP:  cpu time  166.0120: real time  166.8414

 eigenvalue-minimisations  : 38912
 total energy-change (2. order) : 0.7830136E-04  (-0.2876507E-03)
 number of electron     172.0000108 magnetization      -0.0000000     -0.0001168      0.0000000
 augmentation part       70.5562791 magnetization      -0.0000000     -0.0003688      0.0000000

 Broyden mixing:
  rms(total) = 0.12962E-02    rms(broyden)= 0.12962E-02
  rms(prec ) = 0.13123E-02
  weight for this iteration     100.00

 eigenvalues of (default mixing * dielectric matrix)
  average eigenvalue GAMMA=   0.6942
  2.1773  1.1813  0.6122  0.6122  0.2948  0.2948  0.2258  0.1552

 Free energy of the ion-electron system (eV)
  ---------------------------------------------------
  alpha Z        PSCENC =       588.87916559
  Ewald energy   TEWEN  =    -15615.58423096
  -Hartree energ DENC   =    -10739.66703228
  -exchange      EXHF   =         0.00000000
  -V(xc)+E(xc)   XCENC  =       821.61191437
  PAW double counting   =     28072.10920857   -28995.57901076
  entropy T*S    EENTRO =         0.00000000
  eigenvalues    EBANDS =     -2719.04681930
  atomic energy  EATOM  =     28505.01627691
  Solvation  Ediel_sol  =         0.00000000
  ---------------------------------------------------
  free energy    TOTEN  =       -82.26052787 eV

  energy without entropy =      -82.26052787  energy(sigma->0) =      -82.26052787


--------------------------------------------------------------------------------------------------------




--------------------------------------- Iteration      1(  10)  ---------------------------------------


    POTLOK:  cpu time    0.1284: real time    0.1292
    SETDIJ:  cpu time    0.5941: real time    0.5959
     EDDAV:  cpu time  148.7454: real time  149.4947
 BZINTS: Fermi energy:  4.813424;172.000000 electrons
         Band energy:***********;  BLOECHL correction:  0.000000
       DOS:  cpu time    0.0403: real time    0.0405
 


 total charge     
 
# of ion       s       p       d       tot
------------------------------------------
    1        1.314   2.410   0.000   3.723
    2        1.313   2.410   0.000   3.723
    3        1.314   2.409   0.000   3.723
    4        1.313   2.411   0.000   3.724
    5        1.313   2.410   0.000   3.723
    6        1.314   2.410   0.000   3.723
    7        1.314   2.409   0.000   3.723
    8        1.313   2.411   0.000   3.724
    9        0.260   6.203   8.916  15.379
   10        0.260   6.203   8.916  15.379
[...]
     0.0000000     0.0000000     0.0000000     0.0000000     0.0000000     0.0000000     0.0000000

 Ion:    5  E_soc:     -0.0017362
 l=   1
     0.0000000    -0.0002477    -0.0003676
    -0.0002477     0.0000000    -0.0002528
    -0.0003676    -0.0002528     0.0000000
 l=   2
     0.0000000     0.0000000     0.0000000     0.0000000     0.0000000
     0.0000000     0.0000000     0.0000000     0.0000000     0.0000000
     0.0000000     0.0000000     0.0000000     0.0000000     0.0000000
     0.0000000     0.0000000     0.0000000     0.0000000     0.0000000
     0.0000000     0.0000000     0.0000000     0.0000000     0.0000000
 l=   3
     0.0000000     0.0000000     0.0000000     0.0000000     0.0000000     0.0000000     0.0000000
     0.0000000     0.0000000     0.0000000     0.0000000     0.0000000     0.0000000     0.0000000
     0.0000000     0.0000000     0.0000000     0.0000000     0.0000000     0.0000000     0.0000000
     0.0000000     0.0000000     0.0000000     0.0000000     0.0000000     0.0000000     0.0000000
     0.0000000     0.0000000     0.0000000     0.0000000     0.0000000     0.0000000     0.0000000
     0.0000000     0.0000000     0.0000000     0.0000000     0.0000000     0.0000000     0.0000000
     0.0000000     0.0000000     0.0000000     0.0000000     0.0000000     0.0000000     0.0000000

 Ion:    6  E_soc:     -0.0017362
 l=   1
     0.0000000    -0.0002477    -0.0003676
    -0.0002477     0.0000000    -0.0002528
    -0.0003676    -0.0002528     0.0000000
 l=   2
     0.0000000     0.0000000     0.0000000     0.0000000     0.0000000
     0.0000000     0.0000000     0.0000000     0.0000000     0.0000000
     0.0000000     0.0000000     0.0000000     0.0000000     0.0000000
     0.0000000     0.0000000     0.0000000     0.0000000     0.0000000
     0.0000000     0.0000000     0.0000000     0.0000000     0.0000000
 l=   3
     0.0000000     0.0000000     0.0000000     0.0000000     0.0000000     0.0000000     0.0000000
     0.0000000     0.0000000     0.0000000     0.0000000     0.0000000     0.0000000     0.0000000
     0.0000000     0.0000000     0.0000000     0.0000000     0.0000000     0.0000000     0.0000000
     0.0000000     0.0000000     0.0000000     0.0000000     0.0000000     0.0000000     0.0000000
     0.0000000     0.0000000     0.0000000     0.0000000     0.0000000     0.0000000     0.0000000
     0.0000000     0.0000000     0.0000000     0.0000000     0.0000000     0.0000000     0.0000000
     0.0000000     0.0000000     0.0000000     0.0000000     0.0000000     0.0000000     0.0000000

 Ion:    7  E_soc:     -0.0017451
 l=   1
     0.0000000    -0.0002526    -0.0003722
    -0.0002526     0.0000000    -0.0002477
    -0.0003722    -0.0002477     0.0000000
 l=   2
     0.0000000     0.0000000     0.0000000     0.0000000     0.0000000
     0.0000000     0.0000000     0.0000000     0.0000000     0.0000000
     0.0000000     0.0000000     0.0000000     0.0000000     0.0000000
     0.0000000     0.0000000     0.0000000     0.0000000     0.0000000
     0.0000000     0.0000000     0.0000000     0.0000000     0.0000000
 l=   3
     0.0000000     0.0000000     0.0000000     0.0000000     0.0000000     0.0000000     0.0000000
     0.0000000     0.0000000     0.0000000     0.0000000     0.0000000     0.0000000     0.0000000
     0.0000000     0.0000000     0.0000000     0.0000000     0.0000000     0.0000000     0.0000000
     0.0000000     0.0000000     0.0000000     0.0000000     0.0000000     0.0000000     0.0000000
     0.0000000     0.0000000     0.0000000     0.0000000     0.0000000     0.0000000     0.0000000
     0.0000000     0.0000000     0.0000000     0.0000000     0.0000000     0.0000000     0.0000000
     0.0000000     0.0000000     0.0000000     0.0000000     0.0000000     0.0000000     0.0000000

 Ion:    8  E_soc:     -0.0017266
 l=   1
     0.0000000    -0.0002526    -0.0003629
    -0.0002526     0.0000000    -0.0002478
    -0.0003629    -0.0002478     0.0000000
 l=   2
     0.0000000     0.0000000     0.0000000     0.0000000     0.0000000
     0.0000000     0.0000000     0.0000000     0.0000000     0.0000000
     0.0000000     0.0000000     0.0000000     0.0000000     0.0000000
     0.0000000     0.0000000     0.0000000     0.0000000     0.0000000
     0.0000000     0.0000000     0.0000000     0.0000000     0.0000000
 l=   3
     0.0000000     0.0000000     0.0000000     0.0000000     0.0000000     0.0000000     0.0000000
     0.0000000     0.0000000     0.0000000     0.0000000     0.0000000     0.0000000     0.0000000
     0.0000000     0.0000000     0.0000000     0.0000000     0.0000000     0.0000000     0.0000000
     0.0000000     0.0000000     0.0000000     0.0000000     0.0000000     0.0000000     0.0000000
     0.0000000     0.0000000     0.0000000     0.0000000     0.0000000     0.0000000     0.0000000
     0.0000000     0.0000000     0.0000000     0.0000000     0.0000000     0.0000000     0.0000000
     0.0000000     0.0000000     0.0000000     0.0000000     0.0000000     0.0000000     0.0000000

 Ion:    9  E_soc:     -0.0618248
 l=   1
     0.0000000    -0.0085616    -0.0085502
    -0.0085616     0.0000000    -0.0085617
    -0.0085502    -0.0085617     0.0000000
 l=   2
     0.0000000    -0.0004016     0.0000000    -0.0004013    -0.0013464
    -0.0004016     0.0000000    -0.0010619    -0.0002932    -0.0003371
     0.0000000    -0.0010619     0.0000000    -0.0010608     0.0000000
    -0.0004013    -0.0002932    -0.0010608     0.0000000    -0.0003367
    -0.0013464    -0.0003371     0.0000000    -0.0003367     0.0000000
 l=   3
     0.0000000     0.0000000     0.0000000     0.0000000     0.0000000     0.0000000     0.0000000
     0.0000000     0.0000000     0.0000000     0.0000000     0.0000000     0.0000000     0.0000000
     0.0000000     0.0000000     0.0000000     0.0000000     0.0000000     0.0000000     0.0000000
     0.0000000     0.0000000     0.0000000     0.0000000     0.0000000     0.0000000     0.0000000
     0.0000000     0.0000000     0.0000000     0.0000000     0.0000000     0.0000000     0.0000000
     0.0000000     0.0000000     0.0000000     0.0000000     0.0000000     0.0000000     0.0000000
     0.0000000     0.0000000     0.0000000     0.0000000     0.0000000     0.0000000     0.0000000

 Ion:   10  E_soc:     -0.0618248
 l=   1
     0.0000000    -0.0085616    -0.0085502
    -0.0085616     0.0000000    -0.0085617
    -0.0085502    -0.0085617     0.0000000
 l=   2
     0.0000000    -0.0004016     0.0000000    -0.0004013    -0.0013464
    -0.0004016     0.0000000    -0.0010619    -0.0002932    -0.0003371
     0.0000000    -0.0010619     0.0000000    -0.0010608     0.0000000
    -0.0004013    -0.0002932    -0.0010608     0.0000000    -0.0003367
    -0.0013464    -0.0003371     0.0000000    -0.0003367     0.0000000
 l=   3
     0.0000000     0.0000000     0.0000000     0.0000000     0.0000000     0.0000000     0.0000000
     0.0000000     0.0000000     0.0000000     0.0000000     0.0000000     0.0000000     0.0000000
     0.0000000     0.0000000     0.0000000     0.0000000     0.0000000     0.0000000     0.0000000
     0.0000000     0.0000000     0.0000000     0.0000000     0.0000000     0.0000000     0.0000000
     0.0000000     0.0000000     0.0000000     0.0000000     0.0000000     0.0000000     0.0000000
     0.0000000     0.0000000     0.0000000     0.0000000     0.0000000     0.0000000     0.0000000
     0.0000000     0.0000000     0.0000000     0.0000000     0.0000000     0.0000000     0.0000000

 Ion:   11  E_soc:     -0.0618248
 l=   1
     0.0000000    -0.0085616    -0.0085502
    -0.0085616     0.0000000    -0.0085617
    -0.0085502    -0.0085617     0.0000000
 l=   2
     0.0000000    -0.0004016     0.0000000    -0.0004013    -0.0013464
    -0.0004016     0.0000000    -0.0010619    -0.0002932    -0.0003371
     0.0000000    -0.0010619     0.0000000    -0.0010608     0.0000000
    -0.0004013    -0.0002932    -0.0010608     0.0000000    -0.0003367
    -0.0013464    -0.0003371     0.0000000    -0.0003367     0.0000000
 l=   3
     0.0000000     0.0000000     0.0000000     0.0000000     0.0000000     0.0000000     0.0000000
     0.0000000     0.0000000     0.0000000     0.0000000     0.0000000     0.0000000     0.0000000
     0.0000000     0.0000000     0.0000000     0.0000000     0.0000000     0.0000000     0.0000000
     0.0000000     0.0000000     0.0000000     0.0000000     0.0000000     0.0000000     0.0000000
     0.0000000     0.0000000     0.0000000     0.0000000     0.0000000     0.0000000     0.0000000
     0.0000000     0.0000000     0.0000000     0.0000000     0.0000000     0.0000000     0.0000000
     0.0000000     0.0000000     0.0000000     0.0000000     0.0000000     0.0000000     0.0000000

 Ion:   12  E_soc:     -0.0618248
 l=   1
     0.0000000    -0.0085616    -0.0085502
    -0.0085616     0.0000000    -0.0085617
    -0.0085502    -0.0085617     0.0000000
 l=   2
     0.0000000    -0.0004016     0.0000000    -0.0004013    -0.0013464
    -0.0004016     0.0000000    -0.0010619    -0.0002932    -0.0003371
     0.0000000    -0.0010619     0.0000000    -0.0010608     0.0000000
    -0.0004013    -0.0002932    -0.0010608     0.0000000    -0.0003367
    -0.0013464    -0.0003371     0.0000000    -0.0003367     0.0000000
 l=   3
     0.0000000     0.0000000     0.0000000     0.0000000     0.0000000     0.0000000     0.0000000
     0.0000000     0.0000000     0.0000000     0.0000000     0.0000000     0.0000000     0.0000000
     0.0000000     0.0000000     0.0000000     0.0000000     0.0000000     0.0000000     0.0000000
     0.0000000     0.0000000     0.0000000     0.0000000     0.0000000     0.0000000     0.0000000
     0.0000000     0.0000000     0.0000000     0.0000000     0.0000000     0.0000000     0.0000000
     0.0000000     0.0000000     0.0000000     0.0000000     0.0000000     0.0000000     0.0000000
     0.0000000     0.0000000     0.0000000     0.0000000     0.0000000     0.0000000     0.0000000

 Ion:   13  E_soc:     -0.0363779
 l=   1
     0.0000000    -0.0042780    -0.0043114
    -0.0042780     0.0000000    -0.0042779
    -0.0043114    -0.0042779     0.0000000
 l=   2
     0.0000000    -0.0003497     0.0000000    -0.0003499    -0.0008538
    -0.0003497     0.0000000    -0.0013058    -0.0002987    -0.0004287
     0.0000000    -0.0013058     0.0000000    -0.0013062     0.0000000
    -0.0003499    -0.0002987    -0.0013062     0.0000000    -0.0004289
    -0.0008538    -0.0004287     0.0000000    -0.0004289     0.0000000
 l=   3
     0.0000000     0.0000000     0.0000000     0.0000000     0.0000000     0.0000000     0.0000000
     0.0000000     0.0000000     0.0000000     0.0000000     0.0000000     0.0000000     0.0000000
     0.0000000     0.0000000     0.0000000     0.0000000     0.0000000     0.0000000     0.0000000
     0.0000000     0.0000000     0.0000000     0.0000000     0.0000000     0.0000000     0.0000000
     0.0000000     0.0000000     0.0000000     0.0000000     0.0000000     0.0000000     0.0000000
     0.0000000     0.0000000     0.0000000     0.0000000     0.0000000     0.0000000     0.0000000
     0.0000000     0.0000000     0.0000000     0.0000000     0.0000000     0.0000000     0.0000000

 Ion:   14  E_soc:     -0.0363779
 l=   1
     0.0000000    -0.0042780    -0.0043114
    -0.0042780     0.0000000    -0.0042779
    -0.0043114    -0.0042779     0.0000000
 l=   2
     0.0000000    -0.0003497     0.0000000    -0.0003499    -0.0008538
    -0.0003497     0.0000000    -0.0013058    -0.0002987    -0.0004287
     0.0000000    -0.0013058     0.0000000    -0.0013062     0.0000000
    -0.0003499    -0.0002987    -0.0013062     0.0000000    -0.0004289
    -0.0008538    -0.0004287     0.0000000    -0.0004289     0.0000000
 l=   3
     0.0000000     0.0000000     0.0000000     0.0000000     0.0000000     0.0000000     0.0000000
     0.0000000     0.0000000     0.0000000     0.0000000     0.0000000     0.0000000     0.0000000
     0.0000000     0.0000000     0.0000000     0.0000000     0.0000000     0.0000000     0.0000000
     0.0000000     0.0000000     0.0000000     0.0000000     0.0000000     0.0000000     0.0000000
     0.0000000     0.0000000     0.0000000     0.0000000     0.0000000     0.0000000     0.0000000
     0.0000000     0.0000000     0.0000000     0.0000000     0.0000000     0.0000000     0.0000000
     0.0000000     0.0000000     0.0000000     0.0000000     0.0000000     0.0000000     0.0000000

 Ion:   15  E_soc:     -0.0363779
 l=   1
     0.0000000    -0.0042780    -0.0043114
    -0.0042780     0.0000000    -0.0042779
    -0.0043114    -0.0042779     0.0000000
 l=   2
     0.0000000    -0.0003497     0.0000000    -0.0003499    -0.0008538
    -0.0003497     0.0000000    -0.0013058    -0.0002987    -0.0004287
     0.0000000    -0.0013058     0.0000000    -0.0013062     0.0000000
    -0.0003499    -0.0002987    -0.0013062     0.0000000    -0.0004289
    -0.0008538    -0.0004287     0.0000000    -0.0004289     0.0000000
 l=   3
     0.0000000     0.0000000     0.0000000     0.0000000     0.0000000     0.0000000     0.0000000
     0.0000000     0.0000000     0.0000000     0.0000000     0.0000000     0.0000000     0.0000000
     0.0000000     0.0000000     0.0000000     0.0000000     0.0000000     0.0000000     0.0000000
     0.0000000     0.0000000     0.0000000     0.0000000     0.0000000     0.0000000     0.0000000
     0.0000000     0.0000000     0.0000000     0.0000000     0.0000000     0.0000000     0.0000000
     0.0000000     0.0000000     0.0000000     0.0000000     0.0000000     0.0000000     0.0000000
     0.0000000     0.0000000     0.0000000     0.0000000     0.0000000     0.0000000     0.0000000

 Ion:   16  E_soc:     -0.0363779
 l=   1
     0.0000000    -0.0042780    -0.0043114
    -0.0042780     0.0000000    -0.0042779
    -0.0043114    -0.0042779     0.0000000
 l=   2
     0.0000000    -0.0003497     0.0000000    -0.0003499    -0.0008538
    -0.0003497     0.0000000    -0.0013058    -0.0002987    -0.0004287
     0.0000000    -0.0013058     0.0000000    -0.0013062     0.0000000
    -0.0003499    -0.0002987    -0.0013062     0.0000000    -0.0004289
    -0.0008538    -0.0004287     0.0000000    -0.0004289     0.0000000
 l=   3
     0.0000000     0.0000000     0.0000000     0.0000000     0.0000000     0.0000000     0.0000000
     0.0000000     0.0000000     0.0000000     0.0000000     0.0000000     0.0000000     0.0000000
     0.0000000     0.0000000     0.0000000     0.0000000     0.0000000     0.0000000     0.0000000
     0.0000000     0.0000000     0.0000000     0.0000000     0.0000000     0.0000000     0.0000000
     0.0000000     0.0000000     0.0000000     0.0000000     0.0000000     0.0000000     0.0000000
     0.0000000     0.0000000     0.0000000     0.0000000     0.0000000     0.0000000     0.0000000
     0.0000000     0.0000000     0.0000000     0.0000000     0.0000000     0.0000000     0.0000000
 


 total charge     
 
# of ion       s       p       d       tot
------------------------------------------
    1        1.314   2.410   0.000   3.723
    2        1.313   2.410   0.000   3.723
    3        1.314   2.409   0.000   3.723
    4        1.313   2.411   0.000   3.724
    5        1.313   2.410   0.000   3.723
    6        1.314   2.410   0.000   3.723
    7        1.314   2.409   0.000   3.723
    8        1.313   2.411   0.000   3.724
    9        0.260   6.203   8.916  15.379
   10        0.260   6.203   8.916  15.379
   11        0.260   6.203   8.916  15.379
   12        0.260   6.203   8.916  15.379
   13        0.350   6.351   5.821  12.522
   14        0.350   6.351   5.822  12.522
   15        0.350   6.351   5.821  12.522
   16        0.350   6.351   5.822  12.522
--------------------------------------------------
tot         12.947  69.494  58.950 141.391
 


 magnetization (x)
 
# of ion       s       p       d       tot
------------------------------------------
    1       -0.000   0.000   0.000   0.000
    2        0.000  -0.000   0.000  -0.000
    3       -0.000  -0.000   0.000  -0.000
    4       -0.000  -0.000   0.000  -0.000
    5        0.000  -0.000   0.000  -0.000
    6       -0.000   0.000   0.000   0.000
    7       -0.000  -0.000   0.000  -0.000
    8       -0.000  -0.000   0.000  -0.000
    9        0.000   0.000  -0.000  -0.000
   10        0.000   0.000  -0.000  -0.000
   11        0.000   0.000  -0.000  -0.000
   12        0.000   0.000  -0.000  -0.000
   13       -0.000   0.000   0.001   0.001
   14       -0.000  -0.000  -0.001  -0.001
   15       -0.000   0.000   0.001   0.001
   16       -0.000  -0.000  -0.001  -0.001
--------------------------------------------------
tot         -0.000  -0.000  -0.000  -0.001
 


 magnetization (y)
 
# of ion       s       p       d       tot
------------------------------------------
    1        0.000   0.000   0.000   0.000
    2        0.000  -0.000   0.000  -0.000
    3       -0.000   0.000   0.000   0.000
    4        0.000  -0.000   0.000  -0.000
    5        0.000  -0.000   0.000  -0.000
    6        0.000   0.000   0.000   0.000
    7       -0.000   0.000   0.000   0.000
    8        0.000  -0.000   0.000  -0.000
    9       -0.000   0.000  -0.000  -0.000
   10        0.000   0.000   0.000   0.000
   11       -0.000   0.000  -0.000  -0.000
   12        0.000   0.000   0.000   0.000
   13        0.000   0.000  -0.000  -0.000
   14       -0.000  -0.000  -0.000  -0.000
   15        0.000   0.000  -0.000  -0.000
   16       -0.000  -0.000  -0.000  -0.000
--------------------------------------------------
tot         -0.000   0.000  -0.001  -0.001
 


 magnetization (z)
 
# of ion       s       p       d       tot
------------------------------------------
    1       -0.000  -0.004   0.000  -0.004
    2        0.000   0.004   0.000   0.004
    3        0.000   0.000   0.000   0.000
    4       -0.000  -0.000   0.000  -0.000
    5        0.000   0.004   0.000   0.004
    6       -0.000  -0.004   0.000  -0.004
    7        0.000   0.000   0.000   0.000
    8       -0.000  -0.000   0.000  -0.000
    9        0.000   0.000  -0.001  -0.000
   10       -0.000  -0.000   0.001   0.000
   11        0.000   0.000  -0.001  -0.000
   12       -0.000  -0.000   0.001   0.000
   13        0.020   0.054   3.666   3.740
   14       -0.020  -0.054  -3.666  -3.740
   15        0.020   0.054   3.666   3.740
   16       -0.020  -0.054  -3.666  -3.740
--------------------------------------------------
tot         -0.000  -0.000   0.000   0.000
 
 BZINTS: Fermi energy:  4.813401;172.000000 electrons
         Band energy:***********;  BLOECHL correction:  0.000000
 BZINTS: Fermi energy:  4.813401;172.000000 electrons
         Band energy:***********;  BLOECHL correction:  0.000000
 BZINTS: Fermi energy:  4.813401;172.000000 electrons
         Band energy:***********;  BLOECHL correction:  0.000000
 BZINTS: Fermi energy:  4.813401;172.000000 electrons
         Band energy:***********;  BLOECHL correction:  0.000000

 total amount of memory used by VASP MPI-rank0   410429. kBytes
=======================================================================

   base      :      30000. kBytes
   nonl-proj :     321650. kBytes
   fftplans  :       2735. kBytes
   grid      :      30965. kBytes
   one-center:        995. kBytes
   wavefun   :      24084. kBytes
 
  
  
 General timing and accounting informations for this job:
 ========================================================
  
                  Total CPU time used (sec):    10175.831
                            User time (sec):    10162.923
                          System time (sec):       12.908
                         Elapsed time (sec):    10379.255
  
                   Maximum memory used (kb):      858728.
                   Average memory used (kb):           0.
  
                          Minor page faults:      1844860
                          Major page faults:         5523
                 Voluntary context switches:         7778
