 vasp.5.4.4.18Apr17-6-g9f103f2a35 (build Oct 30 2023 17:30:16) complex          
  
 executed on             LinuxIFC date 2024.06.29  00:29:09
 running on  256 total cores
 distrk:  each k-point on  256 cores,    1 groups
 distr:  one band on NCORES_PER_BAND=   1 cores,  256 groups


--------------------------------------------------------------------------------------------------------


 INCAR:
 POTCAR:    PAW_PBE S 06Sep2000                   
 POTCAR:     PAW_PBE Cu_pv 06Sep2000              
 POTCAR:     PAW_PBE Fe_pv 02Aug2007              

 ----------------------------------------------------------------------------- 
|                                                                             |
|           W    W    AA    RRRRR   N    N  II  N    N   GGGG   !!!           |
|           W    W   A  A   R    R  NN   N  II  NN   N  G    G  !!!           |
|           W    W  A    A  R    R  N N  N  II  N N  N  G       !!!           |
|           W WW W  AAAAAA  RRRRR   N  N N  II  N  N N  G  GGG   !            |
|           WW  WW  A    A  R   R   N   NN  II  N   NN  G    G                |
|           W    W  A    A  R    R  N    N  II  N    N   GGGG   !!!           |
|                                                                             |
|      For optimal performance we recommend to set                            |
|        NCORE= 4 - approx SQRT( number of cores)                             |
|      NCORE specifies how many cores store one orbital (NPAR=cpu/NCORE).     |
|      This setting can  greatly improve the performance of VASP for DFT.     |
|      The default,   NCORE=1            might be grossly inefficient         |
|      on modern multi-core architectures or massively parallel machines.     |
|      Do your own testing !!!!                                               |
|      Unfortunately you need to use the default for GW and RPA calculations. |
|      (for HF NCORE is supported but not extensively tested yet)             |
|                                                                             |
 ----------------------------------------------------------------------------- 

 POTCAR:    PAW_PBE S 06Sep2000                   
   SHA256 =  0fc7481fb0695f01bdc6462160264c5c84044ae9ec85a907d398b887a2bc3132 S/
   COPYR  = (c) Copyright 06Sep2000 Georg Kresse                                
   COPYR  = This file is part of the software VASP. Any use, copying, and all ot
   COPYR  = If you do not have a valid VASP license, you may not use, copy or di
   VRHFIN =S : s2p4                                                             
   LEXCH  = PE                                                                  
   EATOM  =   276.8230 eV,   20.3459 Ry                                         
                                                                                
   TITEL  = PAW_PBE S 06Sep2000                                                 
   LULTRA =        F    use ultrasoft PP ?                                      
   IUNSCR =        1    unscreen: 0-lin 1-nonlin 2-no                           
   RPACOR =    1.500    partial core radius                                     
   POMASS =   32.066; ZVAL   =    6.000    mass and valenz                      
   RCORE  =    1.900    outmost cutoff radius                                   
   RWIGS  =    2.200; RWIGS  =    1.164    wigner-seitz radius (au A)           
   ENMAX  =  258.689; ENMIN  =  194.016 eV                                      
   ICORE  =        2    local potential                                         
   LCOR   =        T    correct aug charges                                     
   LPAW   =        T    paw PP                                                  
   EAUG   =  335.092                                                            
   DEXC   =    0.000                                                            
   RMAX   =    1.942    core radius for proj-oper                               
   RAUG   =    1.300    factor for augmentation sphere                          
   RDEP   =    1.954    radius for radial grids                                 
   RDEPT  =    1.744    core radius for aug-charge                              
                                                                                
   Atomic configuration                                                         
    6 entries                                                                   
     n  l   j            E        occ.                                          
     1  0  0.50     -2405.8406   2.0000                                         
     2  0  0.50      -211.7007   2.0000                                         
     2  1  1.50      -156.4958   6.0000                                         
     3  0  0.50       -17.2562   2.0000                                         
     3  1  0.50        -7.0085   4.0000                                         
     3  2  1.50        -6.8029   0.0000                                         
   Description                                                                  
     l       E           TYP  RCUT    TYP  RCUT                                 
     0    -17.2561641     23  1.900                                             
     0    -15.8743224     23  1.900                                             
     1     -7.0085400     23  1.900                                             
     1     -2.7779785     23  1.900                                             
     2     -6.8029130     23  1.900                                             
  local pseudopotential read in
  partial core-charges read in
  partial kinetic energy density read in
  atomic valenz-charges read in
  non local Contribution for L=           0  read in
    real space projection operators read in
  non local Contribution for L=           0  read in
    real space projection operators read in
  non local Contribution for L=           1  read in
    real space projection operators read in
  non local Contribution for L=           1  read in
    real space projection operators read in
    PAW grid and wavefunctions read in
 
   number of l-projection  operators is LMAX  =           4
   number of lm-projection operators is LMMAX =           8
 
 POTCAR:     PAW_PBE Cu_pv 06Sep2000              
   SHA256 =  cb7b504e2ea725fe1f25c85a9ac77d4012ce94cd394135b722c4e25ec297f1cb Cu
   COPYR  = (c) Copyright 06Sep2000 Georg Kresse                                
   COPYR  = This file is part of the software VASP. Any use, copying, and all ot
   COPYR  = If you do not have a valid VASP license, you may not use, copy or di
   VRHFIN =Cu: d10 p1                                                           
   LEXCH  = PE                                                                  
   EATOM  =  4120.1201 eV,  302.8203 Ry                                         
                                                                                
   TITEL  = PAW_PBE Cu_pv 06Sep2000                                             
   LULTRA =        F    use ultrasoft PP ?                                      
   IUNSCR =        1    unscreen: 0-lin 1-nonlin 2-no                           
   RPACOR =    1.500    partial core radius                                     
   POMASS =   63.546; ZVAL   =   17.000    mass and valenz                      
   RCORE  =    2.000    outmost cutoff radius                                   
   RWIGS  =    2.000; RWIGS  =    1.058    wigner-seitz radius (au A)           
   ENMAX  =  368.648; ENMIN  =  276.486 eV                                      
   RCLOC  =    1.304    cutoff for local pot                                    
   LCOR   =        T    correct aug charges                                     
   LPAW   =        T    paw PP                                                  
   EAUG   =  758.233                                                            
   DEXC   =    0.000                                                            
   RMAX   =    2.046    core radius for proj-oper                               
   RAUG   =    1.300    factor for augmentation sphere                          
   RDEP   =    2.025    radius for radial grids                                 
   RDEPT  =    1.558    core radius for aug-charge                              
                                                                                
   Atomic configuration                                                         
    8 entries                                                                   
     n  l   j            E        occ.                                          
     1  0  0.50     -8850.2467   2.0000                                         
     2  0  0.50     -1062.3498   2.0000                                         
     2  1  1.50      -916.8226   6.0000                                         
     3  0  0.50      -114.6929   2.0000                                         
     3  1  1.50       -72.1325   6.0000                                         
     3  2  2.50        -5.0394  10.0000                                         
     4  0  0.50        -4.6097   1.0000                                         
     4  3  2.50        -1.3606   0.0000                                         
   Description                                                                  
     l       E           TYP  RCUT    TYP  RCUT                                 
     1    -72.1324777     23  1.700                                             
     1     -1.3605826     23  1.700                                             
     2     -5.0393776     23  2.000                                             
     2     -6.3999602     23  2.000                                             
     0     -4.6097062     23  1.800                                             
     0     14.1620818     23  1.800                                             
  local pseudopotential read in
  partial core-charges read in
  partial kinetic energy density read in
  atomic valenz-charges read in
  non local Contribution for L=           1  read in
    real space projection operators read in
  non local Contribution for L=           1  read in
    real space projection operators read in
  non local Contribution for L=           2  read in
    real space projection operators read in
  non local Contribution for L=           2  read in
    real space projection operators read in
  non local Contribution for L=           0  read in
    real space projection operators read in
  non local Contribution for L=           0  read in
    real space projection operators read in
    PAW grid and wavefunctions read in
 
   number of l-projection  operators is LMAX  =           6
   number of lm-projection operators is LMMAX =          18
 
 POTCAR:     PAW_PBE Fe_pv 02Aug2007              
   SHA256 =  5d22e414b1f82158bf2c7ecb8b97b28fd0923e48cadc1c3bf74d524558f5dd32 Fe
   COPYR  = (c) Copyright 02Aug2007 Georg Kresse                                
   COPYR  = This file is part of the software VASP. Any use, copying, and all ot
   COPYR  = If you do not have a valid VASP license, you may not use, copy or di
   VRHFIN =Fe:  3pd7s1                                                          
   LEXCH  = PE                                                                  
   EATOM  =  2457.4239 eV,  180.6156 Ry                                         
                                                                                
   TITEL  = PAW_PBE Fe_pv 02Aug2007                                             
   LULTRA =        F    use ultrasoft PP ?                                      
   IUNSCR =        1    unscreen: 0-lin 1-nonlin 2-no                           
   RPACOR =    1.750    partial core radius                                     
   POMASS =   55.847; ZVAL   =   14.000    mass and valenz                      
   RCORE  =    2.200    outmost cutoff radius                                   
   RWIGS  =    2.200; RWIGS  =    1.164    wigner-seitz radius (au A)           
   ENMAX  =  293.238; ENMIN  =  219.928 eV                                      
   ICORE  =        3    local potential                                         
   LCOR   =        T    correct aug charges                                     
   LPAW   =        T    paw PP                                                  
   EAUG   =  578.342                                                            
   DEXC   =    0.000                                                            
   RMAX   =    2.249    core radius for proj-oper                               
   RAUG   =    1.300    factor for augmentation sphere                          
   RDEP   =    2.296    radius for radial grids                                 
   RDEPT  =    1.766    core radius for aug-charge                              
                                                                                
   Atomic configuration                                                         
    8 entries                                                                   
     n  l   j            E        occ.                                          
     1  0  0.50     -6993.8440   2.0000                                         
     2  0  0.50      -814.6047   2.0000                                         
     2  1  1.50      -693.3689   6.0000                                         
     3  0  0.50       -89.4732   2.0000                                         
     3  1  1.50       -55.6373   6.0000                                         
     3  2  2.50        -3.8151   7.0000                                         
     4  0  0.50        -4.2551   1.0000                                         
     4  3  2.50        -1.3606   0.0000                                         
   Description                                                                  
     l       E           TYP  RCUT    TYP  RCUT                                 
     1    -55.6372668     23  2.000                                             
     1     -5.4423304     23  2.000                                             
     2     -3.8151096     23  2.200                                             
     2     -5.1756922     23  2.200                                             
     0     -4.2550951     23  2.200                                             
     0     27.2116520     23  2.200                                             
     3     -1.3605826     23  2.200                                             
  local pseudopotential read in
  partial core-charges read in
  partial kinetic energy density read in
  atomic valenz-charges read in
  non local Contribution for L=           1  read in
    real space projection operators read in
  non local Contribution for L=           1  read in
    real space projection operators read in
  non local Contribution for L=           2  read in
    real space projection operators read in
  non local Contribution for L=           2  read in
    real space projection operators read in
  non local Contribution for L=           0  read in
    real space projection operators read in
  non local Contribution for L=           0  read in
    real space projection operators read in
    PAW grid and wavefunctions read in
 
   number of l-projection  operators is LMAX  =           6
   number of lm-projection operators is LMMAX =          18
 

 ----------------------------------------------------------------------------- 
|                                                                             |
|  ADVICE TO THIS USER RUNNING 'VASP/VAMP'   (HEAR YOUR MASTER'S VOICE ...):  |
|                                                                             |
|      You have a (more or less) 'large supercell' and for larger cells       |
|      it might be more efficient to use real space projection opertators     |
|      So try LREAL= Auto  in the INCAR   file.                               |
|      Mind:          For very  accurate calculation you might also keep the  |
|      reciprocal projection scheme          (i.e. LREAL=.FALSE.)             |
|                                                                             |
 ----------------------------------------------------------------------------- 


 ----------------------------------------------------------------------------- 
|                                                                             |
|  ADVICE TO THIS USER RUNNING 'VASP/VAMP'   (HEAR YOUR MASTER'S VOICE ...):  |
|                                                                             |
|      You enforced a specific xc-type in the INCAR file,                     |
|      a different type was found on the POTCAR file                          |
|          I HOPE YOU KNOW, WHAT YOU ARE  DOING                               |
|                                                                             |
 ----------------------------------------------------------------------------- 

  PAW_PBE S 06Sep2000                   :
 energy of atom  1       EATOM= -276.8230
 kinetic energy error for atom=    0.0007 (will be added to EATOM!!)
   PAW_PBE Cu_pv 06Sep2000              :
 energy of atom  2       EATOM=-4120.1201
 kinetic energy error for atom=    0.0094 (will be added to EATOM!!)
   PAW_PBE Fe_pv 02Aug2007              :
 energy of atom  3       EATOM=-2457.4239
 kinetic energy error for atom=    0.0025 (will be added to EATOM!!)
 
 
 POSCAR: Fe16 Cu16 S32                           
  positions in direct lattice
  No initial velocities read in
 exchange correlation table for  LEXCH =       14
   RHO(1)=    0.500       N(1)  =     2000
   RHO(2)=  100.500       N(2)  =     4000
 


--------------------------------------------------------------------------------------------------------


 ion  position               nearest neighbor table
   1  0.126  0.125  0.124-  37 2.26  41 2.26  61 2.27  49 2.28
   2  0.626  0.125  0.124-  38 2.26  42 2.26  62 2.27  50 2.28
   3  0.126  0.625  0.124-  39 2.26  43 2.26  63 2.27  51 2.28
   4  0.626  0.625  0.124-  40 2.26  44 2.26  64 2.27  52 2.28
   5  0.374  0.375  0.124-  39 2.26  41 2.26  62 2.27  52 2.28
   6  0.874  0.375  0.124-  40 2.26  42 2.26  61 2.27  51 2.28
   7  0.374  0.875  0.124-  37 2.26  43 2.26  64 2.27  50 2.28
   8  0.874  0.875  0.124-  38 2.26  44 2.26  63 2.27  49 2.28
   9  0.125  0.374  0.874-  41 2.26  45 2.26  51 2.27  55 2.28
  10  0.625  0.374  0.874-  42 2.26  46 2.26  52 2.27  56 2.28
  11  0.125  0.874  0.874-  43 2.26  47 2.26  49 2.27  53 2.28
  12  0.625  0.874  0.874-  44 2.26  48 2.26  50 2.27  54 2.28
  13  0.375  0.126  0.874-  41 2.26  46 2.26  50 2.27  53 2.28
  14  0.875  0.126  0.874-  42 2.26  45 2.26  49 2.27  54 2.28
  15  0.375  0.626  0.874-  43 2.26  48 2.26  52 2.27  55 2.28
  16  0.875  0.626  0.874-  44 2.26  47 2.26  51 2.27  56 2.28
  17  0.124  0.125  0.624-  45 2.26  33 2.26  53 2.27  57 2.28
  18  0.624  0.125  0.624-  46 2.26  34 2.26  54 2.27  58 2.28
  19  0.124  0.625  0.624-  47 2.26  35 2.26  55 2.27  59 2.28
  20  0.624  0.625  0.624-  48 2.26  36 2.26  56 2.27  60 2.28
  21  0.376  0.375  0.624-  46 2.26  36 2.26  55 2.27  57 2.28
  22  0.876  0.375  0.624-  45 2.26  35 2.26  56 2.27  58 2.28
  23  0.376  0.875  0.624-  48 2.26  34 2.26  53 2.27  59 2.28
  24  0.876  0.875  0.624-  47 2.26  33 2.26  54 2.27  60 2.28
  25  0.375  0.124  0.374-  34 2.26  37 2.26  57 2.27  62 2.28
  26  0.875  0.124  0.374-  33 2.26  38 2.26  58 2.27  61 2.28
  27  0.375  0.624  0.374-  36 2.26  39 2.26  59 2.27  64 2.28
  28  0.875  0.624  0.374-  35 2.26  40 2.26  60 2.27  63 2.28
  29  0.125  0.376  0.374-  35 2.26  39 2.26  57 2.27  61 2.28
  30  0.625  0.376  0.374-  36 2.26  40 2.26  58 2.27  62 2.28
  31  0.125  0.876  0.374-  33 2.26  37 2.26  59 2.27  63 2.28
  32  0.625  0.876  0.374-  34 2.26  38 2.26  60 2.27  64 2.28
  33  0.000  0.000  0.501-  26 2.26  31 2.26  17 2.26  24 2.26
  34  0.500  0.000  0.501-  25 2.26  32 2.26  18 2.26  23 2.26
  35  0.000  0.500  0.501-  28 2.26  29 2.26  19 2.26  22 2.26
  36  0.500  0.500  0.501-  27 2.26  30 2.26  20 2.26  21 2.26
  37  0.250  0.000  0.251-   1 2.26   7 2.26  25 2.26  31 2.26
  38  0.750  0.000  0.251-   2 2.26   8 2.26  26 2.26  32 2.26
  39  0.250  0.500  0.251-   3 2.26   5 2.26  27 2.26  29 2.26
  40  0.750  0.500  0.251-   4 2.26   6 2.26  28 2.26  30 2.26
  41  0.250  0.250  0.001-   9 2.26  13 2.26   1 2.26   5 2.26
  42  0.750  0.250  0.001-  10 2.26  14 2.26   2 2.26   6 2.26
  43  0.250  0.750  0.001-  11 2.26  15 2.26   3 2.26   7 2.26
  44  0.750  0.750  0.001-  12 2.26  16 2.26   4 2.26   8 2.26
  45  0.000  0.250  0.751-  17 2.26  22 2.26   9 2.26  14 2.26
  46  0.500  0.250  0.751-  18 2.26  21 2.26  10 2.26  13 2.26
  47  0.000  0.750  0.751-  19 2.26  24 2.26  11 2.26  16 2.26
  48  0.500  0.750  0.751-  20 2.26  23 2.26  12 2.26  15 2.26
  49  0.000  0.000  0.001-  11 2.27  14 2.27   1 2.28   8 2.28
  50  0.500  0.000  0.001-  12 2.27  13 2.27   2 2.28   7 2.28
  51  0.000  0.500  0.001-   9 2.27  16 2.27   3 2.28   6 2.28
  52  0.500  0.500  0.001-  10 2.27  15 2.27   4 2.28   5 2.28
  53  0.250  0.000  0.751-  17 2.27  23 2.27  11 2.28  13 2.28
  54  0.750  0.000  0.751-  18 2.27  24 2.27  12 2.28  14 2.28
  55  0.250  0.500  0.751-  19 2.27  21 2.27   9 2.28  15 2.28
  56  0.750  0.500  0.751-  20 2.27  22 2.27  10 2.28  16 2.28
  57  0.250  0.250  0.501-  25 2.27  29 2.27  17 2.28  21 2.28
  58  0.750  0.250  0.501-  26 2.27  30 2.27  18 2.28  22 2.28
  59  0.250  0.750  0.501-  27 2.27  31 2.27  19 2.28  23 2.28
  60  0.750  0.750  0.501-  28 2.27  32 2.27  20 2.28  24 2.28
  61  0.000  0.250  0.251-   1 2.27   6 2.27  26 2.28  29 2.28
  62  0.500  0.250  0.251-   2 2.27   5 2.27  25 2.28  30 2.28
  63  0.000  0.750  0.251-   3 2.27   8 2.27  28 2.28  31 2.28
  64  0.500  0.750  0.251-   4 2.27   7 2.27  27 2.28  32 2.28
 
  LATTYP: Found a base centered orthorhombic cell.
 ALAT       =    14.7094473943
 B/A-ratio  =     1.0211482384
 C/A-ratio  =     0.7081654885
  
  Lattice vectors:
  
 A1 = (  10.5111330000,   0.1099830000,   0.0000000000)
 A2 = (  -0.1099830000, -10.5111330000,   0.0000000000)
 A3 = (   0.0000000000,   0.0000000000, -10.4167230000)


Analysis of symmetry for initial positions (statically):
=====================================================================
 Subroutine PRICEL returns following result:
 
  LATTYP: Found a face centered orthorhombic cell.
 ALAT       =     7.3547236971
 B/A-ratio  =     1.0211482384
 C/A-ratio  =     1.4163309771
  
  Lattice vectors:
  
 A1 = (  -2.6552790000,  -2.6552790000,   5.2083615000)
 A2 = (  -2.6002875000,   2.6002875000,   5.2083615000)
 A3 = (  -5.2555665000,  -0.0549915000,   0.0000000000)
 
   8 primitive cells build up your supercell.
 

 Routine SETGRP: Setting up the symmetry group for a 
 base centered orthorhombic supercell.


 Subroutine GETGRP returns: Found  4 space group operations
 (whereof  2 operations were pure point group operations)
 out of a pool of  8 trial point group operations.


The static configuration has the point symmetry C_2 .
 The point group associated with its full space group is C_2v.


Analysis of symmetry for dynamics (positions and initial velocities):
=====================================================================
 Subroutine PRICEL returns following result:
 
  LATTYP: Found a face centered orthorhombic cell.
 ALAT       =     7.3547236971
 B/A-ratio  =     1.0211482384
 C/A-ratio  =     1.4163309771
  
  Lattice vectors:
  
 A1 = (  -2.6552790000,  -2.6552790000,   5.2083615000)
 A2 = (  -2.6002875000,   2.6002875000,   5.2083615000)
 A3 = (  -5.2555665000,  -0.0549915000,   0.0000000000)
 
   8 primitive cells build up your supercell.
 

 Routine SETGRP: Setting up the symmetry group for a 
 base centered orthorhombic supercell.


 Subroutine GETGRP returns: Found  4 space group operations
 (whereof  2 operations were pure point group operations)
 out of a pool of  8 trial point group operations.


The dynamic configuration has the point symmetry C_2 .
 The point group associated with its full space group is C_2v.


Analysis of structural, dynamic, and magnetic symmetry:
=====================================================================
 Subroutine PRICEL returns following result:
 
  LATTYP: Found a face centered orthorhombic cell.
 ALAT       =     7.3547236971
 B/A-ratio  =     1.0211482384
 C/A-ratio  =     1.4163309771
  
  Lattice vectors:
  
 A1 = (  -2.6552790000,  -2.6552790000,   5.2083615000)
 A2 = (  -2.6002875000,   2.6002875000,   5.2083615000)
 A3 = (  -5.2555665000,  -0.0549915000,   0.0000000000)
 
   8 primitive cells build up your supercell.
 

 Routine SETGRP: Setting up the symmetry group for a 
 base centered orthorhombic supercell.


 Subroutine GETGRP returns: Found  4 space group operations
 (whereof  2 operations were pure point group operations)
 out of a pool of  8 trial point group operations.


The magnetic configuration has the point symmetry C_2 .
 The point group associated with its full space group is C_2v.


 Subroutine INISYM returns: Found  4 space group operations
 (whereof  2 operations are pure point group operations),
 and found     8 'primitive' translations

 
 
 KPOINTS: Automatic mesh                          

Automatic generation of k-mesh.
Space group operators:
 irot       det(A)        alpha          n_x          n_y          n_z        tau_x        tau_y        tau_z
    1     1.000000     0.000000     1.000000     0.000000     0.000000     0.000000     0.000000     0.000000
    2     1.000000   180.000000     0.000000     0.000000     1.000000     0.000000     0.000000     0.000000
    3    -1.000000   180.000000     0.707107     0.707107     0.000000    -0.750000    -0.000000     0.750000
    4    -1.000000   180.000000     0.707107    -0.707107     0.000000    -0.750000    -0.000000     0.750000
 
 Subroutine IBZKPT returns following result:
 ===========================================
 
 Found      6 irreducible k-points:
 
 Following reciprocal coordinates:
            Coordinates               Weight
  0.000000  0.000000  0.000000      1.000000
  0.500000  0.000000  0.000000      2.000000
  0.500000  0.500000  0.000000      1.000000
  0.000000  0.000000  0.500000      1.000000
  0.500000  0.000000  0.500000      2.000000
  0.500000  0.500000  0.500000      1.000000
 
 Following cartesian coordinates:
            Coordinates               Weight
  0.000000  0.000000  0.000000      1.000000
  0.047574 -0.000498  0.000000      2.000000
  0.047076  0.047076  0.000000      1.000000
  0.000000  0.000000  0.048000      1.000000
  0.047574 -0.000498  0.048000      2.000000
  0.047076  0.047076  0.048000      1.000000
 
 TETIRR: Found     12 inequivalent tetrahedra from       48
 
 Subroutine IBZKPT_HF returns following result:
 ==============================================
 
 Found      8 k-points in 1st BZ
 the following      8 k-points will be used (e.g. in the exchange kernel)
 Following reciprocal coordinates:   # in IRBZ
  0.000000  0.000000  0.000000    0.12500000   1 t-inv F
  0.500000  0.000000  0.000000    0.12500000   2 t-inv F
  0.500000  0.500000  0.000000    0.12500000   3 t-inv F
  0.000000  0.000000  0.500000    0.12500000   4 t-inv F
  0.500000  0.000000  0.500000    0.12500000   5 t-inv F
  0.500000  0.500000  0.500000    0.12500000   6 t-inv F
  0.000000 -0.500000  0.000000    0.12500000   2 t-inv F spinflp
  0.000000 -0.500000  0.500000    0.12500000   5 t-inv F spinflp


--------------------------------------------------------------------------------------------------------




 Dimension of arrays:
   k-points           NKPTS =      6   k-points in BZ     NKDIM =      6   number of bands    NBANDS=    512
   number of dos      NEDOS =    301   number of ions     NIONS =     64
   non local maximal  LDIM  =      6   non local SUM 2l+1 LMDIM =     18
   total plane-waves  NPLWV = 829440
   max r-space proj   IRMAX =      1   max aug-charges    IRDMAX=  22905
   dimension x,y,z NGX =    96 NGY =   96 NGZ =   90
   dimension x,y,z NGXF=   192 NGYF=  192 NGZF=  180
   support grid    NGXF=   192 NGYF=  192 NGZF=  180
   ions per type =              32  16  16
   NGX,Y,Z   is equivalent  to a cutoff of  15.18, 15.18, 14.36 a.u.
   NGXF,Y,Z  is equivalent  to a cutoff of  30.37, 30.37, 28.73 a.u.

 SYSTEM =  CuFeS2                                  
 POSCAR =  Fe16 Cu16 S32                           

 Startparameter for this run:
   NWRITE =      2    write-flag & timer
   PREC   = accura    normal or accurate (medium, high low for compatibility)
   ISTART =      1    job   : 0-new  1-cont  2-samecut
   ICHARG =      1    charge: 1-file 2-atom 10-const
   ISPIN  =      2    spin polarized calculation?
   LNONCOLLINEAR =      F non collinear calculations
   LSORBIT =      F    spin-orbit coupling
   INIWAV =      1    electr: 0-lowe 1-rand  2-diag
   LASPH  =      F    aspherical Exc in radial PAW
   METAGGA=      F    non-selfconsistent MetaGGA calc.

 Electronic Relaxation 1
   ENCUT  =  700.0 eV  51.45 Ry    7.17 a.u.  22.68 22.68 22.47*2*pi/ulx,y,z
   ENINI  =  700.0     initial cutoff
   ENAUG  =  758.2 eV  augmentation charge cutoff
   NELM   =    500;   NELMIN=  2; NELMDL=  0     # of ELM steps 
   EDIFF  = 0.1E-07   stopping-criterion for ELM
   LREAL  =      F    real-space projection
   NLSPLINE    = F    spline interpolate recip. space projectors
   LCOMPAT=      F    compatible to vasp.4.4
   GGA_COMPAT  = T    GGA compatible to vasp.4.4-vasp.4.6
   LMAXPAW     = -100 max onsite density
   LMAXMIX     =    4 max onsite mixed and CHGCAR
   VOSKOWN=      0    Vosko Wilk Nusair interpolation
   ROPT   =    0.00000   0.00000   0.00000
 Ionic relaxation
   EDIFFG = -.1E-04   stopping-criterion for IOM
   NSW    =      0    number of steps for IOM
   NBLOCK =      1;   KBLOCK =      1    inner block; outer block 
   IBRION =     -1    ionic relax: 0-MD 1-quasi-New 2-CG
   NFREE  =      0    steps in history (QN), initial steepest desc. (CG)
   ISIF   =      2    stress and relaxation
   IWAVPR =     10    prediction:  0-non 1-charg 2-wave 3-comb
   ISYM   =      2    0-nonsym 1-usesym 2-fastsym
   LCORR  =      T    Harris-Foulkes like correction to forces

   POTIM  = 0.5000    time-step for ionic-motion
   TEIN   =    0.0    initial temperature
   TEBEG  =    0.0;   TEEND  =   0.0 temperature during run
   SMASS  =  -3.00    Nose mass-parameter (am)
   estimated Nose-frequenzy (Omega)   =  0.10E-29 period in steps =****** mass=  -0.253E-26a.u.
   SCALEE = 1.0000    scale energy and forces
   NPACO  =    256;   APACO  = 16.0  distance and # of slots for P.C.
   PSTRESS=    0.0 pullay stress

  Mass of Ions in am
   POMASS =  32.07 63.55 55.85
  Ionic Valenz
   ZVAL   =   6.00 17.00 14.00
  Atomic Wigner-Seitz radii
   RWIGS  =  -1.00 -1.00 -1.00
  virtual crystal weights 
   VCA    =   1.00  1.00  1.00
   NELECT =     688.0000    total number of electrons
   NUPDOWN=      -1.0000    fix difference up-down

 DOS related values:
   EMIN   =  10.00;   EMAX   =-10.00  energy-range for DOS
   EFERMI =   0.00
   ISMEAR =    -5;   SIGMA  =   0.03  broadening in eV -4-tet -1-fermi 0-gaus

 Electronic relaxation 2 (details)
   IALGO  =     38    algorithm
   LDIAG  =      T    sub-space diagonalisation (order eigenvalues)
   LSUBROT=      F    optimize rotation matrix (better conditioning)
   TURBO    =      0    0=normal 1=particle mesh
   IRESTART =      0    0=no restart 2=restart with 2 vectors
   NREBOOT  =      0    no. of reboots
   NMIN     =      0    reboot dimension
   EREF     =   0.00    reference energy to select bands
   IMIX   =      4    mixing-type and parameters
     AMIX     =   0.40;   BMIX     =  1.00
     AMIX_MAG =   1.60;   BMIX_MAG =  1.00
     AMIN     =   0.10
     WC   =   100.;   INIMIX=   1;  MIXPRE=   1;  MAXMIX= -45

 Intra band minimization:
   WEIMIN = 0.0000     energy-eigenvalue tresh-hold
   EBREAK =  0.49E-11  absolut break condition
   DEPER  =   0.30     relativ break condition  

   TIME   =   0.40     timestep for ELM

  volume/ion in A,a.u.               =      17.98       121.34
  Fermi-wavevector in a.u.,A,eV,Ry     =   1.379146  2.606207 25.878858  1.902042
  Thomas-Fermi vector in A             =   2.504142
 
 Write flags
   LWAVE        =      T    write WAVECAR
   LDOWNSAMPLE  =      F    k-point downsampling of WAVECAR
   LCHARG       =      T    write CHGCAR
   LVTOT        =      F    write LOCPOT, total local potential
   LVHAR        =      F    write LOCPOT, Hartree potential only
   LELF         =      F    write electronic localiz. function (ELF)
   LORBIT       =     11    0 simple, 1 ext, 2 COOP (PROOUT), +10 PAW based schemes


 Dipole corrections
   LMONO  =      F    monopole corrections only (constant potential shift)
   LDIPOL =      F    correct potential (dipole corrections)
   IDIPOL =      0    1-x, 2-y, 3-z, 4-all directions 
   EPSILON=  1.0000000 bulk dielectric constant

 LDA+U is selected, type is set to LDAUTYPE =  2
   angular momentum for each species LDAUL =     2    2    2
   U (eV)           for each species LDAUU =   0.0  0.1  4.7
   J (eV)           for each species LDAUJ =   0.0  0.0  0.0
 Exchange correlation treatment:
   GGA     =    PS    GGA type
   LEXCH   =    14    internal setting for exchange type
   VOSKOWN=      0    Vosko Wilk Nusair interpolation
   LHFCALC =     F    Hartree Fock is set to
   LHFONE  =     F    Hartree Fock one center treatment
   AEXX    =    0.0000 exact exchange contribution

 Linear response parameters
   LEPSILON=     F    determine dielectric tensor
   LRPA    =     F    only Hartree local field effects (RPA)
   LNABLA  =     F    use nabla operator in PAW spheres
   LVEL    =     F    velocity operator in full k-point grid
   LINTERFAST=   F  fast interpolation
   KINTER  =     0    interpolate to denser k-point grid
   CSHIFT  =0.1000    complex shift for real part using Kramers Kronig
   OMEGAMAX=  -1.0    maximum frequency
   DEG_THRESHOLD= 0.2000000E-02 threshold for treating states as degnerate
   RTIME   =   -0.100 relaxation time in fs
  (WPLASMAI=    0.000 imaginary part of plasma frequency in eV, 0.658/RTIME)
   DFIELD  = 0.0000000 0.0000000 0.0000000 field for delta impulse in time
 
 Orbital magnetization related:
   ORBITALMAG=     F  switch on orbital magnetization
   LCHIMAG   =     F  perturbation theory with respect to B field
   DQ        =  0.001000  dq finite difference perturbation B field
   LLRAUG    =     F  two centre corrections for induced B field

 PEAD related settings:
   LPEAD      =     T    switch on PEAD
   IPEAD      =     4    finite difference order for dpsi/dk
   LCALCPOL   =     T    calculate macroscopic polarization
   LCALCEPS   =     F    calculate dielectric tensor
   EFIELD_PEAD=    0.0000    0.0000    0.0000
   SKIP_EDOTP =     F
   LRPA       =     F
   SKIP_SCF   =     F


--------------------------------------------------------------------------------------------------------


 Static calculation
 charge density and potential will be updated during run
 spin polarized calculation
 Variant of blocked Davidson
 Davidson routine will perform the subspace rotation
 perform sub-space diagonalisation
    after iterative eigenvector-optimisation
 modified Broyden-mixing scheme, WC =      100.0
 initial mixing is a Kerker type mixing with AMIX =  0.4000 and BMIX =      1.0000
 Hartree-type preconditioning will be used
 using additional bands          168
 reciprocal scheme for non local part
 use partial core corrections
 calculate Harris-corrections to forces 
   (improved forces if not selfconsistent)
 use gradient corrections 
 use of overlap-Matrix (Vanderbilt PP)
 Fermi weights with tetrahedron method with Bloechl corrections


--------------------------------------------------------------------------------------------------------


  energy-cutoff  :      700.00
  volume of cell :     1150.75
      direct lattice vectors                 reciprocal lattice vectors
    10.511133000  0.109983000  0.000000000     0.095147640 -0.000995575  0.000000000
     0.109983000 10.511133000  0.000000000    -0.000995575  0.095147640  0.000000000
     0.000000000  0.000000000 10.416723000     0.000000000  0.000000000  0.095999481

  length of vectors
    10.511708387 10.511708387 10.416723000     0.095152848  0.095152848  0.095999481


 
 old parameters found on file WAVECAR:
  energy-cutoff  :      700.00
  volume of cell :     1150.75
      direct lattice vectors                 reciprocal lattice vectors
    10.511133000  0.109983000  0.000000000     0.095147640 -0.000995575  0.000000000
     0.109983000 10.511133000  0.000000000    -0.000995575  0.095147640  0.000000000
     0.000000000  0.000000000 10.416723000     0.000000000  0.000000000  0.095999481

  length of vectors

 
 k-points in units of 2pi/SCALE and weight: Automatic mesh                          
   0.00000000  0.00000000  0.00000000       0.125
   0.04757382 -0.00049779  0.00000000       0.250
   0.04707603  0.04707603  0.00000000       0.125
   0.00000000  0.00000000  0.04799974       0.125
   0.04757382 -0.00049779  0.04799974       0.250
   0.04707603  0.04707603  0.04799974       0.125
 
 k-points in reciprocal lattice and weights: Automatic mesh                          
   0.00000000  0.00000000  0.00000000       0.125
   0.50000000  0.00000000  0.00000000       0.250
   0.50000000  0.50000000  0.00000000       0.125
   0.00000000  0.00000000  0.50000000       0.125
   0.50000000  0.00000000  0.50000000       0.250
   0.50000000  0.50000000  0.50000000       0.125
 
 position of ions in fractional coordinates (direct lattice) 
   0.12614800  0.12512000  0.12383400
   0.62614800  0.12512000  0.12383400
   0.12614800  0.62512000  0.12383400
   0.62614800  0.62512000  0.12383400
   0.37385200  0.37488000  0.12383400
   0.87385200  0.37488000  0.12383400
   0.37385200  0.87488000  0.12383400
   0.87385200  0.87488000  0.12383400
   0.12488000  0.37385200  0.87383400
   0.62488000  0.37385200  0.87383400
   0.12488000  0.87385200  0.87383400
   0.62488000  0.87385200  0.87383400
   0.37512000  0.12614800  0.87383400
   0.87512000  0.12614800  0.87383400
   0.37512000  0.62614800  0.87383400
   0.87512000  0.62614800  0.87383400
   0.12385200  0.12488000  0.62383400
   0.62385200  0.12488000  0.62383400
   0.12385200  0.62488000  0.62383400
   0.62385200  0.62488000  0.62383400
   0.37614800  0.37512000  0.62383400
   0.87614800  0.37512000  0.62383400
   0.37614800  0.87512000  0.62383400
   0.87614800  0.87512000  0.62383400
   0.37488000  0.12385200  0.37383400
   0.87488000  0.12385200  0.37383400
   0.37488000  0.62385200  0.37383400
   0.87488000  0.62385200  0.37383400
   0.12512000  0.37614800  0.37383400
   0.62512000  0.37614800  0.37383400
   0.12512000  0.87614800  0.37383400
   0.62512000  0.87614800  0.37383400
   0.00000000  0.00000000  0.50101400
   0.50000000  0.00000000  0.50101400
   0.00000000  0.50000000  0.50101400
   0.50000000  0.50000000  0.50101400
   0.25000000  0.00000000  0.25101400
   0.75000000  0.00000000  0.25101400
   0.25000000  0.50000000  0.25101400
   0.75000000  0.50000000  0.25101400
   0.25000000  0.25000000  0.00101400
   0.75000000  0.25000000  0.00101400
   0.25000000  0.75000000  0.00101400
   0.75000000  0.75000000  0.00101400
   0.00000000  0.25000000  0.75101400
   0.50000000  0.25000000  0.75101400
   0.00000000  0.75000000  0.75101400
   0.50000000  0.75000000  0.75101400
   0.00000000  0.00000000  0.00131700
   0.50000000  0.00000000  0.00131700
   0.00000000  0.50000000  0.00131700
   0.50000000  0.50000000  0.00131700
   0.25000000  0.00000000  0.75131700
   0.75000000  0.00000000  0.75131700
   0.25000000  0.50000000  0.75131700
   0.75000000  0.50000000  0.75131700
   0.25000000  0.25000000  0.50131700
   0.75000000  0.25000000  0.50131700
   0.25000000  0.75000000  0.50131700
   0.75000000  0.75000000  0.50131700
   0.00000000  0.25000000  0.25131700
   0.50000000  0.25000000  0.25131700
   0.00000000  0.75000000  0.25131700
   0.50000000  0.75000000  0.25131700
 
 position of ions in cartesian coordinates  (Angst):
   1.33971948  1.32902710  1.28994448
   6.59528598  1.38401860  1.28994448
   1.39471098  6.58459360  1.28994448
   6.65027748  6.63958510  1.28994448
   3.97083852  3.98153090  1.28994448
   9.22640502  4.03652240  1.28994448
   4.02583002  9.23709740  1.28994448
   9.28139652  9.29208890  1.28994448
   1.35374765  3.94334277  9.10248673
   6.60931415  3.99833427  9.10248673
   1.40873915  9.19890927  9.10248673
   6.66430565  9.25390077  9.10248673
   3.95681035  1.36721523  9.10248673
   9.21237685  1.42220673  9.10248673
   4.01180185  6.62278173  9.10248673
   9.26736835  6.67777323  9.10248673
   1.31555952  1.32625190  6.49830598
   6.57112602  1.38124340  6.49830598
   1.37055102  6.58181840  6.49830598
   6.62611752  6.63680990  6.49830598
   3.99499848  3.98430610  6.49830598
   9.25056498  4.03929760  6.49830598
   4.04998998  9.23987260  6.49830598
   9.30555648  9.29486410  6.49830598
   3.95403515  1.34305527  3.89412523
   9.20960165  1.39804677  3.89412523
   4.00902665  6.59862177  3.89412523
   9.26459315  6.65361327  3.89412523
   1.35652285  3.96750273  3.89412523
   6.61208935  4.02249423  3.89412523
   1.41151435  9.22306923  3.89412523
   6.66708085  9.27806073  3.89412523
   0.00000000  0.00000000  5.21892406
   5.25556650  0.05499150  5.21892406
   0.05499150  5.25556650  5.21892406
   5.31055800  5.31055800  5.21892406
   2.62778325  0.02749575  2.61474331
   7.88334975  0.08248725  2.61474331
   2.68277475  5.28306225  2.61474331
   7.93834125  5.33805375  2.61474331
   2.65527900  2.65527900  0.01056256
   7.91084550  2.71027050  0.01056256
   2.71027050  7.91084550  0.01056256
   7.96583700  7.96583700  0.01056256
   0.02749575  2.62778325  7.82310481
   5.28306225  2.68277475  7.82310481
   0.08248725  7.88334975  7.82310481
   5.33805375  7.93834125  7.82310481
   0.00000000  0.00000000  0.01371882
   5.25556650  0.05499150  0.01371882
   0.05499150  5.25556650  0.01371882
   5.31055800  5.31055800  0.01371882
   2.62778325  0.02749575  7.82626107
   7.88334975  0.08248725  7.82626107
   2.68277475  5.28306225  7.82626107
   7.93834125  5.33805375  7.82626107
   2.65527900  2.65527900  5.22208032
   7.91084550  2.71027050  5.22208032
   2.71027050  7.91084550  5.22208032
   7.96583700  7.96583700  5.22208032
   0.02749575  2.62778325  2.61789957
   5.28306225  2.68277475  2.61789957
   0.08248725  7.88334975  2.61789957
   5.33805375  7.93834125  2.61789957
 


--------------------------------------------------------------------------------------------------------


 k-point  1 :   0.0000 0.0000 0.0000  plane waves:   48431
 k-point  2 :   0.5000 0.0000 0.0000  plane waves:   48392
 k-point  3 :   0.5000 0.5000 0.0000  plane waves:   48432
 k-point  4 :   0.0000 0.0000 0.5000  plane waves:   48320
 k-point  5 :   0.5000 0.0000 0.5000  plane waves:   48380
 k-point  6 :   0.5000 0.5000 0.5000  plane waves:   48300

 maximum and minimum number of plane-waves per node :     48432    48300

 maximum number of plane-waves:     48432
 maximum index in each direction: 
   IXMAX=   22   IYMAX=   22   IZMAX=   22
   IXMIN=  -23   IYMIN=  -23   IZMIN=  -22


 serial   3D FFT for wavefunctions
 parallel 3D FFT for charge:
    minimum data exchange during FFTs selected (reduces bandwidth)


 total amount of memory used by VASP MPI-rank0   301249. kBytes
=======================================================================

   base      :      30000. kBytes
   nonl-proj :     175882. kBytes
   fftplans  :       4588. kBytes
   grid      :      69719. kBytes
   one-center:       1990. kBytes
   wavefun   :      19070. kBytes
 
     INWAV:  cpu time   11.2839: real time   11.4068
 Broyden mixing: mesh for mixing (old mesh)
   NGX = 45   NGY = 45   NGZ = 45
  (NGX  =192   NGY  =192   NGZ  =180)
  gives a total of  91125 points

 initial charge density was supplied:
 number of electron     688.0000479 magnetization      -0.0000000
 keeping initial charge density in first step


--------------------------------------------------------------------------------------------------------


 Maximum index for augmentation-charges          899 (set IRDMAX)


--------------------------------------------------------------------------------------------------------


 First call to EWALD:  gamma=   0.169
 Maximum number of real-space cells 3x 3x 3
 Maximum number of reciprocal cells 3x 3x 3

    FEWALD:  cpu time    0.0028: real time    0.0032


--------------------------------------- Iteration      1(   1)  ---------------------------------------


    POTLOK:  cpu time    0.3323: real time    0.3852
    SETDIJ:  cpu time    0.0149: real time    0.0149
     EDDAV:  cpu time  140.2442: real time  141.3797
 BZINTS: Fermi energy:  4.935356;688.000000 electrons
         Band energy:***********;  BLOECHL correction:  0.000000
       DOS:  cpu time    0.0034: real time    0.0034
    CHARGE:  cpu time    1.2054: real time    1.2125
    MIXING:  cpu time    0.0024: real time    0.0024
    --------------------------------------------
      LOOP:  cpu time  141.8025: real time  142.9983

 eigenvalue-minimisations  : 18944
 total energy-change (2. order) :-0.2984519E+03  (-0.1767461E+03)
 number of electron     688.0000481 magnetization      -0.0000000
 augmentation part      283.1655041 magnetization      -0.0000000

 Broyden mixing:
  rms(total) = 0.41595E+01    rms(broyden)= 0.41595E+01
  rms(prec ) = 0.41612E+01
  weight for this iteration     100.00

 Free energy of the ion-electron system (eV)
  ---------------------------------------------------
  alpha Z        PSCENC =      2355.97678363
  Ewald energy   TEWEN  =    -62467.79775158
  -Hartree energ DENC   =    -42965.37998885
  -exchange      EXHF   =         0.00000000
  -V(xc)+E(xc)   XCENC  =      3287.10696540
  PAW double counting   =    112319.58509790  -116012.38745704
  entropy T*S    EENTRO =         0.00000000
  eigenvalues    EBANDS =    -10835.62069542
  atomic energy  EATOM  =    114020.06510763
  Solvation  Ediel_sol  =         0.00000000
  ---------------------------------------------------
  free energy    TOTEN  =      -298.45193833 eV

  energy without entropy =     -298.45193833  energy(sigma->0) =     -298.45193833


--------------------------------------------------------------------------------------------------------




--------------------------------------- Iteration      1(   2)  ---------------------------------------


    POTLOK:  cpu time    0.1216: real time    0.1249
    SETDIJ:  cpu time    0.0126: real time    0.0127
     EDDAV:  cpu time   79.3342: real time   79.9162
 BZINTS: Fermi energy:  4.881127;688.000000 electrons
         Band energy:***********;  BLOECHL correction:  0.000000
       DOS:  cpu time    0.0032: real time    0.0032
    CHARGE:  cpu time    1.2368: real time    1.2447
    MIXING:  cpu time    0.0031: real time    0.1921
    --------------------------------------------
      LOOP:  cpu time   80.7115: real time   81.4939

 eigenvalue-minimisations  : 13824
 total energy-change (2. order) :-0.2932897E+02  (-0.2940793E+02)
 number of electron     688.0000479 magnetization      -0.0000000
 augmentation part      281.4471042 magnetization      -0.0000000

 Broyden mixing:
  rms(total) = 0.16957E+01    rms(broyden)= 0.16957E+01
  rms(prec ) = 0.17120E+01
  weight for this iteration     100.00

 eigenvalues of (default mixing * dielectric matrix)
  average eigenvalue GAMMA=   0.6995
  0.6995

 Free energy of the ion-electron system (eV)
  ---------------------------------------------------
  alpha Z        PSCENC =      2355.97678363
  Ewald energy   TEWEN  =    -62467.79775158
  -Hartree energ DENC   =    -42977.81867056
  -exchange      EXHF   =         0.00000000
  -V(xc)+E(xc)   XCENC  =      3287.43939408
  PAW double counting   =    115886.89279406  -119596.68035469
  entropy T*S    EENTRO =         0.00000000
  eigenvalues    EBANDS =    -10835.85821372
  atomic energy  EATOM  =    114020.06510763
  Solvation  Ediel_sol  =         0.00000000
  ---------------------------------------------------
  free energy    TOTEN  =      -327.78091116 eV

  energy without entropy =     -327.78091116  energy(sigma->0) =     -327.78091116


--------------------------------------------------------------------------------------------------------




--------------------------------------- Iteration      1(   3)  ---------------------------------------


    POTLOK:  cpu time    0.1337: real time    0.1346
    SETDIJ:  cpu time    0.0158: real time    0.0159
     EDDAV:  cpu time  137.8370: real time  138.7483
 BZINTS: Fermi energy:  4.860337;688.000000 electrons
         Band energy:***********;  BLOECHL correction:  0.000000
       DOS:  cpu time    0.0027: real time    0.0027
    CHARGE:  cpu time    1.2006: real time    1.2088
    MIXING:  cpu time    0.0015: real time    0.0264
    --------------------------------------------
      LOOP:  cpu time  139.1913: real time  140.1367

 eigenvalue-minimisations  : 18688
 total energy-change (2. order) :-0.3141543E+00  (-0.5368609E+00)
 number of electron     688.0000480 magnetization      -0.0000000
 augmentation part      282.3457507 magnetization      -0.0000000

 Broyden mixing:
  rms(total) = 0.12700E+01    rms(broyden)= 0.12700E+01
  rms(prec ) = 0.12865E+01
  weight for this iteration     100.00

 eigenvalues of (default mixing * dielectric matrix)
  average eigenvalue GAMMA=   0.5058
  0.5058  0.5058

 Free energy of the ion-electron system (eV)
  ---------------------------------------------------
  alpha Z        PSCENC =      2355.97678363
  Ewald energy   TEWEN  =    -62467.79775158
  -Hartree energ DENC   =    -42941.54716181
  -exchange      EXHF   =         0.00000000
  -V(xc)+E(xc)   XCENC  =      3286.76277845
  PAW double counting   =    114885.76706496  -118585.71021643
  entropy T*S    EENTRO =         0.00000000
  eigenvalues    EBANDS =    -10881.61167028
  atomic energy  EATOM  =    114020.06510763
  Solvation  Ediel_sol  =         0.00000000
  ---------------------------------------------------
  free energy    TOTEN  =      -328.09506544 eV

  energy without entropy =     -328.09506544  energy(sigma->0) =     -328.09506544


--------------------------------------------------------------------------------------------------------




--------------------------------------- Iteration      1(   4)  ---------------------------------------


    POTLOK:  cpu time    0.1230: real time    0.1238
    SETDIJ:  cpu time    0.0128: real time    0.0128
     EDDAV:  cpu time   85.5257: real time   86.1359
 BZINTS: Fermi energy:  4.845174;688.000000 electrons
         Band energy:***********;  BLOECHL correction:  0.000000
       DOS:  cpu time    0.0027: real time    0.0028
    CHARGE:  cpu time    1.2015: real time    1.2099
    MIXING:  cpu time    0.0016: real time    0.0176
    --------------------------------------------
      LOOP:  cpu time   86.8672: real time   87.5028

 eigenvalue-minimisations  : 14080
 total energy-change (2. order) : 0.1570215E-01  (-0.7580534E-01)
 number of electron     688.0000480 magnetization      -0.0000000
 augmentation part      282.1792913 magnetization      -0.0000000

 Broyden mixing:
  rms(total) = 0.10576E+01    rms(broyden)= 0.10576E+01
  rms(prec ) = 0.10586E+01
  weight for this iteration     100.00

 eigenvalues of (default mixing * dielectric matrix)
  average eigenvalue GAMMA=   0.5343
  0.6296  0.6296  0.3438

 Free energy of the ion-electron system (eV)
  ---------------------------------------------------
  alpha Z        PSCENC =      2355.97678363
  Ewald energy   TEWEN  =    -62467.79775158
  -Hartree energ DENC   =    -42942.86293074
  -exchange      EXHF   =         0.00000000
  -V(xc)+E(xc)   XCENC  =      3286.40375173
  PAW double counting   =    114586.84620333  -118287.52227641
  entropy T*S    EENTRO =         0.00000000
  eigenvalues    EBANDS =    -10879.18825088
  atomic energy  EATOM  =    114020.06510763
  Solvation  Ediel_sol  =         0.00000000
  ---------------------------------------------------
  free energy    TOTEN  =      -328.07936329 eV

  energy without entropy =     -328.07936329  energy(sigma->0) =     -328.07936329


--------------------------------------------------------------------------------------------------------




--------------------------------------- Iteration      1(   5)  ---------------------------------------


    POTLOK:  cpu time    0.1240: real time    0.1248
    SETDIJ:  cpu time    0.0127: real time    0.0127
     EDDAV:  cpu time  104.7766: real time  105.4973
 BZINTS: Fermi energy:  4.850137;688.000000 electrons
         Band energy:***********;  BLOECHL correction:  0.000000
       DOS:  cpu time    0.0028: real time    0.0028
    CHARGE:  cpu time    1.2011: real time    1.2087
    MIXING:  cpu time    0.0014: real time    0.0014
    --------------------------------------------
      LOOP:  cpu time  106.1185: real time  106.8476

 eigenvalue-minimisations  : 16128
 total energy-change (2. order) :-0.7348969E-03  (-0.4770819E-02)
 number of electron     688.0000480 magnetization       0.0000000
 augmentation part      282.1142086 magnetization       0.0000000

 Broyden mixing:
  rms(total) = 0.91191E+00    rms(broyden)= 0.91191E+00
  rms(prec ) = 0.91217E+00
  weight for this iteration     100.00

 eigenvalues of (default mixing * dielectric matrix)
  average eigenvalue GAMMA=   0.5688
  0.7837  0.7837  0.3539  0.3539

 Free energy of the ion-electron system (eV)
  ---------------------------------------------------
  alpha Z        PSCENC =      2355.97678363
  Ewald energy   TEWEN  =    -62467.79775158
  -Hartree energ DENC   =    -42950.89158561
  -exchange      EXHF   =         0.00000000
  -V(xc)+E(xc)   XCENC  =      3286.61675340
  PAW double counting   =    114236.20141207  -117936.56477603
  entropy T*S    EENTRO =         0.00000000
  eigenvalues    EBANDS =    -10871.68604170
  atomic energy  EATOM  =    114020.06510763
  Solvation  Ediel_sol  =         0.00000000
  ---------------------------------------------------
  free energy    TOTEN  =      -328.08009819 eV

  energy without entropy =     -328.08009819  energy(sigma->0) =     -328.08009819


--------------------------------------------------------------------------------------------------------




--------------------------------------- Iteration      1(   6)  ---------------------------------------


    POTLOK:  cpu time    0.1232: real time    0.1241
    SETDIJ:  cpu time    0.0127: real time    0.0128
     EDDAV:  cpu time   99.5213: real time  100.2145
 BZINTS: Fermi energy:  4.849114;688.000000 electrons
         Band energy:***********;  BLOECHL correction:  0.000000
       DOS:  cpu time    0.0028: real time    0.0028
    CHARGE:  cpu time    1.1988: real time    1.2071
    MIXING:  cpu time    0.0014: real time    0.0014
    --------------------------------------------
      LOOP:  cpu time  100.8603: real time  101.5627

 eigenvalue-minimisations  : 15360
 total energy-change (2. order) : 0.4234972E-03  (-0.3732933E-03)
 number of electron     688.0000480 magnetization      -0.0000000
 augmentation part      282.1078452 magnetization      -0.0000000

 Broyden mixing:
  rms(total) = 0.73468E+00    rms(broyden)= 0.73468E+00
  rms(prec ) = 0.73512E+00
  weight for this iteration     100.00

 eigenvalues of (default mixing * dielectric matrix)
  average eigenvalue GAMMA=   0.8121
  1.3259  1.3259  0.5396  0.5396  0.3295

 Free energy of the ion-electron system (eV)
  ---------------------------------------------------
  alpha Z        PSCENC =      2355.97678363
  Ewald energy   TEWEN  =    -62467.79775158
  -Hartree energ DENC   =    -42952.32340916
  -exchange      EXHF   =         0.00000000
  -V(xc)+E(xc)   XCENC  =      3286.59623682
  PAW double counting   =    113829.13257937  -117528.15455857
  entropy T*S    EENTRO =         0.00000000
  eigenvalues    EBANDS =    -10871.57466283
  atomic energy  EATOM  =    114020.06510763
  Solvation  Ediel_sol  =         0.00000000
  ---------------------------------------------------
  free energy    TOTEN  =      -328.07967469 eV

  energy without entropy =     -328.07967469  energy(sigma->0) =     -328.07967469


--------------------------------------------------------------------------------------------------------




--------------------------------------- Iteration      1(   7)  ---------------------------------------


    POTLOK:  cpu time    0.1232: real time    0.1240
    SETDIJ:  cpu time    0.0126: real time    0.0127
     EDDAV:  cpu time  121.3529: real time  122.1691
 BZINTS: Fermi energy:  4.847946;688.000000 electrons
         Band energy:***********;  BLOECHL correction:  0.000000
       DOS:  cpu time    0.0028: real time    0.0028
    CHARGE:  cpu time    1.1973: real time    1.2051
    MIXING:  cpu time    0.0015: real time    0.0015
    --------------------------------------------
      LOOP:  cpu time  122.6902: real time  123.5152

 eigenvalue-minimisations  : 16896
 total energy-change (2. order) : 0.2283716E-02  (-0.7760955E-03)
 number of electron     688.0000480 magnetization      -0.0000000
 augmentation part      282.2102463 magnetization      -0.0000000

 Broyden mixing:
  rms(total) = 0.15197E+00    rms(broyden)= 0.15197E+00
  rms(prec ) = 0.15218E+00
  weight for this iteration     100.00

 eigenvalues of (default mixing * dielectric matrix)
  average eigenvalue GAMMA=   0.8731
  1.5553  1.5553  0.6159  0.6159  0.5583  0.3380

 Free energy of the ion-electron system (eV)
  ---------------------------------------------------
  alpha Z        PSCENC =      2355.97678363
  Ewald energy   TEWEN  =    -62467.79775158
  -Hartree energ DENC   =    -42953.44252785
  -exchange      EXHF   =         0.00000000
  -V(xc)+E(xc)   XCENC  =      3286.51787586
  PAW double counting   =    112524.59135440  -116218.92183973
  entropy T*S    EENTRO =         0.00000000
  eigenvalues    EBANDS =    -10875.06639333
  atomic energy  EATOM  =    114020.06510763
  Solvation  Ediel_sol  =         0.00000000
  ---------------------------------------------------
  free energy    TOTEN  =      -328.07739098 eV

  energy without entropy =     -328.07739098  energy(sigma->0) =     -328.07739098


--------------------------------------------------------------------------------------------------------




--------------------------------------- Iteration      1(   8)  ---------------------------------------


    POTLOK:  cpu time    0.1236: real time    0.1243
    SETDIJ:  cpu time    0.0125: real time    0.0126
     EDDAV:  cpu time   79.5140: real time   80.0919
 BZINTS: Fermi energy:  4.848149;688.000000 electrons
         Band energy:***********;  BLOECHL correction:  0.000000
       DOS:  cpu time    0.0027: real time    0.0028
    CHARGE:  cpu time    1.1996: real time    1.2075
    MIXING:  cpu time    0.0015: real time    0.0015
    --------------------------------------------
      LOOP:  cpu time   80.8539: real time   81.4406

 eigenvalue-minimisations  : 13312
 total energy-change (2. order) :-0.2539804E-04  (-0.3275588E-04)
 number of electron     688.0000480 magnetization      -0.0000000
 augmentation part      282.2057323 magnetization      -0.0000000

 Broyden mixing:
  rms(total) = 0.10189E+00    rms(broyden)= 0.10189E+00
  rms(prec ) = 0.10216E+00
  weight for this iteration     100.00

 eigenvalues of (default mixing * dielectric matrix)
  average eigenvalue GAMMA=   0.7977
  1.5773  1.5773  0.6252  0.6252  0.5168  0.3577  0.3040

 Free energy of the ion-electron system (eV)
  ---------------------------------------------------
  alpha Z        PSCENC =      2355.97678363
  Ewald energy   TEWEN  =    -62467.79775158
  -Hartree energ DENC   =    -42954.05094512
  -exchange      EXHF   =         0.00000000
  -V(xc)+E(xc)   XCENC  =      3286.52876800
  PAW double counting   =    112432.95357276  -116127.14769205
  entropy T*S    EENTRO =         0.00000000
  eigenvalues    EBANDS =    -10874.60525965
  atomic energy  EATOM  =    114020.06510763
  Solvation  Ediel_sol  =         0.00000000
  ---------------------------------------------------
  free energy    TOTEN  =      -328.07741638 eV

  energy without entropy =     -328.07741638  energy(sigma->0) =     -328.07741638


--------------------------------------------------------------------------------------------------------




--------------------------------------- Iteration      1(   9)  ---------------------------------------


    POTLOK:  cpu time    0.1243: real time    0.1251
    SETDIJ:  cpu time    0.0125: real time    0.0125
     EDDAV:  cpu time  136.5911: real time  137.4743
 BZINTS: Fermi energy:  4.848118;688.000000 electrons
         Band energy:***********;  BLOECHL correction:  0.000000
       DOS:  cpu time    0.0028: real time    0.0028
    CHARGE:  cpu time    1.1996: real time    1.2067
    MIXING:  cpu time    0.0017: real time    0.0017
    --------------------------------------------
      LOOP:  cpu time  137.9319: real time  138.8231

 eigenvalue-minimisations  : 17920
 total energy-change (2. order) : 0.1734513E-04  (-0.2478529E-05)
 number of electron     688.0000480 magnetization       0.0000000
 augmentation part      282.2071580 magnetization       0.0000000

 Broyden mixing:
  rms(total) = 0.91173E-01    rms(broyden)= 0.91173E-01
  rms(prec ) = 0.91384E-01
  weight for this iteration     100.00

 eigenvalues of (default mixing * dielectric matrix)
  average eigenvalue GAMMA=   1.1208
  2.3627  2.3627  1.0421  1.0421  0.3357  0.5940  0.5940  0.6335

 Free energy of the ion-electron system (eV)
  ---------------------------------------------------
  alpha Z        PSCENC =      2355.97678363
  Ewald energy   TEWEN  =    -62467.79775158
  -Hartree energ DENC   =    -42953.91208342
  -exchange      EXHF   =         0.00000000
  -V(xc)+E(xc)   XCENC  =      3286.52746101
  PAW double counting   =    112422.42003115  -116116.61774922
  entropy T*S    EENTRO =         0.00000000
  eigenvalues    EBANDS =    -10874.73919823
  atomic energy  EATOM  =    114020.06510763
  Solvation  Ediel_sol  =         0.00000000
  ---------------------------------------------------
  free energy    TOTEN  =      -328.07739903 eV

  energy without entropy =     -328.07739903  energy(sigma->0) =     -328.07739903


--------------------------------------------------------------------------------------------------------




--------------------------------------- Iteration      1(  10)  ---------------------------------------


    POTLOK:  cpu time    0.1209: real time    0.1243
    SETDIJ:  cpu time    0.0128: real time    0.0129
     EDDAV:  cpu time   86.0440: real time   86.6558
 BZINTS: Fermi energy:  4.848019;688.000000 electrons
         Band energy:***********;  BLOECHL correction:  0.000000
       DOS:  cpu time    0.0028: real time    0.0028
    CHARGE:  cpu time    1.4681: real time    1.4772
    MIXING:  cpu time    0.0019: real time    0.0019
    --------------------------------------------
      LOOP:  cpu time   87.6505: real time   88.2748

 eigenvalue-minimisations  : 13824
 total energy-change (2. order) : 0.4946506E-04  (-0.4023771E-04)
 number of electron     688.0000480 magnetization       0.0000000
 augmentation part      282.2197193 magnetization       0.0000000

 Broyden mixing:
  rms(total) = 0.41901E-02    rms(broyden)= 0.41899E-02
  rms(prec ) = 0.42191E-02
  weight for this iteration     100.00

 eigenvalues of (default mixing * dielectric matrix)
  average eigenvalue GAMMA=   1.0567
  2.7728  1.7366  1.3585  0.8297  0.3357  0.7545  0.5825  0.5825  0.5574

 Free energy of the ion-electron system (eV)
  ---------------------------------------------------
  alpha Z        PSCENC =      2355.97678363
  Ewald energy   TEWEN  =    -62467.79775158
  -Hartree energ DENC   =    -42953.41242952
  -exchange      EXHF   =         0.00000000
  -V(xc)+E(xc)   XCENC  =      3286.51724689
  PAW double counting   =    112288.61756843  -115982.57336166
  entropy T*S    EENTRO =         0.00000000
  eigenvalues    EBANDS =    -10875.47051338
  atomic energy  EATOM  =    114020.06510763
  Solvation  Ediel_sol  =         0.00000000
  ---------------------------------------------------
  free energy    TOTEN  =      -328.07734957 eV

  energy without entropy =     -328.07734957  energy(sigma->0) =     -328.07734957


--------------------------------------------------------------------------------------------------------




--------------------------------------- Iteration      1(  11)  ---------------------------------------


    POTLOK:  cpu time    0.1346: real time    0.1356
    SETDIJ:  cpu time    0.0159: real time    0.0159
     EDDAV:  cpu time   95.4061: real time   96.0703
 BZINTS: Fermi energy:  4.848043;688.000000 electrons
         Band energy:***********;  BLOECHL correction:  0.000000
       DOS:  cpu time    0.0028: real time    0.0028
    CHARGE:  cpu time    1.2022: real time    1.2091
    MIXING:  cpu time    0.0017: real time    0.0017
    --------------------------------------------
      LOOP:  cpu time   96.7632: real time   97.4353

 eigenvalue-minimisations  : 14592
 total energy-change (2. order) :-0.1409542E-05  (-0.1140756E-05)
 number of electron     688.0000480 magnetization       0.0000000
 augmentation part      282.2208321 magnetization       0.0000000

 Broyden mixing:
  rms(total) = 0.11425E-02    rms(broyden)= 0.11424E-02
  rms(prec ) = 0.11690E-02
  weight for this iteration     100.00

 eigenvalues of (default mixing * dielectric matrix)
  average eigenvalue GAMMA=   1.0446
  2.8914  1.5519  1.5519  0.3357  0.7626  0.7626  0.6898  0.6898  0.6052  0.6052

 Free energy of the ion-electron system (eV)
  ---------------------------------------------------
  alpha Z        PSCENC =      2355.97678363
  Ewald energy   TEWEN  =    -62467.79775158
  -Hartree energ DENC   =    -42953.43029474
  -exchange      EXHF   =         0.00000000
  -V(xc)+E(xc)   XCENC  =      3286.51653002
  PAW double counting   =    112278.38194440  -115972.32289742
  entropy T*S    EENTRO =         0.00000000
  eigenvalues    EBANDS =    -10875.46677290
  atomic energy  EATOM  =    114020.06510763
  Solvation  Ediel_sol  =         0.00000000
  ---------------------------------------------------
  free energy    TOTEN  =      -328.07735097 eV

  energy without entropy =     -328.07735097  energy(sigma->0) =     -328.07735097


--------------------------------------------------------------------------------------------------------




--------------------------------------- Iteration      1(  12)  ---------------------------------------


    POTLOK:  cpu time    0.1231: real time    0.1244
    SETDIJ:  cpu time    0.0125: real time    0.0126
     EDDAV:  cpu time  150.6800: real time  151.6696
 BZINTS: Fermi energy:  4.848052;688.000000 electrons
         Band energy:***********;  BLOECHL correction:  0.000000
       DOS:  cpu time    0.0028: real time    0.0028
    CHARGE:  cpu time    1.1983: real time    1.2059
    MIXING:  cpu time    0.0019: real time    0.0025
    --------------------------------------------
      LOOP:  cpu time  152.0186: real time  153.0178

 eigenvalue-minimisations  : 19968
 total energy-change (2. order) :-0.4461326E-06  (-0.1020494E-06)
 number of electron     688.0000480 magnetization      -0.0000000
 augmentation part      282.2209807 magnetization      -0.0000000

 Broyden mixing:
  rms(total) = 0.39952E-02    rms(broyden)= 0.39952E-02
  rms(prec ) = 0.40005E-02
  weight for this iteration     100.00

 eigenvalues of (default mixing * dielectric matrix)
  average eigenvalue GAMMA=   1.1448
  3.1178  1.8363  1.8363  1.1072  1.1072  0.3356  0.5967  0.5967  0.7255  0.7255
  0.6076

 Free energy of the ion-electron system (eV)
  ---------------------------------------------------
  alpha Z        PSCENC =      2355.97678363
  Ewald energy   TEWEN  =    -62467.79775158
  -Hartree energ DENC   =    -42953.44343247
  -exchange      EXHF   =         0.00000000
  -V(xc)+E(xc)   XCENC  =      3286.51652005
  PAW double counting   =    112271.58324003  -115965.52156952
  entropy T*S    EENTRO =         0.00000000
  eigenvalues    EBANDS =    -10875.45624918
  atomic energy  EATOM  =    114020.06510763
  Solvation  Ediel_sol  =         0.00000000
  ---------------------------------------------------
  free energy    TOTEN  =      -328.07735142 eV

  energy without entropy =     -328.07735142  energy(sigma->0) =     -328.07735142


--------------------------------------------------------------------------------------------------------




--------------------------------------- Iteration      1(  13)  ---------------------------------------


    POTLOK:  cpu time    0.1234: real time    0.1241
    SETDIJ:  cpu time    0.0125: real time    0.0126
     EDDAV:  cpu time  104.1090: real time  104.8136
 BZINTS: Fermi energy:  4.848087;688.000000 electrons
         Band energy:***********;  BLOECHL correction:  0.000000
       DOS:  cpu time    0.0027: real time    0.0028
    CHARGE:  cpu time    1.1990: real time    1.2071
    MIXING:  cpu time    0.0019: real time    0.0019
    --------------------------------------------
      LOOP:  cpu time  105.4485: real time  106.1620

 eigenvalue-minimisations  : 15360
 total energy-change (2. order) :-0.7119816E-06  (-0.1240762E-06)
 number of electron     688.0000480 magnetization      -0.0000000
 augmentation part      282.2204414 magnetization      -0.0000000

 Broyden mixing:
  rms(total) = 0.34330E-02    rms(broyden)= 0.34330E-02
  rms(prec ) = 0.34342E-02
  weight for this iteration     100.00

 eigenvalues of (default mixing * dielectric matrix)
  average eigenvalue GAMMA=   1.1337
  2.9553  1.9613  1.9613  1.1732  1.1732  0.3356  0.8119  0.8119  0.5979  0.5979
  0.6123  0.6123

 Free energy of the ion-electron system (eV)
  ---------------------------------------------------
  alpha Z        PSCENC =      2355.97678363
  Ewald energy   TEWEN  =    -62467.79775158
  -Hartree energ DENC   =    -42953.47022817
  -exchange      EXHF   =         0.00000000
  -V(xc)+E(xc)   XCENC  =      3286.51719001
  PAW double counting   =    112271.98939033  -115965.94919390
  entropy T*S    EENTRO =         0.00000000
  eigenvalues    EBANDS =    -10875.40865009
  atomic energy  EATOM  =    114020.06510763
  Solvation  Ediel_sol  =         0.00000000
  ---------------------------------------------------
  free energy    TOTEN  =      -328.07735213 eV

  energy without entropy =     -328.07735213  energy(sigma->0) =     -328.07735213


--------------------------------------------------------------------------------------------------------




--------------------------------------- Iteration      1(  14)  ---------------------------------------


    POTLOK:  cpu time    0.1225: real time    0.1232
    SETDIJ:  cpu time    0.0125: real time    0.0126
     EDDAV:  cpu time   99.1699: real time   99.8562
 BZINTS: Fermi energy:  4.848093;688.000000 electrons
         Band energy:***********;  BLOECHL correction:  0.000000
       DOS:  cpu time    0.0036: real time    0.0036
    CHARGE:  cpu time    1.1994: real time    1.2065
    MIXING:  cpu time    0.0019: real time    0.0019
    --------------------------------------------
      LOOP:  cpu time  100.5097: real time  101.2040

 eigenvalue-minimisations  : 14848
 total energy-change (2. order) :-0.4150061E-06  (-0.1649760E-07)
 number of electron     688.0000480 magnetization      -0.0000000
 augmentation part      282.2204232 magnetization      -0.0000000

 Broyden mixing:
  rms(total) = 0.13443E-02    rms(broyden)= 0.13443E-02
  rms(prec ) = 0.13450E-02
  weight for this iteration     100.00

 eigenvalues of (default mixing * dielectric matrix)
  average eigenvalue GAMMA=   1.1714
  3.1027  2.1877  2.1877  1.2040  1.2040  0.9213  0.9213  0.3356  0.5991  0.5991
  0.6836  0.6836  0.5983

 Free energy of the ion-electron system (eV)
  ---------------------------------------------------
  alpha Z        PSCENC =      2355.97678363
  Ewald energy   TEWEN  =    -62467.79775158
  -Hartree energ DENC   =    -42953.45877544
  -exchange      EXHF   =         0.00000000
  -V(xc)+E(xc)   XCENC  =      3286.51709093
  PAW double counting   =    112275.80343859  -115969.77678802
  entropy T*S    EENTRO =         0.00000000
  eigenvalues    EBANDS =    -10875.40645828
  atomic energy  EATOM  =    114020.06510763
  Solvation  Ediel_sol  =         0.00000000
  ---------------------------------------------------
  free energy    TOTEN  =      -328.07735255 eV

  energy without entropy =     -328.07735255  energy(sigma->0) =     -328.07735255


--------------------------------------------------------------------------------------------------------




--------------------------------------- Iteration      1(  15)  ---------------------------------------


    POTLOK:  cpu time    0.1219: real time    0.1228
    SETDIJ:  cpu time    0.0126: real time    0.0127
     EDDAV:  cpu time   96.6126: real time   97.2733
 BZINTS: Fermi energy:  4.848091;688.000000 electrons
         Band energy:***********;  BLOECHL correction:  0.000000
       DOS:  cpu time    0.0027: real time    0.0027
    CHARGE:  cpu time    1.1982: real time    1.2055
    MIXING:  cpu time    0.0020: real time    0.0020
    --------------------------------------------
      LOOP:  cpu time   97.9501: real time   98.6190

 eigenvalue-minimisations  : 13824
 total energy-change (2. order) :-0.2070883E-06  (-0.1787260E-07)
 number of electron     688.0000480 magnetization       0.0000000
 augmentation part      282.2204979 magnetization       0.0000000

 Broyden mixing:
  rms(total) = 0.82439E-03    rms(broyden)= 0.82439E-03
  rms(prec ) = 0.82512E-03
  weight for this iteration     100.00

 eigenvalues of (default mixing * dielectric matrix)
  average eigenvalue GAMMA=   1.2411
  3.6419  2.3437  2.3437  1.3685  1.3685  1.0296  1.0296  0.3356  0.5980  0.5980
  0.7402  0.7402  0.6186  0.6186

 Free energy of the ion-electron system (eV)
  ---------------------------------------------------
  alpha Z        PSCENC =      2355.97678363
  Ewald energy   TEWEN  =    -62467.79775158
  -Hartree energ DENC   =    -42953.44639683
  -exchange      EXHF   =         0.00000000
  -V(xc)+E(xc)   XCENC  =      3286.51672085
  PAW double counting   =    112276.72933205  -115970.70868245
  entropy T*S    EENTRO =         0.00000000
  eigenvalues    EBANDS =    -10875.41246606
  atomic energy  EATOM  =    114020.06510763
  Solvation  Ediel_sol  =         0.00000000
  ---------------------------------------------------
  free energy    TOTEN  =      -328.07735275 eV

  energy without entropy =     -328.07735275  energy(sigma->0) =     -328.07735275


--------------------------------------------------------------------------------------------------------




--------------------------------------- Iteration      1(  16)  ---------------------------------------


    POTLOK:  cpu time    0.1227: real time    0.1234
    SETDIJ:  cpu time    0.0125: real time    0.0126
     EDDAV:  cpu time  108.2002: real time  108.9312
 BZINTS: Fermi energy:  4.848091;688.000000 electrons
         Band energy:***********;  BLOECHL correction:  0.000000
       DOS:  cpu time    0.0027: real time    0.0028
    CHARGE:  cpu time    1.1886: real time    1.1959
    MIXING:  cpu time    0.0022: real time    0.0022
    --------------------------------------------
      LOOP:  cpu time  109.5289: real time  110.2681

 eigenvalue-minimisations  : 15616
 total energy-change (2. order) :-0.6756454E-07  (-0.1027818E-07)
 number of electron     688.0000480 magnetization       0.0000000
 augmentation part      282.2203676 magnetization       0.0000000

 Broyden mixing:
  rms(total) = 0.21792E-03    rms(broyden)= 0.21791E-03
  rms(prec ) = 0.21814E-03
  weight for this iteration     100.00

 eigenvalues of (default mixing * dielectric matrix)
  average eigenvalue GAMMA=   1.2468
  3.9922  2.5864  1.9269  1.9269  1.1992  1.1992  0.9259  0.3356  0.7625  0.7625
  0.5986  0.5986  0.6877  0.6002  0.6002

 Free energy of the ion-electron system (eV)
  ---------------------------------------------------
  alpha Z        PSCENC =      2355.97678363
  Ewald energy   TEWEN  =    -62467.79775158
  -Hartree energ DENC   =    -42953.44386639
  -exchange      EXHF   =         0.00000000
  -V(xc)+E(xc)   XCENC  =      3286.51670349
  PAW double counting   =    112277.99369314  -115971.97777341
  entropy T*S    EENTRO =         0.00000000
  eigenvalues    EBANDS =    -10875.41024933
  atomic energy  EATOM  =    114020.06510763
  Solvation  Ediel_sol  =         0.00000000
  ---------------------------------------------------
  free energy    TOTEN  =      -328.07735282 eV

  energy without entropy =     -328.07735282  energy(sigma->0) =     -328.07735282


--------------------------------------------------------------------------------------------------------




--------------------------------------- Iteration      1(  17)  ---------------------------------------


    POTLOK:  cpu time    0.1206: real time    0.1248
    SETDIJ:  cpu time    0.0126: real time    0.0127
     EDDAV:  cpu time   76.7016: real time   77.2329
 BZINTS: Fermi energy:  4.848091;688.000000 electrons
         Band energy:***********;  BLOECHL correction:  0.000000
       DOS:  cpu time    0.0027: real time    0.0027
    CHARGE:  cpu time    1.1792: real time    1.1866
    MIXING:  cpu time    0.0022: real time    0.0022
    --------------------------------------------
      LOOP:  cpu time   78.0192: real time   78.5621

 eigenvalue-minimisations  : 11264
 total energy-change (2. order) :-0.1760782E-07  (-0.7907348E-09)
 number of electron     688.0000480 magnetization       0.0000000
 augmentation part      282.2203357 magnetization       0.0000000

 Broyden mixing:
  rms(total) = 0.80028E-04    rms(broyden)= 0.80028E-04
  rms(prec ) = 0.80264E-04
  weight for this iteration     100.00

 eigenvalues of (default mixing * dielectric matrix)
  average eigenvalue GAMMA=   1.2491
  3.9596  2.8286  1.9834  1.9834  1.2151  1.2151  0.8674  0.8674  0.3356  0.8304
  0.8304  0.5983  0.5983  0.6364  0.6364  0.5999

 Free energy of the ion-electron system (eV)
  ---------------------------------------------------
  alpha Z        PSCENC =      2355.97678363
  Ewald energy   TEWEN  =    -62467.79775158
  -Hartree energ DENC   =    -42953.44299952
  -exchange      EXHF   =         0.00000000
  -V(xc)+E(xc)   XCENC  =      3286.51673883
  PAW double counting   =    112278.58014594  -115972.56536773
  entropy T*S    EENTRO =         0.00000000
  eigenvalues    EBANDS =    -10875.41001004
  atomic energy  EATOM  =    114020.06510763
  Solvation  Ediel_sol  =         0.00000000
  ---------------------------------------------------
  free energy    TOTEN  =      -328.07735284 eV

  energy without entropy =     -328.07735284  energy(sigma->0) =     -328.07735284


--------------------------------------------------------------------------------------------------------




--------------------------------------- Iteration      1(  18)  ---------------------------------------


    POTLOK:  cpu time    0.1219: real time    0.1228
    SETDIJ:  cpu time    0.0125: real time    0.0125
     EDDAV:  cpu time   77.6753: real time   78.2014
 BZINTS: Fermi energy:  4.848091;688.000000 electrons
         Band energy:***********;  BLOECHL correction:  0.000000
       DOS:  cpu time    0.0027: real time    0.0027
    --------------------------------------------
      LOOP:  cpu time   77.8122: real time   78.3393

 eigenvalue-minimisations  : 10752
[...]
   -.421E+02 0.154E+00 0.647E+01   0.430E+02 -.147E+00 -.654E+01   -.863E+00 -.723E-02 0.631E-01   -.895E-05 0.120E-05 0.448E-05
   -.421E+02 0.154E+00 0.647E+01   0.430E+02 -.147E+00 -.654E+01   -.863E+00 -.723E-02 0.631E-01   -.895E-05 0.120E-05 0.448E-05
   -.421E+02 0.154E+00 0.647E+01   0.430E+02 -.147E+00 -.654E+01   -.863E+00 -.723E-02 0.631E-01   -.895E-05 0.120E-05 0.448E-05
   -.421E+02 0.154E+00 0.647E+01   0.430E+02 -.147E+00 -.654E+01   -.863E+00 -.723E-02 0.631E-01   -.895E-05 0.120E-05 0.448E-05
   0.421E+02 -.154E+00 0.647E+01   -.430E+02 0.147E+00 -.654E+01   0.863E+00 0.723E-02 0.631E-01   0.895E-05 -.120E-05 0.448E-05
   0.421E+02 -.154E+00 0.647E+01   -.430E+02 0.147E+00 -.654E+01   0.863E+00 0.723E-02 0.631E-01   0.895E-05 -.120E-05 0.448E-05
   0.421E+02 -.154E+00 0.647E+01   -.430E+02 0.147E+00 -.654E+01   0.863E+00 0.723E-02 0.631E-01   0.895E-05 -.120E-05 0.448E-05
   0.421E+02 -.154E+00 0.647E+01   -.430E+02 0.147E+00 -.654E+01   0.863E+00 0.723E-02 0.631E-01   0.895E-05 -.120E-05 0.448E-05
   0.154E+00 -.421E+02 0.647E+01   -.147E+00 0.430E+02 -.654E+01   -.723E-02 -.863E+00 0.631E-01   0.120E-05 -.895E-05 0.448E-05
   0.154E+00 -.421E+02 0.647E+01   -.147E+00 0.430E+02 -.654E+01   -.723E-02 -.863E+00 0.631E-01   0.120E-05 -.895E-05 0.448E-05
   0.154E+00 -.421E+02 0.647E+01   -.147E+00 0.430E+02 -.654E+01   -.723E-02 -.863E+00 0.631E-01   0.120E-05 -.895E-05 0.448E-05
   0.154E+00 -.421E+02 0.647E+01   -.147E+00 0.430E+02 -.654E+01   -.723E-02 -.863E+00 0.631E-01   0.120E-05 -.895E-05 0.448E-05
   -.154E+00 0.421E+02 0.647E+01   0.147E+00 -.430E+02 -.654E+01   0.723E-02 0.863E+00 0.631E-01   -.120E-05 0.895E-05 0.448E-05
   -.154E+00 0.421E+02 0.647E+01   0.147E+00 -.430E+02 -.654E+01   0.723E-02 0.863E+00 0.631E-01   -.120E-05 0.895E-05 0.448E-05
   -.154E+00 0.421E+02 0.647E+01   0.147E+00 -.430E+02 -.654E+01   0.723E-02 0.863E+00 0.631E-01   -.120E-05 0.895E-05 0.448E-05
   -.154E+00 0.421E+02 0.647E+01   0.147E+00 -.430E+02 -.654E+01   0.723E-02 0.863E+00 0.631E-01   -.120E-05 0.895E-05 0.448E-05
   -.186E-06 0.126E-07 -.759E+01   -.141E-12 0.135E-12 0.728E+01   -.539E-25 -.650E-25 0.308E+00   0.494E-12 -.281E-12 -.222E-04
   -.186E-06 0.126E-07 -.759E+01   -.109E-12 0.142E-12 0.728E+01   0.381E-25 -.226E-24 0.308E+00   -.416E-12 -.214E-13 -.222E-04
   -.186E-06 0.126E-07 -.759E+01   -.141E-12 0.206E-12 0.728E+01   -.111E-26 0.582E-25 0.308E+00   0.436E-12 0.210E-12 -.222E-04
   -.186E-06 0.125E-07 -.759E+01   -.165E-12 0.142E-12 0.728E+01   0.154E-25 -.181E-24 0.308E+00   -.437E-12 -.113E-13 -.222E-04
   0.126E-07 -.186E-06 -.759E+01   -.568E-13 0.853E-13 0.728E+01   0.378E-25 -.388E-25 0.308E+00   -.424E-12 -.248E-12 -.222E-04
   0.126E-07 -.186E-06 -.759E+01   -.568E-13 0.853E-13 0.728E+01   -.130E-24 0.194E-25 0.308E+00   -.287E-12 -.226E-12 -.222E-04
   0.126E-07 -.186E-06 -.759E+01   -.853E-13 0.853E-13 0.728E+01   -.310E-25 0.775E-25 0.308E+00   -.401E-12 0.124E-12 -.222E-04
   0.126E-07 -.186E-06 -.759E+01   -.568E-13 0.853E-13 0.728E+01   0.868E-25 0.388E-25 0.308E+00   -.285E-12 0.142E-12 -.222E-04
   -.186E-06 0.126E-07 -.759E+01   -.924E-13 0.291E-13 0.728E+01   0.127E-25 0.517E-25 0.308E+00   0.101E-12 -.100E-12 -.222E-04
   -.186E-06 0.126E-07 -.759E+01   -.924E-13 0.220E-13 0.728E+01   -.192E-26 -.905E-25 0.308E+00   -.158E-12 -.402E-13 -.222E-04
   -.186E-06 0.126E-07 -.759E+01   -.142E-12 -.360E-13 0.728E+01   0.581E-26 -.168E-24 0.308E+00   -.916E-13 0.160E-12 -.222E-04
   -.186E-06 0.126E-07 -.759E+01   -.114E-12 0.280E-13 0.728E+01   0.676E-25 -.155E-24 0.308E+00   0.838E-13 0.186E-13 -.222E-04
   0.126E-07 -.186E-06 -.759E+01   -.277E-14 -.268E-13 0.728E+01   -.104E-24 -.323E-25 0.308E+00   0.289E-12 -.167E-12 -.222E-04
   0.126E-07 -.186E-06 -.759E+01   0.282E-13 -.268E-13 0.728E+01   0.431E-25 -.969E-26 0.308E+00   -.894E-12 -.753E-13 -.222E-04
   0.126E-07 -.186E-06 -.759E+01   -.312E-13 -.206E-13 0.728E+01   0.120E-24 0.258E-25 0.308E+00   0.230E-12 -.575E-14 -.222E-04
   0.126E-07 -.186E-06 -.759E+01   -.210E-15 -.206E-13 0.728E+01   0.192E-24 0.808E-26 0.308E+00   -.860E-12 -.152E-12 -.222E-04
   0.164E-07 -.578E-07 -.616E+01   0.254E-12 -.355E-14 0.579E+01   0.745E-25 -.129E-25 0.369E+00   0.270E-12 -.229E-12 0.149E-05
   0.164E-07 -.578E-07 -.616E+01   0.256E-12 -.568E-13 0.579E+01   -.242E-25 0.905E-25 0.369E+00   -.524E-12 0.495E-16 0.149E-05
   0.164E-07 -.578E-07 -.616E+01   0.254E-12 0.142E-13 0.579E+01   -.416E-25 0.517E-25 0.369E+00   0.172E-12 0.113E-12 0.149E-05
   0.164E-07 -.578E-07 -.616E+01   0.256E-12 -.426E-13 0.579E+01   -.628E-25 -.155E-24 0.369E+00   -.396E-12 -.101E-13 0.149E-05
   -.578E-07 0.164E-07 -.616E+01   0.355E-13 0.249E-13 0.579E+01   0.638E-25 -.323E-25 0.369E+00   0.146E-12 0.614E-14 0.149E-05
   -.578E-07 0.164E-07 -.616E+01   0.568E-13 0.817E-13 0.579E+01   -.598E-25 0.129E-24 0.369E+00   0.471E-13 -.187E-13 0.149E-05
   -.578E-07 0.164E-07 -.616E+01   0.639E-13 0.888E-13 0.579E+01   -.304E-24 0.323E-25 0.369E+00   0.216E-12 0.606E-13 0.149E-05
   -.578E-07 0.164E-07 -.616E+01   0.817E-13 0.888E-13 0.579E+01   -.111E-24 -.129E-24 0.369E+00   -.314E-14 0.419E-13 0.149E-05
   0.164E-07 -.578E-07 -.616E+01   0.256E-12 0.275E-13 0.579E+01   -.359E-25 0.155E-24 0.369E+00   -.414E-13 -.214E-13 0.149E-05
   0.164E-07 -.578E-07 -.616E+01   0.284E-12 0.235E-13 0.579E+01   -.511E-25 -.129E-25 0.369E+00   -.289E-12 -.230E-13 0.149E-05
   0.164E-07 -.578E-07 -.616E+01   0.284E-12 0.255E-13 0.579E+01   0.125E-24 0.388E-25 0.369E+00   -.196E-12 0.150E-13 0.149E-05
   0.164E-07 -.578E-07 -.616E+01   0.270E-12 0.251E-13 0.579E+01   -.755E-25 0.646E-25 0.369E+00   -.663E-13 -.172E-13 0.149E-05
   -.578E-07 0.164E-07 -.616E+01   0.767E-13 0.121E-12 0.579E+01   -.478E-25 -.145E-24 0.369E+00   0.397E-12 -.123E-12 0.149E-05
   -.578E-07 0.163E-07 -.616E+01   0.673E-13 0.120E-12 0.579E+01   0.794E-25 -.646E-26 0.369E+00   -.130E-12 -.275E-13 0.149E-05
   -.578E-07 0.164E-07 -.616E+01   0.605E-13 0.158E-12 0.579E+01   0.548E-25 -.452E-25 0.369E+00   0.329E-12 0.983E-13 0.149E-05
   -.578E-07 0.164E-07 -.616E+01   0.511E-13 0.158E-12 0.579E+01   0.392E-25 -.129E-24 0.369E+00   -.114E-12 0.809E-13 0.149E-05
 -----------------------------------------------------------------------------------------------
   -.127E-05 -.127E-05 -.129E+02   -.288E-12 0.347E-12 0.185E-12   0.780E-15 -.888E-15 0.128E+02   -.276E-11 -.186E-11 -.188E-03
 
 
 POSITION                                       TOTAL-FORCE (eV/Angst)
 -----------------------------------------------------------------------------------
      1.33972      1.32903      1.28994         0.000853     -0.000261     -0.000681
      6.59529      1.38402      1.28994         0.000853     -0.000261     -0.000681
      1.39471      6.58459      1.28994         0.000853     -0.000261     -0.000681
      6.65028      6.63959      1.28994         0.000853     -0.000261     -0.000681
      3.97084      3.98153      1.28994        -0.000853      0.000261     -0.000681
      9.22641      4.03652      1.28994        -0.000853      0.000261     -0.000681
      4.02583      9.23710      1.28994        -0.000853      0.000261     -0.000681
      9.28140      9.29209      1.28994        -0.000853      0.000261     -0.000681
      1.35375      3.94334      9.10249         0.000261     -0.000853     -0.000681
      6.60931      3.99833      9.10249         0.000261     -0.000853     -0.000681
      1.40874      9.19891      9.10249         0.000261     -0.000853     -0.000681
      6.66431      9.25390      9.10249         0.000261     -0.000853     -0.000681
      3.95681      1.36722      9.10249        -0.000261      0.000853     -0.000681
      9.21238      1.42221      9.10249        -0.000261      0.000853     -0.000681
      4.01180      6.62278      9.10249        -0.000261      0.000853     -0.000681
      9.26737      6.67777      9.10249        -0.000261      0.000853     -0.000681
      1.31556      1.32625      6.49831        -0.000853      0.000261     -0.000681
      6.57113      1.38124      6.49831        -0.000853      0.000261     -0.000681
      1.37055      6.58182      6.49831        -0.000853      0.000261     -0.000681
      6.62612      6.63681      6.49831        -0.000853      0.000261     -0.000681
      3.99500      3.98431      6.49831         0.000853     -0.000261     -0.000681
      9.25056      4.03930      6.49831         0.000853     -0.000261     -0.000681
      4.04999      9.23987      6.49831         0.000853     -0.000261     -0.000681
      9.30556      9.29486      6.49831         0.000853     -0.000261     -0.000681
      3.95404      1.34306      3.89413         0.000261     -0.000853     -0.000681
      9.20960      1.39805      3.89413         0.000261     -0.000853     -0.000681
      4.00903      6.59862      3.89413         0.000261     -0.000853     -0.000681
      9.26459      6.65361      3.89413         0.000261     -0.000853     -0.000681
      1.35652      3.96750      3.89413        -0.000261      0.000853     -0.000681
      6.61209      4.02249      3.89413        -0.000261      0.000853     -0.000681
      1.41151      9.22307      3.89413        -0.000261      0.000853     -0.000681
      6.66708      9.27806      3.89413        -0.000261      0.000853     -0.000681
      0.00000      0.00000      5.21892        -0.000000     -0.000000     -0.000676
      5.25557      0.05499      5.21892        -0.000000     -0.000000     -0.000676
      0.05499      5.25557      5.21892        -0.000000     -0.000000     -0.000676
      5.31056      5.31056      5.21892        -0.000000     -0.000000     -0.000676
      2.62778      0.02750      2.61474        -0.000000     -0.000000     -0.000676
      7.88335      0.08249      2.61474        -0.000000     -0.000000     -0.000676
      2.68277      5.28306      2.61474        -0.000000     -0.000000     -0.000676
      7.93834      5.33805      2.61474        -0.000000     -0.000000     -0.000676
      2.65528      2.65528      0.01056        -0.000000     -0.000000     -0.000676
      7.91085      2.71027      0.01056        -0.000000     -0.000000     -0.000676
      2.71027      7.91085      0.01056        -0.000000     -0.000000     -0.000676
      7.96584      7.96584      0.01056        -0.000000     -0.000000     -0.000676
      0.02750      2.62778      7.82310        -0.000000     -0.000000     -0.000676
      5.28306      2.68277      7.82310        -0.000000     -0.000000     -0.000676
      0.08249      7.88335      7.82310        -0.000000     -0.000000     -0.000676
      5.33805      7.93834      7.82310        -0.000000     -0.000000     -0.000676
      0.00000      0.00000      0.01372        -0.000000     -0.000000      0.002037
      5.25557      0.05499      0.01372        -0.000000     -0.000000      0.002037
      0.05499      5.25557      0.01372        -0.000000     -0.000000      0.002037
      5.31056      5.31056      0.01372        -0.000000     -0.000000      0.002037
      2.62778      0.02750      7.82626        -0.000000     -0.000000      0.002037
      7.88335      0.08249      7.82626        -0.000000     -0.000000      0.002037
      2.68277      5.28306      7.82626        -0.000000     -0.000000      0.002037
      7.93834      5.33805      7.82626        -0.000000     -0.000000      0.002037
      2.65528      2.65528      5.22208        -0.000000     -0.000000      0.002037
      7.91085      2.71027      5.22208        -0.000000     -0.000000      0.002037
      2.71027      7.91085      5.22208        -0.000000     -0.000000      0.002037
      7.96584      7.96584      5.22208        -0.000000     -0.000000      0.002037
      0.02750      2.62778      2.61790        -0.000000     -0.000000      0.002037
      5.28306      2.68277      2.61790        -0.000000     -0.000000      0.002037
      0.08249      7.88335      2.61790        -0.000000     -0.000000      0.002037
      5.33805      7.93834      2.61790        -0.000000     -0.000000      0.002037
 -----------------------------------------------------------------------------------
    total drift:                               -0.000001     -0.000001     -0.021358


--------------------------------------------------------------------------------------------------------



  FREE ENERGIE OF THE ION-ELECTRON SYSTEM (eV)
  ---------------------------------------------------
  free  energy   TOTEN  =      -328.07735285 eV

  energy  without entropy=     -328.07735285  energy(sigma->0) =     -328.07735285
 


--------------------------------------------------------------------------------------------------------


    POTLOK:  cpu time    0.1292: real time    0.1299


--------------------------------------------------------------------------------------------------------


 writing wavefunctions
     LOOP+:  cpu time 2029.1310: real time 2294.8671
    4ORBIT:  cpu time    0.0000: real time    0.0000
 


 total charge     
 
# of ion       s       p       d       tot
------------------------------------------
    1        1.313   2.410   0.000   3.724
    2        1.313   2.410   0.000   3.724
    3        1.313   2.410   0.000   3.724
    4        1.313   2.410   0.000   3.724
    5        1.313   2.410   0.000   3.724
    6        1.313   2.410   0.000   3.724
    7        1.313   2.410   0.000   3.724
    8        1.313   2.410   0.000   3.724
    9        1.313   2.410   0.000   3.724
   10        1.313   2.410   0.000   3.724
   11        1.313   2.410   0.000   3.724
   12        1.313   2.410   0.000   3.724
   13        1.313   2.410   0.000   3.724
   14        1.313   2.410   0.000   3.724
   15        1.313   2.410   0.000   3.724
   16        1.313   2.410   0.000   3.724
   17        1.313   2.410   0.000   3.724
   18        1.313   2.410   0.000   3.724
   19        1.313   2.410   0.000   3.724
   20        1.313   2.410   0.000   3.724
   21        1.313   2.410   0.000   3.724
   22        1.313   2.410   0.000   3.724
   23        1.313   2.410   0.000   3.724
   24        1.313   2.410   0.000   3.724
   25        1.313   2.410   0.000   3.724
   26        1.313   2.410   0.000   3.724
   27        1.313   2.410   0.000   3.724
   28        1.313   2.410   0.000   3.724
   29        1.313   2.410   0.000   3.724
   30        1.313   2.410   0.000   3.724
   31        1.313   2.410   0.000   3.724
   32        1.313   2.410   0.000   3.724
   33        0.260   6.202   8.916  15.378
   34        0.260   6.202   8.916  15.378
   35        0.260   6.202   8.916  15.378
   36        0.260   6.202   8.916  15.378
   37        0.260   6.202   8.917  15.378
   38        0.260   6.202   8.917  15.378
   39        0.260   6.202   8.917  15.378
   40        0.260   6.202   8.917  15.378
   41        0.260   6.202   8.916  15.378
   42        0.260   6.202   8.916  15.378
   43        0.260   6.202   8.916  15.378
   44        0.260   6.202   8.916  15.378
   45        0.260   6.202   8.917  15.378
   46        0.260   6.202   8.917  15.378
   47        0.260   6.202   8.917  15.378
   48        0.260   6.202   8.917  15.378
   49        0.350   6.351   5.820  12.521
   50        0.350   6.351   5.820  12.521
   51        0.350   6.351   5.820  12.521
   52        0.350   6.351   5.820  12.521
   53        0.350   6.351   5.820  12.521
   54        0.350   6.351   5.820  12.521
   55        0.350   6.351   5.820  12.521
   56        0.350   6.351   5.820  12.521
   57        0.350   6.351   5.820  12.521
   58        0.350   6.351   5.820  12.521
   59        0.350   6.351   5.820  12.521
   60        0.350   6.351   5.820  12.521
   61        0.350   6.351   5.820  12.521
   62        0.350   6.351   5.820  12.521
   63        0.350   6.351   5.820  12.521
   64        0.350   6.351   5.820  12.521
--------------------------------------------------
tot         51.790 277.977 235.782 565.549
 


 magnetization (x)
 
# of ion       s       p       d       tot
------------------------------------------
    1       -0.000  -0.005   0.000  -0.005
    2       -0.000  -0.005   0.000  -0.005
    3       -0.000  -0.005   0.000  -0.005
    4       -0.000  -0.005   0.000  -0.005
    5       -0.000  -0.005   0.000  -0.005
    6       -0.000  -0.005   0.000  -0.005
    7       -0.000  -0.005   0.000  -0.005
    8       -0.000  -0.005   0.000  -0.005
    9        0.000   0.005   0.000   0.005
   10        0.000   0.005   0.000   0.005
   11        0.000   0.005   0.000   0.005
   12        0.000   0.005   0.000   0.005
   13        0.000   0.005   0.000   0.005
   14        0.000   0.005   0.000   0.005
   15        0.000   0.005   0.000   0.005
   16        0.000   0.005   0.000   0.005
   17       -0.000  -0.005   0.000  -0.005
   18       -0.000  -0.005   0.000  -0.005
   19       -0.000  -0.005   0.000  -0.005
   20       -0.000  -0.005   0.000  -0.005
   21       -0.000  -0.005   0.000  -0.005
   22       -0.000  -0.005   0.000  -0.005
   23       -0.000  -0.005   0.000  -0.005
   24       -0.000  -0.005   0.000  -0.005
   25        0.000   0.005   0.000   0.005
   26        0.000   0.005   0.000   0.005
   27        0.000   0.005   0.000   0.005
   28        0.000   0.005   0.000   0.005
   29        0.000   0.005   0.000   0.005
   30        0.000   0.005   0.000   0.005
   31        0.000   0.005   0.000   0.005
   32        0.000   0.005   0.000   0.005
   33        0.000   0.000  -0.001   0.000
   34        0.000   0.000  -0.001   0.000
   35        0.000   0.000  -0.001   0.000
   36        0.000   0.000  -0.001   0.000
   37       -0.000  -0.000   0.001  -0.000
   38       -0.000  -0.000   0.001  -0.000
   39       -0.000  -0.000   0.001  -0.000
   40       -0.000  -0.000   0.001  -0.000
   41        0.000   0.000  -0.001   0.000
   42        0.000   0.000  -0.001   0.000
   43        0.000   0.000  -0.001   0.000
   44        0.000   0.000  -0.001   0.000
   45       -0.000  -0.000   0.001  -0.000
   46       -0.000  -0.000   0.001  -0.000
   47       -0.000  -0.000   0.001  -0.000
   48       -0.000  -0.000   0.001  -0.000
   49        0.020   0.054   3.671   3.744
   50        0.020   0.054   3.671   3.744
   51        0.020   0.054   3.671   3.744
   52        0.020   0.054   3.671   3.744
   53       -0.020  -0.054  -3.671  -3.744
   54       -0.020  -0.054  -3.671  -3.744
   55       -0.020  -0.054  -3.671  -3.744
   56       -0.020  -0.054  -3.671  -3.744
   57        0.020   0.054   3.671   3.744
   58        0.020   0.054   3.671   3.744
   59        0.020   0.054   3.671   3.744
   60        0.020   0.054   3.671   3.744
   61       -0.020  -0.054  -3.671  -3.744
   62       -0.020  -0.054  -3.671  -3.744
   63       -0.020  -0.054  -3.671  -3.744
   64       -0.020  -0.054  -3.671  -3.744
--------------------------------------------------
tot         -0.000   0.001  -0.000  -0.000
 
 BZINTS: Fermi energy:  4.848091;688.000000 electrons
         Band energy:***********;  BLOECHL correction:  0.000000

 total amount of memory used by VASP MPI-rank0   301249. kBytes
=======================================================================

   base      :      30000. kBytes
   nonl-proj :     175882. kBytes
   fftplans  :       4588. kBytes
   grid      :      69719. kBytes
   one-center:       1990. kBytes
   wavefun   :      19070. kBytes
 
  
  
 General timing and accounting informations for this job:
 ========================================================
  
                  Total CPU time used (sec):     2079.729
                            User time (sec):     2067.520
                          System time (sec):       12.209
                         Elapsed time (sec):     2347.752
  
                   Maximum memory used (kb):      674296.
                   Average memory used (kb):           0.
  
                          Minor page faults:       447732
                          Major page faults:         5617
                 Voluntary context switches:         8259
