 vasp.5.4.4.18Apr17-6-g9f103f2a35 (build Oct 30 2023 17:30:16) complex          
  
 executed on             LinuxIFC date 2024.06.29  18:26:03
 running on  256 total cores
 distrk:  each k-point on  256 cores,    1 groups
 distr:  one band on NCORES_PER_BAND=   1 cores,  256 groups


--------------------------------------------------------------------------------------------------------


 INCAR:
 POTCAR:    PAW_PBE S 06Sep2000                   
 POTCAR:     PAW_PBE Cu_pv 06Sep2000              
 POTCAR:     PAW_PBE Fe_pv 02Aug2007              

 ----------------------------------------------------------------------------- 
|                                                                             |
|           W    W    AA    RRRRR   N    N  II  N    N   GGGG   !!!           |
|           W    W   A  A   R    R  NN   N  II  NN   N  G    G  !!!           |
|           W    W  A    A  R    R  N N  N  II  N N  N  G       !!!           |
|           W WW W  AAAAAA  RRRRR   N  N N  II  N  N N  G  GGG   !            |
|           WW  WW  A    A  R   R   N   NN  II  N   NN  G    G                |
|           W    W  A    A  R    R  N    N  II  N    N   GGGG   !!!           |
|                                                                             |
|      For optimal performance we recommend to set                            |
|        NCORE= 4 - approx SQRT( number of cores)                             |
|      NCORE specifies how many cores store one orbital (NPAR=cpu/NCORE).     |
|      This setting can  greatly improve the performance of VASP for DFT.     |
|      The default,   NCORE=1            might be grossly inefficient         |
|      on modern multi-core architectures or massively parallel machines.     |
|      Do your own testing !!!!                                               |
|      Unfortunately you need to use the default for GW and RPA calculations. |
|      (for HF NCORE is supported but not extensively tested yet)             |
|                                                                             |
 ----------------------------------------------------------------------------- 

 POTCAR:    PAW_PBE S 06Sep2000                   
   SHA256 =  0fc7481fb0695f01bdc6462160264c5c84044ae9ec85a907d398b887a2bc3132 S/
   COPYR  = (c) Copyright 06Sep2000 Georg Kresse                                
   COPYR  = This file is part of the software VASP. Any use, copying, and all ot
   COPYR  = If you do not have a valid VASP license, you may not use, copy or di
   VRHFIN =S : s2p4                                                             
   LEXCH  = PE                                                                  
   EATOM  =   276.8230 eV,   20.3459 Ry                                         
                                                                                
   TITEL  = PAW_PBE S 06Sep2000                                                 
   LULTRA =        F    use ultrasoft PP ?                                      
   IUNSCR =        1    unscreen: 0-lin 1-nonlin 2-no                           
   RPACOR =    1.500    partial core radius                                     
   POMASS =   32.066; ZVAL   =    6.000    mass and valenz                      
   RCORE  =    1.900    outmost cutoff radius                                   
   RWIGS  =    2.200; RWIGS  =    1.164    wigner-seitz radius (au A)           
   ENMAX  =  258.689; ENMIN  =  194.016 eV                                      
   ICORE  =        2    local potential                                         
   LCOR   =        T    correct aug charges                                     
   LPAW   =        T    paw PP                                                  
   EAUG   =  335.092                                                            
   DEXC   =    0.000                                                            
   RMAX   =    1.942    core radius for proj-oper                               
   RAUG   =    1.300    factor for augmentation sphere                          
   RDEP   =    1.954    radius for radial grids                                 
   RDEPT  =    1.744    core radius for aug-charge                              
                                                                                
   Atomic configuration                                                         
    6 entries                                                                   
     n  l   j            E        occ.                                          
     1  0  0.50     -2405.8406   2.0000                                         
     2  0  0.50      -211.7007   2.0000                                         
     2  1  1.50      -156.4958   6.0000                                         
     3  0  0.50       -17.2562   2.0000                                         
     3  1  0.50        -7.0085   4.0000                                         
     3  2  1.50        -6.8029   0.0000                                         
   Description                                                                  
     l       E           TYP  RCUT    TYP  RCUT                                 
     0    -17.2561641     23  1.900                                             
     0    -15.8743224     23  1.900                                             
     1     -7.0085400     23  1.900                                             
     1     -2.7779785     23  1.900                                             
     2     -6.8029130     23  1.900                                             
  local pseudopotential read in
  partial core-charges read in
  partial kinetic energy density read in
  atomic valenz-charges read in
  non local Contribution for L=           0  read in
    real space projection operators read in
  non local Contribution for L=           0  read in
    real space projection operators read in
  non local Contribution for L=           1  read in
    real space projection operators read in
  non local Contribution for L=           1  read in
    real space projection operators read in
    PAW grid and wavefunctions read in
 
   number of l-projection  operators is LMAX  =           4
   number of lm-projection operators is LMMAX =           8
 
 POTCAR:     PAW_PBE Cu_pv 06Sep2000              
   SHA256 =  cb7b504e2ea725fe1f25c85a9ac77d4012ce94cd394135b722c4e25ec297f1cb Cu
   COPYR  = (c) Copyright 06Sep2000 Georg Kresse                                
   COPYR  = This file is part of the software VASP. Any use, copying, and all ot
   COPYR  = If you do not have a valid VASP license, you may not use, copy or di
   VRHFIN =Cu: d10 p1                                                           
   LEXCH  = PE                                                                  
   EATOM  =  4120.1201 eV,  302.8203 Ry                                         
                                                                                
   TITEL  = PAW_PBE Cu_pv 06Sep2000                                             
   LULTRA =        F    use ultrasoft PP ?                                      
   IUNSCR =        1    unscreen: 0-lin 1-nonlin 2-no                           
   RPACOR =    1.500    partial core radius                                     
   POMASS =   63.546; ZVAL   =   17.000    mass and valenz                      
   RCORE  =    2.000    outmost cutoff radius                                   
   RWIGS  =    2.000; RWIGS  =    1.058    wigner-seitz radius (au A)           
   ENMAX  =  368.648; ENMIN  =  276.486 eV                                      
   RCLOC  =    1.304    cutoff for local pot                                    
   LCOR   =        T    correct aug charges                                     
   LPAW   =        T    paw PP                                                  
   EAUG   =  758.233                                                            
   DEXC   =    0.000                                                            
   RMAX   =    2.046    core radius for proj-oper                               
   RAUG   =    1.300    factor for augmentation sphere                          
   RDEP   =    2.025    radius for radial grids                                 
   RDEPT  =    1.558    core radius for aug-charge                              
                                                                                
   Atomic configuration                                                         
    8 entries                                                                   
     n  l   j            E        occ.                                          
     1  0  0.50     -8850.2467   2.0000                                         
     2  0  0.50     -1062.3498   2.0000                                         
     2  1  1.50      -916.8226   6.0000                                         
     3  0  0.50      -114.6929   2.0000                                         
     3  1  1.50       -72.1325   6.0000                                         
     3  2  2.50        -5.0394  10.0000                                         
     4  0  0.50        -4.6097   1.0000                                         
     4  3  2.50        -1.3606   0.0000                                         
   Description                                                                  
     l       E           TYP  RCUT    TYP  RCUT                                 
     1    -72.1324777     23  1.700                                             
     1     -1.3605826     23  1.700                                             
     2     -5.0393776     23  2.000                                             
     2     -6.3999602     23  2.000                                             
     0     -4.6097062     23  1.800                                             
     0     14.1620818     23  1.800                                             
  local pseudopotential read in
  partial core-charges read in
  partial kinetic energy density read in
  atomic valenz-charges read in
  non local Contribution for L=           1  read in
    real space projection operators read in
  non local Contribution for L=           1  read in
    real space projection operators read in
  non local Contribution for L=           2  read in
    real space projection operators read in
  non local Contribution for L=           2  read in
    real space projection operators read in
  non local Contribution for L=           0  read in
    real space projection operators read in
  non local Contribution for L=           0  read in
    real space projection operators read in
    PAW grid and wavefunctions read in
 
   number of l-projection  operators is LMAX  =           6
   number of lm-projection operators is LMMAX =          18
 
 POTCAR:     PAW_PBE Fe_pv 02Aug2007              
   SHA256 =  5d22e414b1f82158bf2c7ecb8b97b28fd0923e48cadc1c3bf74d524558f5dd32 Fe
   COPYR  = (c) Copyright 02Aug2007 Georg Kresse                                
   COPYR  = This file is part of the software VASP. Any use, copying, and all ot
   COPYR  = If you do not have a valid VASP license, you may not use, copy or di
   VRHFIN =Fe:  3pd7s1                                                          
   LEXCH  = PE                                                                  
   EATOM  =  2457.4239 eV,  180.6156 Ry                                         
                                                                                
   TITEL  = PAW_PBE Fe_pv 02Aug2007                                             
   LULTRA =        F    use ultrasoft PP ?                                      
   IUNSCR =        1    unscreen: 0-lin 1-nonlin 2-no                           
   RPACOR =    1.750    partial core radius                                     
   POMASS =   55.847; ZVAL   =   14.000    mass and valenz                      
   RCORE  =    2.200    outmost cutoff radius                                   
   RWIGS  =    2.200; RWIGS  =    1.164    wigner-seitz radius (au A)           
   ENMAX  =  293.238; ENMIN  =  219.928 eV                                      
   ICORE  =        3    local potential                                         
   LCOR   =        T    correct aug charges                                     
   LPAW   =        T    paw PP                                                  
   EAUG   =  578.342                                                            
   DEXC   =    0.000                                                            
   RMAX   =    2.249    core radius for proj-oper                               
   RAUG   =    1.300    factor for augmentation sphere                          
   RDEP   =    2.296    radius for radial grids                                 
   RDEPT  =    1.766    core radius for aug-charge                              
                                                                                
   Atomic configuration                                                         
    8 entries                                                                   
     n  l   j            E        occ.                                          
     1  0  0.50     -6993.8440   2.0000                                         
     2  0  0.50      -814.6047   2.0000                                         
     2  1  1.50      -693.3689   6.0000                                         
     3  0  0.50       -89.4732   2.0000                                         
     3  1  1.50       -55.6373   6.0000                                         
     3  2  2.50        -3.8151   7.0000                                         
     4  0  0.50        -4.2551   1.0000                                         
     4  3  2.50        -1.3606   0.0000                                         
   Description                                                                  
     l       E           TYP  RCUT    TYP  RCUT                                 
     1    -55.6372668     23  2.000                                             
     1     -5.4423304     23  2.000                                             
     2     -3.8151096     23  2.200                                             
     2     -5.1756922     23  2.200                                             
     0     -4.2550951     23  2.200                                             
     0     27.2116520     23  2.200                                             
     3     -1.3605826     23  2.200                                             
  local pseudopotential read in
  partial core-charges read in
  partial kinetic energy density read in
  atomic valenz-charges read in
  non local Contribution for L=           1  read in
    real space projection operators read in
  non local Contribution for L=           1  read in
    real space projection operators read in
  non local Contribution for L=           2  read in
    real space projection operators read in
  non local Contribution for L=           2  read in
    real space projection operators read in
  non local Contribution for L=           0  read in
    real space projection operators read in
  non local Contribution for L=           0  read in
    real space projection operators read in
    PAW grid and wavefunctions read in
 
   number of l-projection  operators is LMAX  =           6
   number of lm-projection operators is LMMAX =          18
 

 ----------------------------------------------------------------------------- 
|                                                                             |
|  ADVICE TO THIS USER RUNNING 'VASP/VAMP'   (HEAR YOUR MASTER'S VOICE ...):  |
|                                                                             |
|      You have a (more or less) 'large supercell' and for larger cells       |
|      it might be more efficient to use real space projection opertators     |
|      So try LREAL= Auto  in the INCAR   file.                               |
|      Mind:          For very  accurate calculation you might also keep the  |
|      reciprocal projection scheme          (i.e. LREAL=.FALSE.)             |
|                                                                             |
 ----------------------------------------------------------------------------- 


 ----------------------------------------------------------------------------- 
|                                                                             |
|  ADVICE TO THIS USER RUNNING 'VASP/VAMP'   (HEAR YOUR MASTER'S VOICE ...):  |
|                                                                             |
|      You enforced a specific xc-type in the INCAR file,                     |
|      a different type was found on the POTCAR file                          |
|          I HOPE YOU KNOW, WHAT YOU ARE  DOING                               |
|                                                                             |
 ----------------------------------------------------------------------------- 

  PAW_PBE S 06Sep2000                   :
 energy of atom  1       EATOM= -276.8230
 kinetic energy error for atom=    0.0007 (will be added to EATOM!!)
   PAW_PBE Cu_pv 06Sep2000              :
 energy of atom  2       EATOM=-4120.1201
 kinetic energy error for atom=    0.0094 (will be added to EATOM!!)
   PAW_PBE Fe_pv 02Aug2007              :
 energy of atom  3       EATOM=-2457.4239
 kinetic energy error for atom=    0.0025 (will be added to EATOM!!)
 
 
 POSCAR: Fe16 Cu16 S32                           
  positions in direct lattice
  No initial velocities read in
 exchange correlation table for  LEXCH =       14
   RHO(1)=    0.500       N(1)  =     2000
   RHO(2)=  100.500       N(2)  =     4000
 


--------------------------------------------------------------------------------------------------------


 ion  position               nearest neighbor table
   1  0.126  0.126  0.116-  37 2.25  61 2.27  41 2.29  49 2.31
   2  0.626  0.126  0.116-  38 2.25  62 2.27  42 2.29  50 2.31
   3  0.126  0.626  0.116-  39 2.25  63 2.27  43 2.29  51 2.31
   4  0.626  0.626  0.116-  40 2.25  64 2.27  44 2.29  52 2.31
   5  0.374  0.374  0.116-  39 2.25  62 2.27  41 2.29  52 2.31
   6  0.874  0.374  0.116-  40 2.25  61 2.27  42 2.29  51 2.31
   7  0.374  0.874  0.116-  37 2.25  64 2.27  43 2.29  50 2.31
   8  0.874  0.874  0.116-  38 2.25  63 2.27  44 2.29  49 2.31
   9  0.124  0.374  0.866-  41 2.25  51 2.27  45 2.29  55 2.31
  10  0.624  0.374  0.866-  42 2.25  52 2.27  46 2.29  56 2.31
  11  0.124  0.874  0.866-  43 2.25  49 2.27  47 2.29  53 2.31
  12  0.624  0.874  0.866-  44 2.25  50 2.27  48 2.29  54 2.31
  13  0.376  0.126  0.866-  41 2.25  50 2.27  46 2.29  53 2.31
  14  0.876  0.126  0.866-  42 2.25  49 2.27  45 2.29  54 2.31
  15  0.376  0.626  0.866-  43 2.25  52 2.27  48 2.29  55 2.31
  16  0.876  0.626  0.866-  44 2.25  51 2.27  47 2.29  56 2.31
  17  0.124  0.124  0.616-  45 2.25  53 2.27  33 2.29  57 2.31
  18  0.624  0.124  0.616-  46 2.25  54 2.27  34 2.29  58 2.31
  19  0.124  0.624  0.616-  47 2.25  55 2.27  35 2.29  59 2.31
  20  0.624  0.624  0.616-  48 2.25  56 2.27  36 2.29  60 2.31
  21  0.376  0.376  0.616-  46 2.25  55 2.27  36 2.29  57 2.31
  22  0.876  0.376  0.616-  45 2.25  56 2.27  35 2.29  58 2.31
  23  0.376  0.876  0.616-  48 2.25  53 2.27  34 2.29  59 2.31
  24  0.876  0.876  0.616-  47 2.25  54 2.27  33 2.29  60 2.31
  25  0.374  0.124  0.366-  34 2.25  57 2.27  37 2.29  62 2.31
  26  0.874  0.124  0.366-  33 2.25  58 2.27  38 2.29  61 2.31
  27  0.374  0.624  0.366-  36 2.25  59 2.27  39 2.29  64 2.31
  28  0.874  0.624  0.366-  35 2.25  60 2.27  40 2.29  63 2.31
  29  0.126  0.376  0.366-  35 2.25  57 2.27  39 2.29  61 2.31
  30  0.626  0.376  0.366-  36 2.25  58 2.27  40 2.29  62 2.31
  31  0.126  0.876  0.366-  33 2.25  59 2.27  37 2.29  63 2.31
  32  0.626  0.876  0.366-  34 2.25  60 2.27  38 2.29  64 2.31
  33  0.000  0.000  0.508-  26 2.25  31 2.25  17 2.29  24 2.29
  34  0.500  0.000  0.508-  25 2.25  32 2.25  18 2.29  23 2.29
  35  0.000  0.500  0.508-  28 2.25  29 2.25  19 2.29  22 2.29
  36  0.500  0.500  0.508-  27 2.25  30 2.25  20 2.29  21 2.29
  37  0.250  0.000  0.258-   1 2.25   7 2.25  25 2.29  31 2.29
  38  0.750  0.000  0.258-   2 2.25   8 2.25  26 2.29  32 2.29
  39  0.250  0.500  0.258-   3 2.25   5 2.25  27 2.29  29 2.29
  40  0.750  0.500  0.258-   4 2.25   6 2.25  28 2.29  30 2.29
  41  0.250  0.250  0.008-   9 2.25  13 2.25   1 2.29   5 2.29
  42  0.750  0.250  0.008-  10 2.25  14 2.25   2 2.29   6 2.29
  43  0.250  0.750  0.008-  11 2.25  15 2.25   3 2.29   7 2.29
  44  0.750  0.750  0.008-  12 2.25  16 2.25   4 2.29   8 2.29
  45  0.000  0.250  0.758-  17 2.25  22 2.25   9 2.29  14 2.29
  46  0.500  0.250  0.758-  18 2.25  21 2.25  10 2.29  13 2.29
  47  0.000  0.750  0.758-  19 2.25  24 2.25  11 2.29  16 2.29
  48  0.500  0.750  0.758-  20 2.25  23 2.25  12 2.29  15 2.29
  49  0.000  0.000  0.011-  11 2.27  14 2.27   1 2.31   8 2.31
  50  0.500  0.000  0.011-  12 2.27  13 2.27   2 2.31   7 2.31
  51  0.000  0.500  0.011-   9 2.27  16 2.27   3 2.31   6 2.31
  52  0.500  0.500  0.011-  10 2.27  15 2.27   4 2.31   5 2.31
  53  0.250  0.000  0.761-  17 2.27  23 2.27  11 2.31  13 2.31
  54  0.750  0.000  0.761-  18 2.27  24 2.27  12 2.31  14 2.31
  55  0.250  0.500  0.761-  19 2.27  21 2.27   9 2.31  15 2.31
  56  0.750  0.500  0.761-  20 2.27  22 2.27  10 2.31  16 2.31
  57  0.250  0.250  0.511-  25 2.27  29 2.27  17 2.31  21 2.31
  58  0.750  0.250  0.511-  26 2.27  30 2.27  18 2.31  22 2.31
  59  0.250  0.750  0.511-  27 2.27  31 2.27  19 2.31  23 2.31
  60  0.750  0.750  0.511-  28 2.27  32 2.27  20 2.31  24 2.31
  61  0.000  0.250  0.261-   1 2.27   6 2.27  26 2.31  29 2.31
  62  0.500  0.250  0.261-   2 2.27   5 2.27  25 2.31  30 2.31
  63  0.000  0.750  0.261-   3 2.27   8 2.27  28 2.31  31 2.31
  64  0.500  0.750  0.261-   4 2.27   7 2.27  27 2.31  32 2.31
 
  LATTYP: Found a base centered orthorhombic cell.
 ALAT       =    13.5190260571
 B/A-ratio  =     1.1917535576
 C/A-ratio  =     0.7730533217
  
  Lattice vectors:
  
 A1 = (  10.4759190000,   0.9165240000,   0.0000000000)
 A2 = (  -0.9165240000, -10.4759190000,   0.0000000000)
 A3 = (   0.0000000000,   0.0000000000, -10.4509280000)


Analysis of symmetry for initial positions (statically):
=====================================================================
 Subroutine PRICEL returns following result:
 
  LATTYP: Found a face centered orthorhombic cell.
 ALAT       =     6.7595130285
 B/A-ratio  =     1.1917535576
 C/A-ratio  =     1.5461066435
  
  Lattice vectors:
  
 A1 = (  -2.8481107500,  -2.8481107500,   5.2254640000)
 A2 = (  -2.3898487500,   2.3898487500,   5.2254640000)
 A3 = (  -5.2379595000,  -0.4582620000,   0.0000000000)
 
   8 primitive cells build up your supercell.
 

 Routine SETGRP: Setting up the symmetry group for a 
 base centered orthorhombic supercell.


 Subroutine GETGRP returns: Found  4 space group operations
 (whereof  2 operations were pure point group operations)
 out of a pool of  8 trial point group operations.


The static configuration has the point symmetry C_2 .
 The point group associated with its full space group is C_2v.


Analysis of symmetry for dynamics (positions and initial velocities):
=====================================================================
 Subroutine PRICEL returns following result:
 
  LATTYP: Found a face centered orthorhombic cell.
 ALAT       =     6.7595130285
 B/A-ratio  =     1.1917535576
 C/A-ratio  =     1.5461066435
  
  Lattice vectors:
  
 A1 = (  -2.8481107500,  -2.8481107500,   5.2254640000)
 A2 = (  -2.3898487500,   2.3898487500,   5.2254640000)
 A3 = (  -5.2379595000,  -0.4582620000,   0.0000000000)
 
   8 primitive cells build up your supercell.
 

 Routine SETGRP: Setting up the symmetry group for a 
 base centered orthorhombic supercell.


 Subroutine GETGRP returns: Found  4 space group operations
 (whereof  2 operations were pure point group operations)
 out of a pool of  8 trial point group operations.


The dynamic configuration has the point symmetry C_2 .
 The point group associated with its full space group is C_2v.


Analysis of structural, dynamic, and magnetic symmetry:
=====================================================================
 Subroutine PRICEL returns following result:
 
  LATTYP: Found a face centered orthorhombic cell.
 ALAT       =     6.7595130285
 B/A-ratio  =     1.1917535576
 C/A-ratio  =     1.5461066435
  
  Lattice vectors:
  
 A1 = (  -2.8481107500,  -2.8481107500,   5.2254640000)
 A2 = (  -2.3898487500,   2.3898487500,   5.2254640000)
 A3 = (  -5.2379595000,  -0.4582620000,   0.0000000000)
 
   8 primitive cells build up your supercell.
 

 Routine SETGRP: Setting up the symmetry group for a 
 base centered orthorhombic supercell.


 Subroutine GETGRP returns: Found  4 space group operations
 (whereof  2 operations were pure point group operations)
 out of a pool of  8 trial point group operations.


The magnetic configuration has the point symmetry C_2 .
 The point group associated with its full space group is C_2v.


 Subroutine INISYM returns: Found  4 space group operations
 (whereof  2 operations are pure point group operations),
 and found     8 'primitive' translations

 
 
 KPOINTS: Automatic mesh                          

Automatic generation of k-mesh.
Space group operators:
 irot       det(A)        alpha          n_x          n_y          n_z        tau_x        tau_y        tau_z
    1     1.000000     0.000001     1.000000     0.000000     0.000000     0.000000     0.000000     0.000000
    2     1.000000   179.999999     0.000000     0.000000     1.000000     0.000000     0.000000     0.000000
    3    -1.000000   180.000000     0.707107     0.707107     0.000000    -0.750000    -0.000000     0.750000
    4    -1.000000   180.000000     0.707107    -0.707107     0.000000    -0.750000    -0.000000     0.750000
 
 Subroutine IBZKPT returns following result:
 ===========================================
 
 Found      6 irreducible k-points:
 
 Following reciprocal coordinates:
            Coordinates               Weight
  0.000000  0.000000  0.000000      1.000000
  0.500000  0.000000  0.000000      2.000000
  0.500000  0.500000  0.000000      1.000000
  0.000000  0.000000  0.500000      1.000000
  0.500000  0.000000  0.500000      2.000000
  0.500000  0.500000  0.500000      1.000000
 
 Following cartesian coordinates:
            Coordinates               Weight
  0.000000  0.000000  0.000000      1.000000
  0.048097 -0.004208  0.000000      2.000000
  0.043889  0.043889  0.000000      1.000000
  0.000000  0.000000  0.047843      1.000000
  0.048097 -0.004208  0.047843      2.000000
  0.043889  0.043889  0.047843      1.000000
 
 TETIRR: Found     12 inequivalent tetrahedra from       48
 
 Subroutine IBZKPT_HF returns following result:
 ==============================================
 
 Found      8 k-points in 1st BZ
 the following      8 k-points will be used (e.g. in the exchange kernel)
 Following reciprocal coordinates:   # in IRBZ
  0.000000  0.000000  0.000000    0.12500000   1 t-inv F
  0.500000  0.000000  0.000000    0.12500000   2 t-inv F
  0.500000  0.500000  0.000000    0.12500000   3 t-inv F
  0.000000  0.000000  0.500000    0.12500000   4 t-inv F
  0.500000  0.000000  0.500000    0.12500000   5 t-inv F
  0.500000  0.500000  0.500000    0.12500000   6 t-inv F
 -0.000000 -0.500000  0.000000    0.12500000   2 t-inv F spinflp
 -0.000000 -0.500000  0.500000    0.12500000   5 t-inv F spinflp


--------------------------------------------------------------------------------------------------------




 Dimension of arrays:
   k-points           NKPTS =      6   k-points in BZ     NKDIM =      6   number of bands    NBANDS=    512
   number of dos      NEDOS =    301   number of ions     NIONS =     64
   non local maximal  LDIM  =      6   non local SUM 2l+1 LMDIM =     18
   total plane-waves  NPLWV = 829440
   max r-space proj   IRMAX =      1   max aug-charges    IRDMAX=  23156
   dimension x,y,z NGX =    96 NGY =   96 NGZ =   90
   dimension x,y,z NGXF=   192 NGYF=  192 NGZF=  180
   support grid    NGXF=   192 NGYF=  192 NGZF=  180
   ions per type =              32  16  16
   NGX,Y,Z   is equivalent  to a cutoff of  15.18, 15.18, 14.32 a.u.
   NGXF,Y,Z  is equivalent  to a cutoff of  30.35, 30.35, 28.63 a.u.

 SYSTEM =  CuFeS2                                  
 POSCAR =  Fe16 Cu16 S32                           

 Startparameter for this run:
   NWRITE =      2    write-flag & timer
   PREC   = accura    normal or accurate (medium, high low for compatibility)
   ISTART =      1    job   : 0-new  1-cont  2-samecut
   ICHARG =      1    charge: 1-file 2-atom 10-const
   ISPIN  =      2    spin polarized calculation?
   LNONCOLLINEAR =      F non collinear calculations
   LSORBIT =      F    spin-orbit coupling
   INIWAV =      1    electr: 0-lowe 1-rand  2-diag
   LASPH  =      F    aspherical Exc in radial PAW
   METAGGA=      F    non-selfconsistent MetaGGA calc.

 Electronic Relaxation 1
   ENCUT  =  700.0 eV  51.45 Ry    7.17 a.u.  22.69 22.69 22.55*2*pi/ulx,y,z
   ENINI  =  700.0     initial cutoff
   ENAUG  =  758.2 eV  augmentation charge cutoff
   NELM   =    500;   NELMIN=  2; NELMDL=  0     # of ELM steps 
   EDIFF  = 0.1E-07   stopping-criterion for ELM
   LREAL  =      F    real-space projection
   NLSPLINE    = F    spline interpolate recip. space projectors
   LCOMPAT=      F    compatible to vasp.4.4
   GGA_COMPAT  = T    GGA compatible to vasp.4.4-vasp.4.6
   LMAXPAW     = -100 max onsite density
   LMAXMIX     =    4 max onsite mixed and CHGCAR
   VOSKOWN=      0    Vosko Wilk Nusair interpolation
   ROPT   =    0.00000   0.00000   0.00000
 Ionic relaxation
   EDIFFG = -.1E-04   stopping-criterion for IOM
   NSW    =      0    number of steps for IOM
   NBLOCK =      1;   KBLOCK =      1    inner block; outer block 
   IBRION =     -1    ionic relax: 0-MD 1-quasi-New 2-CG
   NFREE  =      0    steps in history (QN), initial steepest desc. (CG)
   ISIF   =      2    stress and relaxation
   IWAVPR =     10    prediction:  0-non 1-charg 2-wave 3-comb
   ISYM   =      2    0-nonsym 1-usesym 2-fastsym
   LCORR  =      T    Harris-Foulkes like correction to forces

   POTIM  = 0.5000    time-step for ionic-motion
   TEIN   =    0.0    initial temperature
   TEBEG  =    0.0;   TEEND  =   0.0 temperature during run
   SMASS  =  -3.00    Nose mass-parameter (am)
   estimated Nose-frequenzy (Omega)   =  0.10E-29 period in steps =****** mass=  -0.253E-26a.u.
   SCALEE = 1.0000    scale energy and forces
   NPACO  =    256;   APACO  = 16.0  distance and # of slots for P.C.
   PSTRESS=    0.0 pullay stress

  Mass of Ions in am
   POMASS =  32.07 63.55 55.85
  Ionic Valenz
   ZVAL   =   6.00 17.00 14.00
  Atomic Wigner-Seitz radii
   RWIGS  =  -1.00 -1.00 -1.00
  virtual crystal weights 
   VCA    =   1.00  1.00  1.00
   NELECT =     688.0000    total number of electrons
   NUPDOWN=      -1.0000    fix difference up-down

 DOS related values:
   EMIN   =  10.00;   EMAX   =-10.00  energy-range for DOS
   EFERMI =   0.00
   ISMEAR =    -5;   SIGMA  =   0.03  broadening in eV -4-tet -1-fermi 0-gaus

 Electronic relaxation 2 (details)
   IALGO  =     38    algorithm
   LDIAG  =      T    sub-space diagonalisation (order eigenvalues)
   LSUBROT=      F    optimize rotation matrix (better conditioning)
   TURBO    =      0    0=normal 1=particle mesh
   IRESTART =      0    0=no restart 2=restart with 2 vectors
   NREBOOT  =      0    no. of reboots
   NMIN     =      0    reboot dimension
   EREF     =   0.00    reference energy to select bands
   IMIX   =      4    mixing-type and parameters
     AMIX     =   0.40;   BMIX     =  1.00
     AMIX_MAG =   1.60;   BMIX_MAG =  1.00
     AMIN     =   0.10
     WC   =   100.;   INIMIX=   1;  MIXPRE=   1;  MAXMIX= -45

 Intra band minimization:
   WEIMIN = 0.0000     energy-eigenvalue tresh-hold
   EBREAK =  0.49E-11  absolut break condition
   DEPER  =   0.30     relativ break condition  

   TIME   =   0.40     timestep for ELM

  volume/ion in A,a.u.               =      17.78       120.01
  Fermi-wavevector in a.u.,A,eV,Ry     =   1.384215  2.615787 26.069465  1.916052
  Thomas-Fermi vector in A             =   2.508740
 
 Write flags
   LWAVE        =      T    write WAVECAR
   LDOWNSAMPLE  =      F    k-point downsampling of WAVECAR
   LCHARG       =      T    write CHGCAR
   LVTOT        =      F    write LOCPOT, total local potential
   LVHAR        =      F    write LOCPOT, Hartree potential only
   LELF         =      F    write electronic localiz. function (ELF)
   LORBIT       =     11    0 simple, 1 ext, 2 COOP (PROOUT), +10 PAW based schemes


 Dipole corrections
   LMONO  =      F    monopole corrections only (constant potential shift)
   LDIPOL =      F    correct potential (dipole corrections)
   IDIPOL =      0    1-x, 2-y, 3-z, 4-all directions 
   EPSILON=  1.0000000 bulk dielectric constant

 LDA+U is selected, type is set to LDAUTYPE =  2
   angular momentum for each species LDAUL =     2    2    2
   U (eV)           for each species LDAUU =   0.0  0.1  4.7
   J (eV)           for each species LDAUJ =   0.0  0.0  0.0
 Exchange correlation treatment:
   GGA     =    PS    GGA type
   LEXCH   =    14    internal setting for exchange type
   VOSKOWN=      0    Vosko Wilk Nusair interpolation
   LHFCALC =     F    Hartree Fock is set to
   LHFONE  =     F    Hartree Fock one center treatment
   AEXX    =    0.0000 exact exchange contribution

 Linear response parameters
   LEPSILON=     F    determine dielectric tensor
   LRPA    =     F    only Hartree local field effects (RPA)
   LNABLA  =     F    use nabla operator in PAW spheres
   LVEL    =     F    velocity operator in full k-point grid
   LINTERFAST=   F  fast interpolation
   KINTER  =     0    interpolate to denser k-point grid
   CSHIFT  =0.1000    complex shift for real part using Kramers Kronig
   OMEGAMAX=  -1.0    maximum frequency
   DEG_THRESHOLD= 0.2000000E-02 threshold for treating states as degnerate
   RTIME   =   -0.100 relaxation time in fs
  (WPLASMAI=    0.000 imaginary part of plasma frequency in eV, 0.658/RTIME)
   DFIELD  = 0.0000000 0.0000000 0.0000000 field for delta impulse in time
 
 Orbital magnetization related:
   ORBITALMAG=     F  switch on orbital magnetization
   LCHIMAG   =     F  perturbation theory with respect to B field
   DQ        =  0.001000  dq finite difference perturbation B field
   LLRAUG    =     F  two centre corrections for induced B field

 PEAD related settings:
   LPEAD      =     T    switch on PEAD
   IPEAD      =     4    finite difference order for dpsi/dk
   LCALCPOL   =     T    calculate macroscopic polarization
   LCALCEPS   =     F    calculate dielectric tensor
   EFIELD_PEAD=    0.0000    0.0000    0.0000
   SKIP_EDOTP =     F
   LRPA       =     F
   SKIP_SCF   =     F


--------------------------------------------------------------------------------------------------------


 Static calculation
 charge density and potential will be updated during run
 spin polarized calculation
 Variant of blocked Davidson
 Davidson routine will perform the subspace rotation
 perform sub-space diagonalisation
    after iterative eigenvector-optimisation
 modified Broyden-mixing scheme, WC =      100.0
 initial mixing is a Kerker type mixing with AMIX =  0.4000 and BMIX =      1.0000
 Hartree-type preconditioning will be used
 using additional bands          168
 reciprocal scheme for non local part
 use partial core corrections
 calculate Harris-corrections to forces 
   (improved forces if not selfconsistent)
 use gradient corrections 
 use of overlap-Matrix (Vanderbilt PP)
 Fermi weights with tetrahedron method with Bloechl corrections


--------------------------------------------------------------------------------------------------------


  energy-cutoff  :      700.00
  volume of cell :     1138.16
      direct lattice vectors                 reciprocal lattice vectors
    10.475919000  0.916524000  0.000000000     0.096193308 -0.008415823  0.000000000
     0.916524000 10.475919000  0.000000000    -0.008415823  0.096193308  0.000000000
     0.000000000  0.000000000 10.450928000     0.000000000  0.000000000  0.095685283

  length of vectors
    10.515935295 10.515935295 10.450928000     0.096560751  0.096560751  0.095685283


 
 old parameters found on file WAVECAR:
  energy-cutoff  :      700.00
  volume of cell :     1138.16
      direct lattice vectors                 reciprocal lattice vectors
    10.475919000  0.916524000  0.000000000     0.096193308 -0.008415823  0.000000000
     0.916524000 10.475919000  0.000000000    -0.008415823  0.096193308  0.000000000
     0.000000000  0.000000000 10.450928000     0.000000000  0.000000000  0.095685283

  length of vectors

 
 k-points in units of 2pi/SCALE and weight: Automatic mesh                          
   0.00000000  0.00000000  0.00000000       0.125
   0.04809665 -0.00420791  0.00000000       0.250
   0.04388874  0.04388874  0.00000000       0.125
   0.00000000  0.00000000  0.04784264       0.125
   0.04809665 -0.00420791  0.04784264       0.250
   0.04388874  0.04388874  0.04784264       0.125
 
 k-points in reciprocal lattice and weights: Automatic mesh                          
   0.00000000  0.00000000  0.00000000       0.125
   0.50000000  0.00000000  0.00000000       0.250
   0.50000000  0.50000000  0.00000000       0.125
   0.00000000  0.00000000  0.50000000       0.125
   0.50000000  0.00000000  0.50000000       0.250
   0.50000000  0.50000000  0.50000000       0.125
 
 position of ions in fractional coordinates (direct lattice) 
   0.12597900  0.12590300  0.11562900
   0.62597900  0.12590300  0.11562900
   0.12597900  0.62590300  0.11562900
   0.62597900  0.62590300  0.11562900
   0.37402100  0.37409700  0.11562900
   0.87402100  0.37409700  0.11562900
   0.37402100  0.87409700  0.11562900
   0.87402100  0.87409700  0.11562900
   0.12409700  0.37402100  0.86562900
   0.62409700  0.37402100  0.86562900
   0.12409700  0.87402100  0.86562900
   0.62409700  0.87402100  0.86562900
   0.37590300  0.12597900  0.86562900
   0.87590300  0.12597900  0.86562900
   0.37590300  0.62597900  0.86562900
   0.87590300  0.62597900  0.86562900
   0.12402100  0.12409700  0.61562900
   0.62402100  0.12409700  0.61562900
   0.12402100  0.62409700  0.61562900
   0.62402100  0.62409700  0.61562900
   0.37597900  0.37590300  0.61562900
   0.87597900  0.37590300  0.61562900
   0.37597900  0.87590300  0.61562900
   0.87597900  0.87590300  0.61562900
   0.37409700  0.12402100  0.36562900
   0.87409700  0.12402100  0.36562900
   0.37409700  0.62402100  0.36562900
   0.87409700  0.62402100  0.36562900
   0.12590300  0.37597900  0.36562900
   0.62590300  0.37597900  0.36562900
   0.12590300  0.87597900  0.36562900
   0.62590300  0.87597900  0.36562900
   0.00000000  0.00000000  0.50819900
   0.50000000  0.00000000  0.50819900
   0.00000000  0.50000000  0.50819900
   0.50000000  0.50000000  0.50819900
   0.25000000  0.00000000  0.25819900
   0.75000000  0.00000000  0.25819900
   0.25000000  0.50000000  0.25819900
   0.75000000  0.50000000  0.25819900
   0.25000000  0.25000000  0.00819900
   0.75000000  0.25000000  0.00819900
   0.25000000  0.75000000  0.00819900
   0.75000000  0.75000000  0.00819900
   0.00000000  0.25000000  0.75819900
   0.50000000  0.25000000  0.75819900
   0.00000000  0.75000000  0.75819900
   0.50000000  0.75000000  0.75819900
   0.00000000  0.00000000  0.01054400
   0.50000000  0.00000000  0.01054400
   0.00000000  0.50000000  0.01054400
   0.50000000  0.50000000  0.01054400
   0.25000000  0.00000000  0.76054400
   0.75000000  0.00000000  0.76054400
   0.25000000  0.50000000  0.76054400
   0.75000000  0.50000000  0.76054400
   0.25000000  0.25000000  0.51054400
   0.75000000  0.25000000  0.51054400
   0.25000000  0.75000000  0.51054400
   0.75000000  0.75000000  0.51054400
   0.00000000  0.25000000  0.26054400
   0.50000000  0.25000000  0.26054400
   0.00000000  0.75000000  0.26054400
   0.50000000  0.75000000  0.26054400
 
 position of ions in cartesian coordinates  (Angst):
   1.43513892  1.43441241  1.20843035
   6.67309842  1.89267441  1.20843035
   1.89340092  6.67237191  1.20843035
   7.13136042  7.13063391  1.20843035
   4.26108258  4.26180909  1.20843035
   9.49904208  4.72007109  1.20843035
   4.71934458  9.49976859  1.20843035
   9.95730408  9.95803059  1.20843035
   1.64282934  4.03195158  9.04662635
   6.88078884  4.49021358  9.04662635
   2.10109134  9.26991108  9.04662635
   7.33905084  9.72817308  9.04662635
   4.05339216  1.66426992  9.04662635
   9.29135166  2.12253192  9.04662635
   4.51165416  6.90222942  9.04662635
   9.74961366  7.36049142  9.04662635
   1.41297183  1.41369834  6.43389435
   6.65093133  1.87196034  6.43389435
   1.87123383  6.65165784  6.43389435
   7.10919333  7.10991984  6.43389435
   4.28324967  4.28252316  6.43389435
   9.52120917  4.74078516  6.43389435
   4.74151167  9.52048266  6.43389435
   9.97947117  9.97874466  6.43389435
   4.03267809  1.64210283  3.82116235
   9.27063759  2.10036483  3.82116235
   4.49094009  6.88006233  3.82116235
   9.72889959  7.33832433  3.82116235
   1.66354341  4.05411867  3.82116235
   6.90150291  4.51238067  3.82116235
   2.12180541  9.29207817  3.82116235
   7.35976491  9.75034017  3.82116235
   0.00000000  0.00000000  5.31115116
   5.23795950  0.45826200  5.31115116
   0.45826200  5.23795950  5.31115116
   5.69622150  5.69622150  5.31115116
   2.61897975  0.22913100  2.69841916
   7.85693925  0.68739300  2.69841916
   3.07724175  5.46709050  2.69841916
   8.31520125  5.92535250  2.69841916
   2.84811075  2.84811075  0.08568716
   8.08607025  3.30637275  0.08568716
   3.30637275  8.08607025  0.08568716
   8.54433225  8.54433225  0.08568716
   0.22913100  2.61897975  7.92388316
   5.46709050  3.07724175  7.92388316
   0.68739300  7.85693925  7.92388316
   5.92535250  8.31520125  7.92388316
   0.00000000  0.00000000  0.11019458
   5.23795950  0.45826200  0.11019458
   0.45826200  5.23795950  0.11019458
   5.69622150  5.69622150  0.11019458
   2.61897975  0.22913100  7.94839058
   7.85693925  0.68739300  7.94839058
   3.07724175  5.46709050  7.94839058
   8.31520125  5.92535250  7.94839058
   2.84811075  2.84811075  5.33565858
   8.08607025  3.30637275  5.33565858
   3.30637275  8.08607025  5.33565858
   8.54433225  8.54433225  5.33565858
   0.22913100  2.61897975  2.72292658
   5.46709050  3.07724175  2.72292658
   0.68739300  7.85693925  2.72292658
   5.92535250  8.31520125  2.72292658
 


--------------------------------------------------------------------------------------------------------


 k-point  1 :   0.0000 0.0000 0.0000  plane waves:   47899
 k-point  2 :   0.5000 0.0000 0.0000  plane waves:   47860
 k-point  3 :   0.5000 0.5000 0.0000  plane waves:   47928
 k-point  4 :   0.0000 0.0000 0.5000  plane waves:   47898
 k-point  5 :   0.5000 0.0000 0.5000  plane waves:   47816
 k-point  6 :   0.5000 0.5000 0.5000  plane waves:   47752

 maximum and minimum number of plane-waves per node :     47928    47752

 maximum number of plane-waves:     47928
 maximum index in each direction: 
   IXMAX=   22   IYMAX=   22   IZMAX=   22
   IXMIN=  -23   IYMIN=  -23   IZMIN=  -23


 serial   3D FFT for wavefunctions
 parallel 3D FFT for charge:
    minimum data exchange during FFTs selected (reduces bandwidth)


 total amount of memory used by VASP MPI-rank0   299201. kBytes
=======================================================================

   base      :      30000. kBytes
   nonl-proj :     174030. kBytes
   fftplans  :       4588. kBytes
   grid      :      69719. kBytes
   one-center:       1990. kBytes
   wavefun   :      18874. kBytes
 
     INWAV:  cpu time   11.3290: real time   11.5678
 Broyden mixing: mesh for mixing (old mesh)
   NGX = 45   NGY = 45   NGZ = 45
  (NGX  =192   NGY  =192   NGZ  =180)
  gives a total of  91125 points

 initial charge density was supplied:
 number of electron     687.9999903 magnetization      -0.0000000
 keeping initial charge density in first step


--------------------------------------------------------------------------------------------------------


 Maximum index for augmentation-charges          897 (set IRDMAX)


--------------------------------------------------------------------------------------------------------


 First call to EWALD:  gamma=   0.170
 Maximum number of real-space cells 3x 3x 3
 Maximum number of reciprocal cells 3x 3x 3

    FEWALD:  cpu time    0.0034: real time    0.0034


--------------------------------------- Iteration      1(   1)  ---------------------------------------


    POTLOK:  cpu time    0.3403: real time    0.3895
    SETDIJ:  cpu time    0.0146: real time    0.0146
     EDDAV:  cpu time  154.1775: real time  155.2491
 BZINTS: Fermi energy:  5.198163;688.000000 electrons
         Band energy:***********;  BLOECHL correction:  0.000000
       DOS:  cpu time    0.0033: real time    0.0034
    CHARGE:  cpu time    1.1875: real time    1.1954
    MIXING:  cpu time    0.0025: real time    0.0025
    --------------------------------------------
      LOOP:  cpu time  155.7257: real time  156.8546

 eigenvalue-minimisations  : 20480
 total energy-change (2. order) :-0.3027055E+03  (-0.1298603E+03)
 number of electron     687.9999903 magnetization      -0.0000000
 augmentation part      282.9452918 magnetization      -0.0000000

 Broyden mixing:
  rms(total) = 0.30557E+01    rms(broyden)= 0.30557E+01
  rms(prec ) = 0.30564E+01
  weight for this iteration     100.00

 Free energy of the ion-electron system (eV)
  ---------------------------------------------------
  alpha Z        PSCENC =      2382.05347284
  Ewald energy   TEWEN  =    -62824.07510471
  -Hartree energ DENC   =    -42726.55697093
  -exchange      EXHF   =         0.00000000
  -V(xc)+E(xc)   XCENC  =      3286.26056062
  PAW double counting   =    111987.82886390  -115677.27088211
  entropy T*S    EENTRO =         0.00000000
  eigenvalues    EBANDS =    -10751.01056290
  atomic energy  EATOM  =    114020.06510763
  Solvation  Ediel_sol  =         0.00000000
  ---------------------------------------------------
  free energy    TOTEN  =      -302.70551565 eV

  energy without entropy =     -302.70551565  energy(sigma->0) =     -302.70551565


--------------------------------------------------------------------------------------------------------




--------------------------------------- Iteration      1(   2)  ---------------------------------------


    POTLOK:  cpu time    0.1186: real time    0.1224
    SETDIJ:  cpu time    0.0127: real time    0.0128
     EDDAV:  cpu time   69.1842: real time   69.7091
 BZINTS: Fermi energy:  5.248858;688.000000 electrons
         Band energy:***********;  BLOECHL correction:  0.000000
       DOS:  cpu time    0.0028: real time    0.0028
    CHARGE:  cpu time    1.1817: real time    1.1898
    MIXING:  cpu time    0.0025: real time    0.0615
    --------------------------------------------
      LOOP:  cpu time   70.5025: real time   71.0983

 eigenvalue-minimisations  : 12800
 total energy-change (2. order) :-0.2183399E+02  (-0.2186255E+02)
 number of electron     687.9999903 magnetization      -0.0000000
 augmentation part      281.8035573 magnetization      -0.0000000

 Broyden mixing:
  rms(total) = 0.12441E+01    rms(broyden)= 0.12441E+01
  rms(prec ) = 0.12500E+01
  weight for this iteration     100.00

 eigenvalues of (default mixing * dielectric matrix)
  average eigenvalue GAMMA=   0.7019
  0.7019

 Free energy of the ion-electron system (eV)
  ---------------------------------------------------
  alpha Z        PSCENC =      2382.05347284
  Ewald energy   TEWEN  =    -62824.07510471
  -Hartree energ DENC   =    -42740.13498826
  -exchange      EXHF   =         0.00000000
  -V(xc)+E(xc)   XCENC  =      3286.85095005
  PAW double counting   =    114591.23488012  -118292.88418797
  entropy T*S    EENTRO =         0.00000000
  eigenvalues    EBANDS =    -10747.64963216
  atomic energy  EATOM  =    114020.06510763
  Solvation  Ediel_sol  =         0.00000000
  ---------------------------------------------------
  free energy    TOTEN  =      -324.53950247 eV

  energy without entropy =     -324.53950247  energy(sigma->0) =     -324.53950247


--------------------------------------------------------------------------------------------------------




--------------------------------------- Iteration      1(   3)  ---------------------------------------


    POTLOK:  cpu time    0.1175: real time    0.1215
    SETDIJ:  cpu time    0.0130: real time    0.0131
     EDDAV:  cpu time  140.9402: real time  141.8809
 BZINTS: Fermi energy:  5.294152;688.000000 electrons
         Band energy:***********;  BLOECHL correction:  0.000000
       DOS:  cpu time    0.0033: real time    0.0033
    CHARGE:  cpu time    1.4672: real time    1.4758
    MIXING:  cpu time    0.0018: real time    0.0033
    --------------------------------------------
      LOOP:  cpu time  142.5430: real time  143.4978

 eigenvalue-minimisations  : 19712
 total energy-change (2. order) :-0.2758473E+00  (-0.3381238E+00)
 number of electron     687.9999903 magnetization      -0.0000000
 augmentation part      282.3406694 magnetization      -0.0000000

 Broyden mixing:
  rms(total) = 0.91103E+00    rms(broyden)= 0.91103E+00
  rms(prec ) = 0.91509E+00
  weight for this iteration     100.00

 eigenvalues of (default mixing * dielectric matrix)
  average eigenvalue GAMMA=   0.5198
  0.5198  0.5198

 Free energy of the ion-electron system (eV)
  ---------------------------------------------------
  alpha Z        PSCENC =      2382.05347284
  Ewald energy   TEWEN  =    -62824.07510471
  -Hartree energ DENC   =    -42714.50148828
  -exchange      EXHF   =         0.00000000
  -V(xc)+E(xc)   XCENC  =      3286.24770461
  PAW double counting   =    113876.96434520  -117572.08266899
  entropy T*S    EENTRO =         0.00000000
  eigenvalues    EBANDS =    -10779.48671809
  atomic energy  EATOM  =    114020.06510763
  Solvation  Ediel_sol  =         0.00000000
  ---------------------------------------------------
  free energy    TOTEN  =      -324.81534979 eV

  energy without entropy =     -324.81534979  energy(sigma->0) =     -324.81534979


--------------------------------------------------------------------------------------------------------




--------------------------------------- Iteration      1(   4)  ---------------------------------------


    POTLOK:  cpu time    0.1344: real time    0.1371
    SETDIJ:  cpu time    0.0163: real time    0.0164
     EDDAV:  cpu time   81.4586: real time   82.0559
 BZINTS: Fermi energy:  5.215017;688.000000 electrons
         Band energy:***********;  BLOECHL correction:  0.000000
       DOS:  cpu time    0.0032: real time    0.0032
    CHARGE:  cpu time    1.1848: real time    1.1920
    MIXING:  cpu time    0.0014: real time    0.0025
    --------------------------------------------
      LOOP:  cpu time   82.7986: real time   83.4071

 eigenvalue-minimisations  : 13824
 total energy-change (2. order) : 0.1341740E-02  (-0.1351112E-01)
 number of electron     687.9999903 magnetization       0.0000000
 augmentation part      282.2509179 magnetization       0.0000000

 Broyden mixing:
  rms(total) = 0.78731E+00    rms(broyden)= 0.78731E+00
  rms(prec ) = 0.78769E+00
  weight for this iteration     100.00

 eigenvalues of (default mixing * dielectric matrix)
  average eigenvalue GAMMA=   0.5407
  0.6308  0.6308  0.3607

 Free energy of the ion-electron system (eV)
  ---------------------------------------------------
  alpha Z        PSCENC =      2382.05347284
  Ewald energy   TEWEN  =    -62824.07510471
  -Hartree energ DENC   =    -42717.61129627
  -exchange      EXHF   =         0.00000000
  -V(xc)+E(xc)   XCENC  =      3286.13888494
  PAW double counting   =    113646.45501586  -117341.77057534
  entropy T*S    EENTRO =         0.00000000
  eigenvalues    EBANDS =    -10776.06951300
  atomic energy  EATOM  =    114020.06510763
  Solvation  Ediel_sol  =         0.00000000
  ---------------------------------------------------
  free energy    TOTEN  =      -324.81400805 eV

  energy without entropy =     -324.81400805  energy(sigma->0) =     -324.81400805


--------------------------------------------------------------------------------------------------------




--------------------------------------- Iteration      1(   5)  ---------------------------------------


    POTLOK:  cpu time    0.1207: real time    0.1218
    SETDIJ:  cpu time    0.0127: real time    0.0127
     EDDAV:  cpu time  120.4732: real time  121.2996
 BZINTS: Fermi energy:  5.197916;688.000000 electrons
         Band energy:***********;  BLOECHL correction:  0.000000
       DOS:  cpu time    0.0032: real time    0.0032
    CHARGE:  cpu time    1.1839: real time    1.1922
    MIXING:  cpu time    0.0014: real time    0.0014
    --------------------------------------------
      LOOP:  cpu time  121.7951: real time  122.6309

 eigenvalue-minimisations  : 17152
 total energy-change (2. order) : 0.9201949E-04  (-0.1063645E-02)
 number of electron     687.9999903 magnetization       0.0000000
 augmentation part      282.2195491 magnetization       0.0000000

 Broyden mixing:
  rms(total) = 0.68486E+00    rms(broyden)= 0.68486E+00
  rms(prec ) = 0.68502E+00
  weight for this iteration     100.00

 eigenvalues of (default mixing * dielectric matrix)
  average eigenvalue GAMMA=   0.4574
  0.6511  0.6511  0.3517  0.1757

 Free energy of the ion-electron system (eV)
  ---------------------------------------------------
  alpha Z        PSCENC =      2382.05347284
  Ewald energy   TEWEN  =    -62824.07510471
  -Hartree energ DENC   =    -42722.13860589
  -exchange      EXHF   =         0.00000000
  -V(xc)+E(xc)   XCENC  =      3286.25177913
  PAW double counting   =    113415.67227699  -117110.48502544
  entropy T*S    EENTRO =         0.00000000
  eigenvalues    EBANDS =    -10772.15781659
  atomic energy  EATOM  =    114020.06510763
  Solvation  Ediel_sol  =         0.00000000
  ---------------------------------------------------
  free energy    TOTEN  =      -324.81391603 eV

  energy without entropy =     -324.81391603  energy(sigma->0) =     -324.81391603


--------------------------------------------------------------------------------------------------------




--------------------------------------- Iteration      1(   6)  ---------------------------------------


    POTLOK:  cpu time    0.1214: real time    0.1225
    SETDIJ:  cpu time    0.0126: real time    0.0127
     EDDAV:  cpu time  104.5474: real time  105.2708
 BZINTS: Fermi energy:  5.191881;688.000000 electrons
         Band energy:***********;  BLOECHL correction:  0.000000
       DOS:  cpu time    0.0032: real time    0.0032
    CHARGE:  cpu time    1.1841: real time    1.1922
    MIXING:  cpu time    0.0014: real time    0.0014
    --------------------------------------------
      LOOP:  cpu time  105.8702: real time  106.6029

 eigenvalue-minimisations  : 15872
 total energy-change (2. order) : 0.2264957E-03  (-0.5593163E-04)
 number of electron     687.9999903 magnetization       0.0000000
 augmentation part      282.2188229 magnetization       0.0000000

 Broyden mixing:
  rms(total) = 0.62736E+00    rms(broyden)= 0.62736E+00
  rms(prec ) = 0.62751E+00
  weight for this iteration     100.00

 eigenvalues of (default mixing * dielectric matrix)
  average eigenvalue GAMMA=   0.6012
  0.8207  0.8207  0.5111  0.5111  0.3423

 Free energy of the ion-electron system (eV)
  ---------------------------------------------------
  alpha Z        PSCENC =      2382.05347284
  Ewald energy   TEWEN  =    -62824.07510471
  -Hartree energ DENC   =    -42722.63149496
  -exchange      EXHF   =         0.00000000
  -V(xc)+E(xc)   XCENC  =      3286.24713983
  PAW double counting   =    113288.78122409  -116983.08084979
  entropy T*S    EENTRO =         0.00000000
  eigenvalues    EBANDS =    -10772.17318448
  atomic energy  EATOM  =    114020.06510763
  Solvation  Ediel_sol  =         0.00000000
  ---------------------------------------------------
  free energy    TOTEN  =      -324.81368953 eV

  energy without entropy =     -324.81368953  energy(sigma->0) =     -324.81368953


--------------------------------------------------------------------------------------------------------




--------------------------------------- Iteration      1(   7)  ---------------------------------------


    POTLOK:  cpu time    0.1200: real time    0.1227
    SETDIJ:  cpu time    0.0126: real time    0.0127
     EDDAV:  cpu time  127.6061: real time  128.4613
 BZINTS: Fermi energy:  5.187654;688.000000 electrons
         Band energy:***********;  BLOECHL correction:  0.000000
       DOS:  cpu time    0.0032: real time    0.0032
    CHARGE:  cpu time    1.1945: real time    1.2029
    MIXING:  cpu time    0.0016: real time    0.0016
    --------------------------------------------
      LOOP:  cpu time  128.9380: real time  129.8043

 eigenvalue-minimisations  : 17664
 total energy-change (2. order) : 0.7059875E-03  (-0.5390466E-04)
 number of electron     687.9999903 magnetization       0.0000000
 augmentation part      282.2461108 magnetization       0.0000000

 Broyden mixing:
  rms(total) = 0.47722E+00    rms(broyden)= 0.47722E+00
  rms(prec ) = 0.47731E+00
  weight for this iteration     100.00

 eigenvalues of (default mixing * dielectric matrix)
  average eigenvalue GAMMA=   0.7249
  1.1919  1.1919  0.5813  0.5813  0.4596  0.3435

 Free energy of the ion-electron system (eV)
  ---------------------------------------------------
  alpha Z        PSCENC =      2382.05347284
  Ewald energy   TEWEN  =    -62824.07510471
  -Hartree energ DENC   =    -42723.29075847
  -exchange      EXHF   =         0.00000000
  -V(xc)+E(xc)   XCENC  =      3286.23803788
  PAW double counting   =    112957.79596454  -116650.72012279
  entropy T*S    EENTRO =         0.00000000
  eigenvalues    EBANDS =    -10772.87958046
  atomic energy  EATOM  =    114020.06510763
  Solvation  Ediel_sol  =         0.00000000
  ---------------------------------------------------
  free energy    TOTEN  =      -324.81298355 eV

  energy without entropy =     -324.81298355  energy(sigma->0) =     -324.81298355


--------------------------------------------------------------------------------------------------------




--------------------------------------- Iteration      1(   8)  ---------------------------------------


    POTLOK:  cpu time    0.1223: real time    0.1233
    SETDIJ:  cpu time    0.0127: real time    0.0127
     EDDAV:  cpu time   77.0177: real time   77.5939
 BZINTS: Fermi energy:  5.187072;688.000000 electrons
         Band energy:***********;  BLOECHL correction:  0.000000
       DOS:  cpu time    0.0032: real time    0.0032
    CHARGE:  cpu time    1.1872: real time    1.1953
    MIXING:  cpu time    0.0015: real time    0.0015
    --------------------------------------------
      LOOP:  cpu time   78.3446: real time   78.9300

 eigenvalue-minimisations  : 13312
 total energy-change (2. order) : 0.3736466E-03  (-0.3842265E-04)
 number of electron     687.9999903 magnetization       0.0000000
 augmentation part      282.2561013 magnetization       0.0000000

 Broyden mixing:
  rms(total) = 0.29784E+00    rms(broyden)= 0.29784E+00
  rms(prec ) = 0.29794E+00
  weight for this iteration     100.00

 eigenvalues of (default mixing * dielectric matrix)
  average eigenvalue GAMMA=   0.7309
  1.3082  1.3082  0.6357  0.6357  0.4467  0.4467  0.3348

 Free energy of the ion-electron system (eV)
  ---------------------------------------------------
  alpha Z        PSCENC =      2382.05347284
  Ewald energy   TEWEN  =    -62824.07510471
  -Hartree energ DENC   =    -42724.96221087
  -exchange      EXHF   =         0.00000000
  -V(xc)+E(xc)   XCENC  =      3286.24963128
  PAW double counting   =    112573.50011432  -116264.96880268
  entropy T*S    EENTRO =         0.00000000
  eigenvalues    EBANDS =    -10772.67481771
  atomic energy  EATOM  =    114020.06510763
  Solvation  Ediel_sol  =         0.00000000
  ---------------------------------------------------
  free energy    TOTEN  =      -324.81260990 eV

  energy without entropy =     -324.81260990  energy(sigma->0) =     -324.81260990


--------------------------------------------------------------------------------------------------------




--------------------------------------- Iteration      1(   9)  ---------------------------------------


    POTLOK:  cpu time    0.1199: real time    0.1208
    SETDIJ:  cpu time    0.0128: real time    0.0128
     EDDAV:  cpu time  130.9250: real time  131.7949
 BZINTS: Fermi energy:  5.186933;688.000000 electrons
         Band energy:***********;  BLOECHL correction:  0.000000
       DOS:  cpu time    0.0032: real time    0.0032
    CHARGE:  cpu time    1.1866: real time    1.1945
    MIXING:  cpu time    0.0016: real time    0.0016
    --------------------------------------------
      LOOP:  cpu time  132.2490: real time  133.1278

 eigenvalue-minimisations  : 17664
 total energy-change (2. order) : 0.9756876E-04  (-0.5603439E-05)
 number of electron     687.9999903 magnetization      -0.0000000
 augmentation part      282.2623459 magnetization      -0.0000000

 Broyden mixing:
  rms(total) = 0.24342E+00    rms(broyden)= 0.24342E+00
  rms(prec ) = 0.24350E+00
  weight for this iteration     100.00

 eigenvalues of (default mixing * dielectric matrix)
  average eigenvalue GAMMA=   0.7459
  1.4138  1.4138  0.6967  0.6967  0.4859  0.4859  0.4329  0.3417

 Free energy of the ion-electron system (eV)
  ---------------------------------------------------
  alpha Z        PSCENC =      2382.05347284
  Ewald energy   TEWEN  =    -62824.07510471
  -Hartree energ DENC   =    -42725.25164785
  -exchange      EXHF   =         0.00000000
  -V(xc)+E(xc)   XCENC  =      3286.25349925
  PAW double counting   =    112465.37097141  -116156.43904792
  entropy T*S    EENTRO =         0.00000000
  eigenvalues    EBANDS =    -10772.78976298
  atomic energy  EATOM  =    114020.06510763
  Solvation  Ediel_sol  =         0.00000000
  ---------------------------------------------------
  free energy    TOTEN  =      -324.81251233 eV

  energy without entropy =     -324.81251233  energy(sigma->0) =     -324.81251233


--------------------------------------------------------------------------------------------------------




--------------------------------------- Iteration      1(  10)  ---------------------------------------


    POTLOK:  cpu time    0.1215: real time    0.1225
    SETDIJ:  cpu time    0.0126: real time    0.0126
     EDDAV:  cpu time   74.2422: real time   74.7928
 BZINTS: Fermi energy:  5.186938;688.000000 electrons
         Band energy:***********;  BLOECHL correction:  0.000000
       DOS:  cpu time    0.0032: real time    0.0032
    CHARGE:  cpu time    1.1881: real time    1.1964
    MIXING:  cpu time    0.0016: real time    0.0017
    --------------------------------------------
      LOOP:  cpu time   75.5691: real time   76.1291

 eigenvalue-minimisations  : 13056
 total energy-change (2. order) : 0.1620229E-03  (-0.2376976E-04)
 number of electron     687.9999903 magnetization      -0.0000000
 augmentation part      282.2787995 magnetization      -0.0000000

 Broyden mixing:
  rms(total) = 0.10435E+00    rms(broyden)= 0.10435E+00
  rms(prec ) = 0.10437E+00
  weight for this iteration     100.00

 eigenvalues of (default mixing * dielectric matrix)
  average eigenvalue GAMMA=   0.9113
  1.9007  1.9007  0.9460  0.9460  0.5897  0.5897  0.3385  0.4950  0.4950

 Free energy of the ion-electron system (eV)
  ---------------------------------------------------
  alpha Z        PSCENC =      2382.05347284
  Ewald energy   TEWEN  =    -62824.07510471
  -Hartree energ DENC   =    -42725.97939109
  -exchange      EXHF   =         0.00000000
  -V(xc)+E(xc)   XCENC  =      3286.25805608
  PAW double counting   =    112188.01216172  -115878.07551208
  entropy T*S    EENTRO =         0.00000000
  eigenvalues    EBANDS =    -10773.07114070
  atomic energy  EATOM  =    114020.06510763
  Solvation  Ediel_sol  =         0.00000000
  ---------------------------------------------------
  free energy    TOTEN  =      -324.81235031 eV

  energy without entropy =     -324.81235031  energy(sigma->0) =     -324.81235031


--------------------------------------------------------------------------------------------------------




--------------------------------------- Iteration      1(  11)  ---------------------------------------


    POTLOK:  cpu time    0.1192: real time    0.1226
    SETDIJ:  cpu time    0.0126: real time    0.0127
     EDDAV:  cpu time  131.2497: real time  132.1226
 BZINTS: Fermi energy:  5.186914;688.000000 electrons
         Band energy:***********;  BLOECHL correction:  0.000000
       DOS:  cpu time    0.0032: real time    0.0032
    CHARGE:  cpu time    1.1914: real time    1.1995
    MIXING:  cpu time    0.0024: real time    0.0024
    --------------------------------------------
      LOOP:  cpu time  132.5785: real time  133.4631

 eigenvalue-minimisations  : 17664
 total energy-change (2. order) : 0.2253191E-04  (-0.3087074E-05)
 number of electron     687.9999903 magnetization       0.0000000
 augmentation part      282.2842875 magnetization       0.0000000

 Broyden mixing:
  rms(total) = 0.57797E-01    rms(broyden)= 0.57797E-01
  rms(prec ) = 0.57813E-01
  weight for this iteration     100.00

 eigenvalues of (default mixing * dielectric matrix)
  average eigenvalue GAMMA=   0.9569
  2.1887  2.1887  0.9951  0.9951  0.6530  0.6530  0.5260  0.5260  0.5042  0.3390

 Free energy of the ion-electron system (eV)
  ---------------------------------------------------
  alpha Z        PSCENC =      2382.05347284
  Ewald energy   TEWEN  =    -62824.07510471
  -Hartree energ DENC   =    -42726.16234097
  -exchange      EXHF   =         0.00000000
  -V(xc)+E(xc)   XCENC  =      3286.25887861
  PAW double counting   =    112099.19488053  -115788.97873547
  entropy T*S    EENTRO =         0.00000000
  eigenvalues    EBANDS =    -10773.16848624
  atomic energy  EATOM  =    114020.06510763
  Solvation  Ediel_sol  =         0.00000000
  ---------------------------------------------------
  free energy    TOTEN  =      -324.81232778 eV

  energy without entropy =     -324.81232778  energy(sigma->0) =     -324.81232778


--------------------------------------------------------------------------------------------------------




--------------------------------------- Iteration      1(  12)  ---------------------------------------


    POTLOK:  cpu time    0.1270: real time    0.1281
    SETDIJ:  cpu time    0.0130: real time    0.0130
     EDDAV:  cpu time   81.5075: real time   82.1036
 BZINTS: Fermi energy:  5.186957;688.000000 electrons
         Band energy:***********;  BLOECHL correction:  0.000000
       DOS:  cpu time    0.0032: real time    0.0032
    CHARGE:  cpu time    1.4316: real time    1.4406
    MIXING:  cpu time    0.0022: real time    0.0030
    --------------------------------------------
      LOOP:  cpu time   83.0844: real time   83.6915

 eigenvalue-minimisations  : 13312
 total energy-change (2. order) : 0.8060742E-05  (-0.5766117E-06)
 number of electron     687.9999903 magnetization      -0.0000000
 augmentation part      282.2853251 magnetization      -0.0000000

 Broyden mixing:
  rms(total) = 0.33151E-01    rms(broyden)= 0.33151E-01
  rms(prec ) = 0.33161E-01
  weight for this iteration     100.00

 eigenvalues of (default mixing * dielectric matrix)
  average eigenvalue GAMMA=   1.0360
  2.5536  2.5536  1.1256  1.1256  0.7798  0.7798  0.5621  0.5621  0.3388  0.5076
  0.5076

 Free energy of the ion-electron system (eV)
  ---------------------------------------------------
  alpha Z        PSCENC =      2382.05347284
  Ewald energy   TEWEN  =    -62824.07510471
  -Hartree energ DENC   =    -42726.28936963
  -exchange      EXHF   =         0.00000000
  -V(xc)+E(xc)   XCENC  =      3286.26207514
  PAW double counting   =    112055.44798888  -115745.12724830
  entropy T*S    EENTRO =         0.00000000
  eigenvalues    EBANDS =    -10773.14924157
  atomic energy  EATOM  =    114020.06510763
  Solvation  Ediel_sol  =         0.00000000
  ---------------------------------------------------
  free energy    TOTEN  =      -324.81231972 eV

  energy without entropy =     -324.81231972  energy(sigma->0) =     -324.81231972


--------------------------------------------------------------------------------------------------------




--------------------------------------- Iteration      1(  13)  ---------------------------------------


    POTLOK:  cpu time    0.1347: real time    0.1360
    SETDIJ:  cpu time    0.0154: real time    0.0155
     EDDAV:  cpu time  130.6458: real time  131.5173
 BZINTS: Fermi energy:  5.186968;688.000000 electrons
         Band energy:***********;  BLOECHL correction:  0.000000
       DOS:  cpu time    0.0032: real time    0.0032
    CHARGE:  cpu time    1.1835: real time    1.1916
    MIXING:  cpu time    0.0018: real time    0.0019
    --------------------------------------------
      LOOP:  cpu time  131.9844: real time  132.8653

 eigenvalue-minimisations  : 17408
 total energy-change (2. order) : 0.6694943E-05  (-0.5524407E-06)
 number of electron     687.9999903 magnetization      -0.0000000
 augmentation part      282.2876294 magnetization      -0.0000000

 Broyden mixing:
  rms(total) = 0.89361E-02    rms(broyden)= 0.89361E-02
  rms(prec ) = 0.89418E-02
  weight for this iteration     100.00

 eigenvalues of (default mixing * dielectric matrix)
  average eigenvalue GAMMA=   1.1502
  2.9723  2.9723  1.3900  1.3900  0.9041  0.9041  0.3389  0.6327  0.6327  0.5550
  0.5550  0.5553

 Free energy of the ion-electron system (eV)
  ---------------------------------------------------
  alpha Z        PSCENC =      2382.05347284
  Ewald energy   TEWEN  =    -62824.07510471
  -Hartree energ DENC   =    -42726.42670200
  -exchange      EXHF   =         0.00000000
  -V(xc)+E(xc)   XCENC  =      3286.26329978
  PAW double counting   =    112007.15895403  -115696.67796611
  entropy T*S    EENTRO =         0.00000000
  eigenvalues    EBANDS =    -10773.17337449
  atomic energy  EATOM  =    114020.06510763
  Solvation  Ediel_sol  =         0.00000000
  ---------------------------------------------------
  free energy    TOTEN  =      -324.81231302 eV

  energy without entropy =     -324.81231302  energy(sigma->0) =     -324.81231302


--------------------------------------------------------------------------------------------------------




--------------------------------------- Iteration      1(  14)  ---------------------------------------


    POTLOK:  cpu time    0.1216: real time    0.1226
    SETDIJ:  cpu time    0.0127: real time    0.0128
     EDDAV:  cpu time   90.3045: real time   90.9398
 BZINTS: Fermi energy:  5.186972;688.000000 electrons
         Band energy:***********;  BLOECHL correction:  0.000000
       DOS:  cpu time    0.0032: real time    0.0032
    CHARGE:  cpu time    1.1852: real time    1.1935
    MIXING:  cpu time    0.0019: real time    0.0020
    --------------------------------------------
      LOOP:  cpu time   91.6291: real time   92.2739

 eigenvalue-minimisations  : 14336
 total energy-change (2. order) : 0.1371431E-05  (-0.1430762E-06)
 number of electron     687.9999903 magnetization      -0.0000000
 augmentation part      282.2888536 magnetization      -0.0000000

 Broyden mixing:
  rms(total) = 0.13706E-02    rms(broyden)= 0.13706E-02
  rms(prec ) = 0.13722E-02
  weight for this iteration     100.00

 eigenvalues of (default mixing * dielectric matrix)
  average eigenvalue GAMMA=   1.1962
  3.1138  3.1138  1.5552  1.5552  1.0140  1.0140  0.3389  0.7510  0.7510  0.5763
  0.5763  0.5955  0.5955

 Free energy of the ion-electron system (eV)
  ---------------------------------------------------
  alpha Z        PSCENC =      2382.05347284
  Ewald energy   TEWEN  =    -62824.07510471
  -Hartree energ DENC   =    -42726.46296149
  -exchange      EXHF   =         0.00000000
  -V(xc)+E(xc)   XCENC  =      3286.26322953
  PAW double counting   =    111991.12689739  -115680.59068140
  entropy T*S    EENTRO =         0.00000000
  eigenvalues    EBANDS =    -10773.19227145
  atomic energy  EATOM  =    114020.06510763
  Solvation  Ediel_sol  =         0.00000000
  ---------------------------------------------------
  free energy    TOTEN  =      -324.81231165 eV

  energy without entropy =     -324.81231165  energy(sigma->0) =     -324.81231165


--------------------------------------------------------------------------------------------------------




--------------------------------------- Iteration      1(  15)  ---------------------------------------


    POTLOK:  cpu time    0.1215: real time    0.1224
    SETDIJ:  cpu time    0.0126: real time    0.0127
     EDDAV:  cpu time  133.4618: real time  134.3327
 BZINTS: Fermi energy:  5.186974;688.000000 electrons
         Band energy:***********;  BLOECHL correction:  0.000000
       DOS:  cpu time    0.0032: real time    0.0032
    CHARGE:  cpu time    1.1870: real time    1.1946
    MIXING:  cpu time    0.0021: real time    0.0021
    --------------------------------------------
      LOOP:  cpu time  134.7881: real time  135.6676

 eigenvalue-minimisations  : 17664
 total energy-change (2. order) : 0.2045854E-06  (-0.2205461E-07)
 number of electron     687.9999903 magnetization      -0.0000000
 augmentation part      282.2891740 magnetization      -0.0000000

 Broyden mixing:
  rms(total) = 0.23150E-03    rms(broyden)= 0.23149E-03
  rms(prec ) = 0.23535E-03
  weight for this iteration     100.00

 eigenvalues of (default mixing * dielectric matrix)
  average eigenvalue GAMMA=   1.1857
  3.1615  3.1615  1.6177  1.6177  1.0645  1.0645  0.7890  0.7890  0.3389  0.5821
  0.5821  0.6266  0.6266  0.5782

 Free energy of the ion-electron system (eV)
  ---------------------------------------------------
  alpha Z        PSCENC =      2382.05347284
  Ewald energy   TEWEN  =    -62824.07510471
  -Hartree energ DENC   =    -42726.46961663
  -exchange      EXHF   =         0.00000000
  -V(xc)+E(xc)   XCENC  =      3286.26297773
  PAW double counting   =    111987.56452988  -115677.01883307
  entropy T*S    EENTRO =         0.00000000
  eigenvalues    EBANDS =    -10773.19484512
  atomic energy  EATOM  =    114020.06510763
  Solvation  Ediel_sol  =         0.00000000
  ---------------------------------------------------
  free energy    TOTEN  =      -324.81231145 eV

  energy without entropy =     -324.81231145  energy(sigma->0) =     -324.81231145


--------------------------------------------------------------------------------------------------------




--------------------------------------- Iteration      1(  16)  ---------------------------------------


    POTLOK:  cpu time    0.1191: real time    0.1218
    SETDIJ:  cpu time    0.0136: real time    0.0137
     EDDAV:  cpu time   76.6345: real time   77.1854
 BZINTS: Fermi energy:  5.186973;688.000000 electrons
         Band energy:***********;  BLOECHL correction:  0.000000
       DOS:  cpu time    0.0032: real time    0.0032
    CHARGE:  cpu time    1.1883: real time    1.1959
    MIXING:  cpu time    0.0022: real time    0.0022
    --------------------------------------------
      LOOP:  cpu time   77.9608: real time   78.5221

 eigenvalue-minimisations  : 12544
 total energy-change (2. order) :-0.1327135E-07  (-0.2056316E-08)
 number of electron     687.9999903 magnetization      -0.0000000
 augmentation part      282.2890861 magnetization      -0.0000000

 Broyden mixing:
  rms(total) = 0.55893E-04    rms(broyden)= 0.55892E-04
  rms(prec ) = 0.57745E-04
  weight for this iteration     100.00

 eigenvalues of (default mixing * dielectric matrix)
  average eigenvalue GAMMA=   1.2030
  3.1150  3.1150  1.7999  1.7999  1.1756  1.1756  0.8922  0.8922  0.3389  0.6993
  0.6993  0.5761  0.5761  0.5954  0.5954

 Free energy of the ion-electron system (eV)
  ---------------------------------------------------
  alpha Z        PSCENC =      2382.05347284
  Ewald energy   TEWEN  =    -62824.07510471
  -Hartree energ DENC   =    -42726.46938384
  -exchange      EXHF   =         0.00000000
  -V(xc)+E(xc)   XCENC  =      3286.26293648
  PAW double counting   =    111988.08380395  -115677.54031237
  entropy T*S    EENTRO =         0.00000000
  eigenvalues    EBANDS =    -10773.19283145
  atomic energy  EATOM  =    114020.06510763
  Solvation  Ediel_sol  =         0.00000000
  ---------------------------------------------------
  free energy    TOTEN  =      -324.81231146 eV

  energy without entropy =     -324.81231146  energy(sigma->0) =     -324.81231146


--------------------------------------------------------------------------------------------------------




--------------------------------------- Iteration      1(  17)  ---------------------------------------


    POTLOK:  cpu time    0.1228: real time    0.1236
    SETDIJ:  cpu time    0.0134: real time    0.0135
     EDDAV:  cpu time  106.4487: real time  107.1520
 BZINTS: Fermi energy:  5.186973;688.000000 electrons
         Band energy:***********;  BLOECHL correction:  0.000000
       DOS:  cpu time    0.0032: real time    0.0032
    CHARGE:  cpu time    1.1832: real time    1.1911
    MIXING:  cpu time    0.0022: real time    0.0022
    --------------------------------------------
      LOOP:  cpu time  107.7736: real time  108.4859

 eigenvalue-minimisations  : 13568
 total energy-change (2. order) : 0.1100125E-07  (-0.2042195E-09)
 number of electron     687.9999903 magnetization      -0.0000000
 augmentation part      282.2890730 magnetization      -0.0000000

 Broyden mixing:
  rms(total) = 0.12424E-03    rms(broyden)= 0.12424E-03
  rms(prec ) = 0.12492E-03
  weight for this iteration     100.00

 eigenvalues of (default mixing * dielectric matrix)
  average eigenvalue GAMMA=   1.2715
  3.5005  3.5005  1.9940  1.9940  1.2822  1.2822  0.9511  0.9511  0.3389  0.7694
  0.7694  0.5778  0.5778  0.6314  0.6314  0.5926

 Free energy of the ion-electron system (eV)
  ---------------------------------------------------
  alpha Z        PSCENC =      2382.05347284
  Ewald energy   TEWEN  =    -62824.07510471
  -Hartree energ DENC   =    -42726.46930901
  -exchange      EXHF   =         0.00000000
  -V(xc)+E(xc)   XCENC  =      3286.26294889
  PAW double counting   =    111988.29783039  -115677.75462572
  entropy T*S    EENTRO =         0.00000000
  eigenvalues    EBANDS =    -10773.19263176
  atomic energy  EATOM  =    114020.06510763
  Solvation  Ediel_sol  =         0.00000000
  ---------------------------------------------------
  free energy    TOTEN  =      -324.81231145 eV

  energy without entropy =     -324.81231145  energy(sigma->0) =     -324.81231145


--------------------------------------------------------------------------------------------------------




--------------------------------------- Iteration      1(  18)  ---------------------------------------


    POTLOK:  cpu time    0.1194: real time    0.1228
    SETDIJ:  cpu time    0.0126: real time    0.0126
     EDDAV:  cpu time   62.7604: real time   63.2114
 BZINTS: Fermi energy:  5.186972;688.000000 electrons
         Band energy:***********;  BLOECHL correction:  0.000000
       DOS:  cpu time    0.0032: real time    0.0032
    CHARGE:  cpu time    1.1887: real time    1.1966
    MIXING:  cpu time    0.0023: real time    0.0023
    --------------------------------------------
[...]
   -.410E+02 0.132E+01 0.529E+02   0.418E+02 -.127E+01 -.534E+02   -.786E+00 -.515E-01 0.505E+00   -.339E-05 -.521E-06 0.140E-05
   -.410E+02 0.132E+01 0.529E+02   0.418E+02 -.127E+01 -.534E+02   -.786E+00 -.515E-01 0.505E+00   -.339E-05 -.521E-06 0.140E-05
   -.410E+02 0.132E+01 0.529E+02   0.418E+02 -.127E+01 -.534E+02   -.786E+00 -.515E-01 0.505E+00   -.339E-05 -.521E-06 0.140E-05
   -.410E+02 0.132E+01 0.529E+02   0.418E+02 -.127E+01 -.534E+02   -.786E+00 -.515E-01 0.505E+00   -.339E-05 -.521E-06 0.140E-05
   0.410E+02 -.132E+01 0.529E+02   -.418E+02 0.127E+01 -.534E+02   0.786E+00 0.515E-01 0.505E+00   0.339E-05 0.521E-06 0.140E-05
   0.410E+02 -.132E+01 0.529E+02   -.418E+02 0.127E+01 -.534E+02   0.786E+00 0.515E-01 0.505E+00   0.339E-05 0.521E-06 0.140E-05
   0.410E+02 -.132E+01 0.529E+02   -.418E+02 0.127E+01 -.534E+02   0.786E+00 0.515E-01 0.505E+00   0.339E-05 0.521E-06 0.140E-05
   0.410E+02 -.132E+01 0.529E+02   -.418E+02 0.127E+01 -.534E+02   0.786E+00 0.515E-01 0.505E+00   0.339E-05 0.521E-06 0.140E-05
   0.132E+01 -.410E+02 0.529E+02   -.127E+01 0.418E+02 -.534E+02   -.515E-01 -.786E+00 0.505E+00   -.521E-06 -.339E-05 0.140E-05
   0.132E+01 -.410E+02 0.529E+02   -.127E+01 0.418E+02 -.534E+02   -.515E-01 -.786E+00 0.505E+00   -.521E-06 -.339E-05 0.140E-05
   0.132E+01 -.410E+02 0.529E+02   -.127E+01 0.418E+02 -.534E+02   -.515E-01 -.786E+00 0.505E+00   -.521E-06 -.339E-05 0.140E-05
   0.132E+01 -.410E+02 0.529E+02   -.127E+01 0.418E+02 -.534E+02   -.515E-01 -.786E+00 0.505E+00   -.521E-06 -.339E-05 0.140E-05
   -.132E+01 0.410E+02 0.529E+02   0.127E+01 -.418E+02 -.534E+02   0.515E-01 0.786E+00 0.505E+00   0.521E-06 0.339E-05 0.140E-05
   -.132E+01 0.410E+02 0.529E+02   0.127E+01 -.418E+02 -.534E+02   0.515E-01 0.786E+00 0.505E+00   0.521E-06 0.339E-05 0.140E-05
   -.132E+01 0.410E+02 0.529E+02   0.127E+01 -.418E+02 -.534E+02   0.515E-01 0.786E+00 0.505E+00   0.521E-06 0.339E-05 0.140E-05
   -.132E+01 0.410E+02 0.529E+02   0.127E+01 -.418E+02 -.534E+02   0.515E-01 0.786E+00 0.505E+00   0.521E-06 0.339E-05 0.140E-05
   -.736E-07 0.148E-07 -.621E+02   0.110E-12 -.782E-13 0.596E+02   -.283E-25 -.291E-25 0.247E+01   0.308E-12 -.110E-12 -.442E-05
   -.736E-07 0.148E-07 -.621E+02   0.110E-12 -.853E-13 0.596E+02   -.114E-24 -.335E-25 0.247E+01   -.685E-12 -.568E-14 -.442E-05
   -.736E-07 0.148E-07 -.621E+02   0.139E-12 -.568E-13 0.596E+02   0.153E-25 0.258E-25 0.247E+01   0.471E-12 -.300E-12 -.442E-05
   -.736E-07 0.147E-07 -.621E+02   0.139E-12 -.284E-13 0.596E+02   0.986E-25 0.646E-25 0.247E+01   -.771E-12 -.190E-12 -.442E-05
   0.148E-07 -.736E-07 -.621E+02   -.227E-12 -.114E-12 0.596E+02   0.650E-25 0.485E-25 0.247E+01   -.332E-12 0.457E-12 -.442E-05
   0.148E-07 -.736E-07 -.621E+02   -.199E-12 -.171E-12 0.596E+02   0.909E-26 0.679E-25 0.247E+01   0.376E-12 0.411E-12 -.442E-05
   0.148E-07 -.736E-07 -.621E+02   -.242E-12 -.128E-12 0.596E+02   -.153E-25 0.646E-25 0.247E+01   -.100E-12 -.112E-12 -.442E-05
   0.148E-07 -.736E-07 -.621E+02   -.199E-12 -.142E-12 0.596E+02   -.913E-25 -.258E-25 0.247E+01   0.285E-12 -.285E-12 -.442E-05
   -.736E-07 0.148E-07 -.621E+02   0.142E-12 -.284E-13 0.596E+02   -.646E-25 0.582E-25 0.247E+01   -.117E-13 0.110E-12 -.442E-05
   -.736E-07 0.148E-07 -.621E+02   0.142E-12 -.497E-13 0.596E+02   0.122E-25 -.796E-25 0.247E+01   -.448E-12 -.321E-13 -.442E-05
   -.736E-07 0.148E-07 -.621E+02   0.142E-12 0.391E-13 0.596E+02   -.302E-25 0.198E-25 0.247E+01   -.823E-13 -.501E-12 -.442E-05
   -.736E-07 0.148E-07 -.621E+02   0.142E-12 0.373E-13 0.596E+02   -.116E-25 -.162E-25 0.247E+01   -.304E-12 -.311E-12 -.442E-05
   0.148E-07 -.736E-07 -.621E+02   -.164E-12 -.990E-13 0.596E+02   0.808E-27 0.905E-25 0.247E+01   -.230E-13 0.376E-12 -.442E-05
   0.148E-07 -.736E-07 -.621E+02   -.190E-12 -.282E-13 0.596E+02   -.178E-25 -.775E-25 0.247E+01   0.796E-13 0.519E-12 -.442E-05
   0.148E-07 -.736E-07 -.621E+02   -.229E-12 -.114E-13 0.596E+02   0.420E-25 0.129E-25 0.247E+01   -.457E-13 -.205E-12 -.442E-05
   0.148E-07 -.736E-07 -.621E+02   -.198E-12 -.684E-13 0.596E+02   -.432E-25 -.646E-25 0.247E+01   0.283E-12 -.216E-12 -.442E-05
   0.191E-07 0.479E-07 -.501E+02   -.119E-12 -.888E-13 0.472E+02   0.162E-26 0.388E-25 0.285E+01   0.167E-12 0.155E-12 -.116E-04
   0.191E-07 0.479E-07 -.501E+02   -.133E-12 -.114E-12 0.472E+02   0.404E-26 -.840E-25 0.285E+01   0.237E-12 0.255E-12 -.116E-04
   0.191E-07 0.479E-07 -.501E+02   -.119E-12 -.817E-13 0.472E+02   0.339E-25 0.323E-25 0.285E+01   0.349E-12 -.107E-12 -.116E-04
   0.191E-07 0.479E-07 -.501E+02   -.162E-12 -.853E-13 0.472E+02   -.226E-25 -.775E-25 0.285E+01   0.109E-12 -.156E-12 -.116E-04
   0.479E-07 0.191E-07 -.501E+02   0.391E-13 -.103E-12 0.472E+02   -.102E-24 0.258E-25 0.285E+01   0.102E-12 -.157E-12 -.116E-04
   0.479E-07 0.191E-07 -.501E+02   -.320E-13 -.746E-13 0.472E+02   0.800E-25 0.646E-25 0.285E+01   -.493E-13 -.217E-12 -.116E-04
   0.479E-07 0.192E-07 -.501E+02   0.533E-13 -.117E-12 0.472E+02   0.192E-26 0.178E-25 0.285E+01   0.208E-12 -.123E-12 -.116E-04
   0.479E-07 0.192E-07 -.501E+02   0.568E-13 -.604E-13 0.472E+02   -.155E-25 -.808E-27 0.285E+01   -.153E-12 -.176E-13 -.116E-04
   0.191E-07 0.479E-07 -.501E+02   -.185E-12 0.657E-13 0.472E+02   -.234E-25 0.000E+00 0.285E+01   -.543E-13 0.368E-12 -.116E-04
   0.191E-07 0.479E-07 -.501E+02   -.185E-12 0.409E-13 0.472E+02   0.767E-25 0.129E-25 0.285E+01   0.432E-12 0.159E-12 -.116E-04
   0.191E-07 0.479E-07 -.501E+02   -.199E-12 0.657E-13 0.472E+02   -.969E-26 -.872E-25 0.285E+01   -.294E-13 -.207E-12 -.116E-04
   0.191E-07 0.479E-07 -.501E+02   -.185E-12 0.693E-13 0.472E+02   0.404E-25 0.103E-24 0.285E+01   0.516E-12 -.209E-12 -.116E-04
   0.479E-07 0.191E-07 -.501E+02   -.953E-14 0.266E-13 0.472E+02   0.145E-25 0.258E-25 0.285E+01   0.619E-12 -.114E-12 -.116E-04
   0.479E-07 0.191E-07 -.501E+02   -.352E-13 -.852E-14 0.472E+02   -.872E-25 -.388E-25 0.285E+01   -.544E-12 0.988E-13 -.116E-04
   0.479E-07 0.191E-07 -.501E+02   -.730E-14 0.619E-13 0.472E+02   -.307E-25 0.000E+00 0.285E+01   0.663E-12 -.284E-12 -.116E-04
   0.479E-07 0.192E-07 -.501E+02   -.188E-13 0.623E-13 0.472E+02   -.543E-25 0.210E-25 0.285E+01   -.562E-12 -.281E-12 -.116E-04
 -----------------------------------------------------------------------------------------------
   0.744E-07 0.745E-07 -.101E+03   -.225E-12 0.552E-12 -.327E-12   0.486E-16 0.181E-24 0.101E+03   0.127E-11 -.208E-12 -.211E-03
 
 
 POSITION                                       TOTAL-FORCE (eV/Angst)
 -----------------------------------------------------------------------------------
      1.43514      1.43441      1.20843        -0.000835     -0.000553      0.000063
      6.67310      1.89267      1.20843        -0.000835     -0.000553      0.000063
      1.89340      6.67237      1.20843        -0.000835     -0.000553      0.000063
      7.13136      7.13063      1.20843        -0.000835     -0.000553      0.000063
      4.26108      4.26181      1.20843         0.000835      0.000553      0.000063
      9.49904      4.72007      1.20843         0.000835      0.000553      0.000063
      4.71934      9.49977      1.20843         0.000835      0.000553      0.000063
      9.95730      9.95803      1.20843         0.000835      0.000553      0.000063
      1.64283      4.03195      9.04663         0.000553      0.000835      0.000063
      6.88079      4.49021      9.04663         0.000553      0.000835      0.000063
      2.10109      9.26991      9.04663         0.000553      0.000835      0.000063
      7.33905      9.72817      9.04663         0.000553      0.000835      0.000063
      4.05339      1.66427      9.04663        -0.000553     -0.000835      0.000063
      9.29135      2.12253      9.04663        -0.000553     -0.000835      0.000063
      4.51165      6.90223      9.04663        -0.000553     -0.000835      0.000063
      9.74961      7.36049      9.04663        -0.000553     -0.000835      0.000063
      1.41297      1.41370      6.43389         0.000835      0.000553      0.000063
      6.65093      1.87196      6.43389         0.000835      0.000553      0.000063
      1.87123      6.65166      6.43389         0.000835      0.000553      0.000063
      7.10919      7.10992      6.43389         0.000835      0.000553      0.000063
      4.28325      4.28252      6.43389        -0.000835     -0.000553      0.000063
      9.52121      4.74079      6.43389        -0.000835     -0.000553      0.000063
      4.74151      9.52048      6.43389        -0.000835     -0.000553      0.000063
      9.97947      9.97874      6.43389        -0.000835     -0.000553      0.000063
      4.03268      1.64210      3.82116         0.000553      0.000835      0.000063
      9.27064      2.10036      3.82116         0.000553      0.000835      0.000063
      4.49094      6.88006      3.82116         0.000553      0.000835      0.000063
      9.72890      7.33832      3.82116         0.000553      0.000835      0.000063
      1.66354      4.05412      3.82116        -0.000553     -0.000835      0.000063
      6.90150      4.51238      3.82116        -0.000553     -0.000835      0.000063
      2.12181      9.29208      3.82116        -0.000553     -0.000835      0.000063
      7.35976      9.75034      3.82116        -0.000553     -0.000835      0.000063
      0.00000      0.00000      5.31115        -0.000000     -0.000000     -0.000214
      5.23796      0.45826      5.31115        -0.000000     -0.000000     -0.000214
      0.45826      5.23796      5.31115        -0.000000     -0.000000     -0.000214
      5.69622      5.69622      5.31115        -0.000000     -0.000000     -0.000214
      2.61898      0.22913      2.69842        -0.000000     -0.000000     -0.000214
      7.85694      0.68739      2.69842        -0.000000     -0.000000     -0.000214
      3.07724      5.46709      2.69842        -0.000000     -0.000000     -0.000214
      8.31520      5.92535      2.69842        -0.000000     -0.000000     -0.000214
      2.84811      2.84811      0.08569        -0.000000     -0.000000     -0.000214
      8.08607      3.30637      0.08569        -0.000000     -0.000000     -0.000214
      3.30637      8.08607      0.08569        -0.000000     -0.000000     -0.000214
      8.54433      8.54433      0.08569        -0.000000     -0.000000     -0.000214
      0.22913      2.61898      7.92388        -0.000000     -0.000000     -0.000214
      5.46709      3.07724      7.92388        -0.000000     -0.000000     -0.000214
      0.68739      7.85694      7.92388        -0.000000     -0.000000     -0.000214
      5.92535      8.31520      7.92388        -0.000000     -0.000000     -0.000214
      0.00000      0.00000      0.11019        -0.000000     -0.000000      0.000088
      5.23796      0.45826      0.11019        -0.000000     -0.000000      0.000088
      0.45826      5.23796      0.11019        -0.000000     -0.000000      0.000088
      5.69622      5.69622      0.11019        -0.000000     -0.000000      0.000088
      2.61898      0.22913      7.94839        -0.000000     -0.000000      0.000088
      7.85694      0.68739      7.94839        -0.000000     -0.000000      0.000088
      3.07724      5.46709      7.94839        -0.000000     -0.000000      0.000088
      8.31520      5.92535      7.94839        -0.000000     -0.000000      0.000088
      2.84811      2.84811      5.33566        -0.000000     -0.000000      0.000088
      8.08607      3.30637      5.33566        -0.000000     -0.000000      0.000088
      3.30637      8.08607      5.33566        -0.000000     -0.000000      0.000088
      8.54433      8.54433      5.33566        -0.000000     -0.000000      0.000088
      0.22913      2.61898      2.72293        -0.000000     -0.000000      0.000088
      5.46709      3.07724      2.72293        -0.000000     -0.000000      0.000088
      0.68739      7.85694      2.72293        -0.000000     -0.000000      0.000088
      5.92535      8.31520      2.72293        -0.000000     -0.000000      0.000088
 -----------------------------------------------------------------------------------
    total drift:                                0.000000      0.000000     -0.001124


--------------------------------------------------------------------------------------------------------



  FREE ENERGIE OF THE ION-ELECTRON SYSTEM (eV)
  ---------------------------------------------------
  free  energy   TOTEN  =      -324.81231141 eV

  energy  without entropy=     -324.81231141  energy(sigma->0) =     -324.81231141
 


--------------------------------------------------------------------------------------------------------


    POTLOK:  cpu time    0.1310: real time    0.1317


--------------------------------------------------------------------------------------------------------


 writing wavefunctions
     LOOP+:  cpu time 2129.6093: real time 2393.4482
    4ORBIT:  cpu time    0.0000: real time    0.0000
 


 total charge     
 
# of ion       s       p       d       tot
------------------------------------------
    1        1.317   2.400   0.000   3.717
    2        1.317   2.400   0.000   3.717
    3        1.317   2.400   0.000   3.717
    4        1.317   2.400   0.000   3.717
    5        1.317   2.400   0.000   3.717
    6        1.317   2.400   0.000   3.717
    7        1.317   2.400   0.000   3.717
    8        1.317   2.400   0.000   3.717
    9        1.317   2.400   0.000   3.717
   10        1.317   2.400   0.000   3.717
   11        1.317   2.400   0.000   3.717
   12        1.317   2.400   0.000   3.717
   13        1.317   2.400   0.000   3.717
   14        1.317   2.400   0.000   3.717
   15        1.317   2.400   0.000   3.717
   16        1.317   2.400   0.000   3.717
   17        1.317   2.400   0.000   3.717
   18        1.317   2.400   0.000   3.717
   19        1.317   2.400   0.000   3.717
   20        1.317   2.400   0.000   3.717
   21        1.317   2.400   0.000   3.717
   22        1.317   2.400   0.000   3.717
   23        1.317   2.400   0.000   3.717
   24        1.317   2.400   0.000   3.717
   25        1.317   2.400   0.000   3.717
   26        1.317   2.400   0.000   3.717
   27        1.317   2.400   0.000   3.717
   28        1.317   2.400   0.000   3.717
   29        1.317   2.400   0.000   3.717
   30        1.317   2.400   0.000   3.717
   31        1.317   2.400   0.000   3.717
   32        1.317   2.400   0.000   3.717
   33        0.256   6.199   8.916  15.371
   34        0.256   6.199   8.916  15.371
   35        0.256   6.199   8.916  15.371
   36        0.256   6.199   8.916  15.371
   37        0.256   6.199   8.917  15.372
   38        0.256   6.199   8.917  15.372
   39        0.256   6.199   8.917  15.372
   40        0.256   6.199   8.917  15.372
   41        0.256   6.199   8.916  15.371
   42        0.256   6.199   8.916  15.371
   43        0.256   6.199   8.916  15.371
   44        0.256   6.199   8.916  15.371
   45        0.256   6.199   8.917  15.372
   46        0.256   6.199   8.917  15.372
   47        0.256   6.199   8.917  15.372
   48        0.256   6.199   8.917  15.372
   49        0.342   6.339   5.826  12.507
   50        0.342   6.339   5.826  12.507
   51        0.342   6.339   5.826  12.507
   52        0.342   6.339   5.826  12.507
   53        0.342   6.339   5.827  12.507
   54        0.342   6.339   5.827  12.507
   55        0.342   6.339   5.827  12.507
   56        0.342   6.339   5.827  12.507
   57        0.342   6.339   5.826  12.507
   58        0.342   6.339   5.826  12.507
   59        0.342   6.339   5.826  12.507
   60        0.342   6.339   5.826  12.507
   61        0.342   6.339   5.827  12.507
   62        0.342   6.339   5.827  12.507
   63        0.342   6.339   5.827  12.507
   64        0.342   6.339   5.827  12.507
--------------------------------------------------
tot         51.712 277.396 235.888 564.997
 


 magnetization (x)
 
# of ion       s       p       d       tot
------------------------------------------
    1       -0.002  -0.043   0.000  -0.045
    2       -0.002  -0.043   0.000  -0.045
    3       -0.002  -0.043   0.000  -0.045
    4       -0.002  -0.043   0.000  -0.045
    5       -0.002  -0.043   0.000  -0.045
    6       -0.002  -0.043   0.000  -0.045
    7       -0.002  -0.043   0.000  -0.045
    8       -0.002  -0.043   0.000  -0.045
    9        0.002   0.043   0.000   0.045
   10        0.002   0.043   0.000   0.045
   11        0.002   0.043   0.000   0.045
   12        0.002   0.043   0.000   0.045
   13        0.002   0.043   0.000   0.045
   14        0.002   0.043   0.000   0.045
   15        0.002   0.043   0.000   0.045
   16        0.002   0.043   0.000   0.045
   17       -0.002  -0.043   0.000  -0.045
   18       -0.002  -0.043   0.000  -0.045
   19       -0.002  -0.043   0.000  -0.045
   20       -0.002  -0.043   0.000  -0.045
   21       -0.002  -0.043   0.000  -0.045
   22       -0.002  -0.043   0.000  -0.045
   23       -0.002  -0.043   0.000  -0.045
   24       -0.002  -0.043   0.000  -0.045
   25        0.002   0.043   0.000   0.045
   26        0.002   0.043   0.000   0.045
   27        0.002   0.043   0.000   0.045
   28        0.002   0.043   0.000   0.045
   29        0.002   0.043   0.000   0.045
   30        0.002   0.043   0.000   0.045
   31        0.002   0.043   0.000   0.045
   32        0.002   0.043   0.000   0.045
   33       -0.000  -0.002   0.010   0.008
   34       -0.000  -0.002   0.010   0.008
   35       -0.000  -0.002   0.010   0.008
   36       -0.000  -0.002   0.010   0.008
   37        0.000   0.002  -0.011  -0.009
   38        0.000   0.002  -0.011  -0.009
   39        0.000   0.002  -0.011  -0.009
   40        0.000   0.002  -0.011  -0.009
   41       -0.000  -0.002   0.010   0.008
   42       -0.000  -0.002   0.010   0.008
   43       -0.000  -0.002   0.010   0.008
   44       -0.000  -0.002   0.010   0.008
   45        0.000   0.002  -0.011  -0.009
   46        0.000   0.002  -0.011  -0.009
   47        0.000   0.002  -0.011  -0.009
   48        0.000   0.002  -0.011  -0.009
   49        0.020   0.052   3.663   3.735
   50        0.020   0.052   3.663   3.735
   51        0.020   0.052   3.663   3.735
   52        0.020   0.052   3.663   3.735
   53       -0.021  -0.052  -3.662  -3.734
   54       -0.021  -0.052  -3.662  -3.734
   55       -0.021  -0.052  -3.662  -3.734
   56       -0.021  -0.052  -3.662  -3.734
   57        0.020   0.052   3.663   3.735
   58        0.020   0.052   3.663   3.735
   59        0.020   0.052   3.663   3.735
   60        0.020   0.052   3.663   3.735
   61       -0.021  -0.052  -3.662  -3.734
   62       -0.021  -0.052  -3.662  -3.734
   63       -0.021  -0.052  -3.662  -3.734
   64       -0.021  -0.052  -3.662  -3.734
--------------------------------------------------
tot         -0.003   0.002  -0.003  -0.003
 
 BZINTS: Fermi energy:  5.186972;688.000000 electrons
         Band energy:***********;  BLOECHL correction:  0.000000

 total amount of memory used by VASP MPI-rank0   299201. kBytes
=======================================================================

   base      :      30000. kBytes
   nonl-proj :     174030. kBytes
   fftplans  :       4588. kBytes
   grid      :      69719. kBytes
   one-center:       1990. kBytes
   wavefun   :      18874. kBytes
 
  
  
 General timing and accounting informations for this job:
 ========================================================
  
                  Total CPU time used (sec):     2177.094
                            User time (sec):     2164.679
                          System time (sec):       12.415
                         Elapsed time (sec):     2444.454
  
                   Maximum memory used (kb):      656040.
                   Average memory used (kb):           0.
  
                          Minor page faults:       552935
                          Major page faults:         5642
                 Voluntary context switches:         8084
