       N       E                     dE             d eps       ncg     rms          rms(c)
DAV:   1     0.620228262637E+04    0.62023E+04   -0.50400E+05 61440   0.194E+03
DAV:   2    -0.939803909737E+02   -0.62963E+04   -0.61652E+04 65536   0.440E+02
DAV:   3    -0.372395686809E+03   -0.27842E+03   -0.27723E+03 86784   0.101E+02
DAV:   4    -0.376337051350E+03   -0.39414E+01   -0.39411E+01 68864   0.123E+01
DAV:   5    -0.376441753812E+03   -0.10470E+00   -0.10470E+00 85504   0.202E+00    0.750E+01
DAV:   6    -0.334876108500E+03    0.41566E+02   -0.58993E+02 61440   0.812E+01    0.999E+01
DAV:   7    -0.329897567485E+03    0.49785E+01   -0.10828E+02 61440   0.272E+01    0.436E+01
DAV:   8    -0.329641809173E+03    0.25576E+00   -0.33301E+01 80384   0.202E+01    0.314E+01
DAV:   9    -0.331576787604E+03   -0.19350E+01   -0.92627E+01 75264   0.234E+01    0.231E+01
DAV:  10    -0.327998013095E+03    0.35788E+01   -0.21635E+01 82432   0.157E+01    0.285E+00
DAV:  11    -0.328123593741E+03   -0.12558E+00   -0.10548E+00 77312   0.167E+00    0.351E+00
DAV:  12    -0.328111271806E+03    0.12322E-01   -0.47168E-01 82944   0.178E+00    0.135E+00
DAV:  13    -0.328115814936E+03   -0.45431E-02   -0.50709E-02 74752   0.436E-01    0.945E-01
DAV:  14    -0.328125219090E+03   -0.94042E-02   -0.46570E-02 88832   0.352E-01    0.391E-01
DAV:  15    -0.328124821978E+03    0.39711E-03   -0.55709E-03 67072   0.190E-01    0.160E-01
DAV:  16    -0.328124927204E+03   -0.10523E-03   -0.42564E-04 87296   0.303E-02    0.120E-01
DAV:  17    -0.328125268593E+03   -0.34139E-03   -0.12879E-03 70912   0.534E-02    0.889E-02
DAV:  18    -0.328125311508E+03   -0.42915E-04   -0.12092E-04 79872   0.196E-02    0.466E-02
DAV:  19    -0.328125315904E+03   -0.43957E-05   -0.30307E-05 85248   0.768E-03    0.260E-02
DAV:  20    -0.328125316991E+03   -0.10876E-05   -0.40088E-06 72704   0.246E-03    0.226E-02
DAV:  21    -0.328125315231E+03    0.17603E-05   -0.23236E-05 88576   0.911E-03    0.108E-02
DAV:  22    -0.328125315439E+03   -0.20777E-06   -0.25455E-06 68608   0.456E-03    0.855E-03
DAV:  23    -0.328125315591E+03   -0.15256E-06   -0.30659E-07 79872   0.109E-03    0.668E-03
DAV:  24    -0.328125315416E+03    0.17545E-06   -0.14279E-07 92160   0.881E-04    0.295E-03
DAV:  25    -0.328125315379E+03    0.36511E-07   -0.18906E-07 92160   0.915E-04    0.632E-04
DAV:  26    -0.328125315386E+03   -0.63010E-08   -0.13744E-08 62976   0.186E-04
   1 F= -.32812532E+03 E0= -.32812532E+03  d E =0.000000E+00  mag=     0.0000
