 vasp.5.4.4.18Apr17-6-g9f103f2a35 (build Oct 30 2023 17:30:16) complex          
  
 executed on             LinuxIFC date 2024.04.02  20:06:54
 running on  256 total cores
 distrk:  each k-point on  256 cores,    1 groups
 distr:  one band on NCORES_PER_BAND=   1 cores,  256 groups


--------------------------------------------------------------------------------------------------------


 INCAR:
 POTCAR:    PAW_PBE S 06Sep2000                   
 POTCAR:     PAW_PBE Cu_pv 06Sep2000              
 POTCAR:     PAW_PBE Fe_pv 02Aug2007              

 ----------------------------------------------------------------------------- 
|                                                                             |
|           W    W    AA    RRRRR   N    N  II  N    N   GGGG   !!!           |
|           W    W   A  A   R    R  NN   N  II  NN   N  G    G  !!!           |
|           W    W  A    A  R    R  N N  N  II  N N  N  G       !!!           |
|           W WW W  AAAAAA  RRRRR   N  N N  II  N  N N  G  GGG   !            |
|           WW  WW  A    A  R   R   N   NN  II  N   NN  G    G                |
|           W    W  A    A  R    R  N    N  II  N    N   GGGG   !!!           |
|                                                                             |
|      For optimal performance we recommend to set                            |
|        NCORE= 4 - approx SQRT( number of cores)                             |
|      NCORE specifies how many cores store one orbital (NPAR=cpu/NCORE).     |
|      This setting can  greatly improve the performance of VASP for DFT.     |
|      The default,   NCORE=1            might be grossly inefficient         |
|      on modern multi-core architectures or massively parallel machines.     |
|      Do your own testing !!!!                                               |
|      Unfortunately you need to use the default for GW and RPA calculations. |
|      (for HF NCORE is supported but not extensively tested yet)             |
|                                                                             |
 ----------------------------------------------------------------------------- 

 POTCAR:    PAW_PBE S 06Sep2000                   
   SHA256 =  0fc7481fb0695f01bdc6462160264c5c84044ae9ec85a907d398b887a2bc3132 S/
   COPYR  = (c) Copyright 06Sep2000 Georg Kresse                                
   COPYR  = This file is part of the software VASP. Any use, copying, and all ot
   COPYR  = If you do not have a valid VASP license, you may not use, copy or di
   VRHFIN =S : s2p4                                                             
   LEXCH  = PE                                                                  
   EATOM  =   276.8230 eV,   20.3459 Ry                                         
                                                                                
   TITEL  = PAW_PBE S 06Sep2000                                                 
   LULTRA =        F    use ultrasoft PP ?                                      
   IUNSCR =        1    unscreen: 0-lin 1-nonlin 2-no                           
   RPACOR =    1.500    partial core radius                                     
   POMASS =   32.066; ZVAL   =    6.000    mass and valenz                      
   RCORE  =    1.900    outmost cutoff radius                                   
   RWIGS  =    2.200; RWIGS  =    1.164    wigner-seitz radius (au A)           
   ENMAX  =  258.689; ENMIN  =  194.016 eV                                      
   ICORE  =        2    local potential                                         
   LCOR   =        T    correct aug charges                                     
   LPAW   =        T    paw PP                                                  
   EAUG   =  335.092                                                            
   DEXC   =    0.000                                                            
   RMAX   =    1.942    core radius for proj-oper                               
   RAUG   =    1.300    factor for augmentation sphere                          
   RDEP   =    1.954    radius for radial grids                                 
   RDEPT  =    1.744    core radius for aug-charge                              
                                                                                
   Atomic configuration                                                         
    6 entries                                                                   
     n  l   j            E        occ.                                          
     1  0  0.50     -2405.8406   2.0000                                         
     2  0  0.50      -211.7007   2.0000                                         
     2  1  1.50      -156.4958   6.0000                                         
     3  0  0.50       -17.2562   2.0000                                         
     3  1  0.50        -7.0085   4.0000                                         
     3  2  1.50        -6.8029   0.0000                                         
   Description                                                                  
     l       E           TYP  RCUT    TYP  RCUT                                 
     0    -17.2561641     23  1.900                                             
     0    -15.8743224     23  1.900                                             
     1     -7.0085400     23  1.900                                             
     1     -2.7779785     23  1.900                                             
     2     -6.8029130     23  1.900                                             
  local pseudopotential read in
  partial core-charges read in
  partial kinetic energy density read in
  atomic valenz-charges read in
  non local Contribution for L=           0  read in
    real space projection operators read in
  non local Contribution for L=           0  read in
    real space projection operators read in
  non local Contribution for L=           1  read in
    real space projection operators read in
  non local Contribution for L=           1  read in
    real space projection operators read in
    PAW grid and wavefunctions read in
 
   number of l-projection  operators is LMAX  =           4
   number of lm-projection operators is LMMAX =           8
 
 POTCAR:     PAW_PBE Cu_pv 06Sep2000              
   SHA256 =  cb7b504e2ea725fe1f25c85a9ac77d4012ce94cd394135b722c4e25ec297f1cb Cu
   COPYR  = (c) Copyright 06Sep2000 Georg Kresse                                
   COPYR  = This file is part of the software VASP. Any use, copying, and all ot
   COPYR  = If you do not have a valid VASP license, you may not use, copy or di
   VRHFIN =Cu: d10 p1                                                           
   LEXCH  = PE                                                                  
   EATOM  =  4120.1201 eV,  302.8203 Ry                                         
                                                                                
   TITEL  = PAW_PBE Cu_pv 06Sep2000                                             
   LULTRA =        F    use ultrasoft PP ?                                      
   IUNSCR =        1    unscreen: 0-lin 1-nonlin 2-no                           
   RPACOR =    1.500    partial core radius                                     
   POMASS =   63.546; ZVAL   =   17.000    mass and valenz                      
   RCORE  =    2.000    outmost cutoff radius                                   
   RWIGS  =    2.000; RWIGS  =    1.058    wigner-seitz radius (au A)           
   ENMAX  =  368.648; ENMIN  =  276.486 eV                                      
   RCLOC  =    1.304    cutoff for local pot                                    
   LCOR   =        T    correct aug charges                                     
   LPAW   =        T    paw PP                                                  
   EAUG   =  758.233                                                            
   DEXC   =    0.000                                                            
   RMAX   =    2.046    core radius for proj-oper                               
   RAUG   =    1.300    factor for augmentation sphere                          
   RDEP   =    2.025    radius for radial grids                                 
   RDEPT  =    1.558    core radius for aug-charge                              
                                                                                
   Atomic configuration                                                         
    8 entries                                                                   
     n  l   j            E        occ.                                          
     1  0  0.50     -8850.2467   2.0000                                         
     2  0  0.50     -1062.3498   2.0000                                         
     2  1  1.50      -916.8226   6.0000                                         
     3  0  0.50      -114.6929   2.0000                                         
     3  1  1.50       -72.1325   6.0000                                         
     3  2  2.50        -5.0394  10.0000                                         
     4  0  0.50        -4.6097   1.0000                                         
     4  3  2.50        -1.3606   0.0000                                         
   Description                                                                  
     l       E           TYP  RCUT    TYP  RCUT                                 
     1    -72.1324777     23  1.700                                             
     1     -1.3605826     23  1.700                                             
     2     -5.0393776     23  2.000                                             
     2     -6.3999602     23  2.000                                             
     0     -4.6097062     23  1.800                                             
     0     14.1620818     23  1.800                                             
  local pseudopotential read in
  partial core-charges read in
  partial kinetic energy density read in
  atomic valenz-charges read in
  non local Contribution for L=           1  read in
    real space projection operators read in
  non local Contribution for L=           1  read in
    real space projection operators read in
  non local Contribution for L=           2  read in
    real space projection operators read in
  non local Contribution for L=           2  read in
    real space projection operators read in
  non local Contribution for L=           0  read in
    real space projection operators read in
  non local Contribution for L=           0  read in
    real space projection operators read in
    PAW grid and wavefunctions read in
 
   number of l-projection  operators is LMAX  =           6
   number of lm-projection operators is LMMAX =          18
 
 POTCAR:     PAW_PBE Fe_pv 02Aug2007              
   SHA256 =  5d22e414b1f82158bf2c7ecb8b97b28fd0923e48cadc1c3bf74d524558f5dd32 Fe
   COPYR  = (c) Copyright 02Aug2007 Georg Kresse                                
   COPYR  = This file is part of the software VASP. Any use, copying, and all ot
   COPYR  = If you do not have a valid VASP license, you may not use, copy or di
   VRHFIN =Fe:  3pd7s1                                                          
   LEXCH  = PE                                                                  
   EATOM  =  2457.4239 eV,  180.6156 Ry                                         
                                                                                
   TITEL  = PAW_PBE Fe_pv 02Aug2007                                             
   LULTRA =        F    use ultrasoft PP ?                                      
   IUNSCR =        1    unscreen: 0-lin 1-nonlin 2-no                           
   RPACOR =    1.750    partial core radius                                     
   POMASS =   55.847; ZVAL   =   14.000    mass and valenz                      
   RCORE  =    2.200    outmost cutoff radius                                   
   RWIGS  =    2.200; RWIGS  =    1.164    wigner-seitz radius (au A)           
   ENMAX  =  293.238; ENMIN  =  219.928 eV                                      
   ICORE  =        3    local potential                                         
   LCOR   =        T    correct aug charges                                     
   LPAW   =        T    paw PP                                                  
   EAUG   =  578.342                                                            
   DEXC   =    0.000                                                            
   RMAX   =    2.249    core radius for proj-oper                               
   RAUG   =    1.300    factor for augmentation sphere                          
   RDEP   =    2.296    radius for radial grids                                 
   RDEPT  =    1.766    core radius for aug-charge                              
                                                                                
   Atomic configuration                                                         
    8 entries                                                                   
     n  l   j            E        occ.                                          
     1  0  0.50     -6993.8440   2.0000                                         
     2  0  0.50      -814.6047   2.0000                                         
     2  1  1.50      -693.3689   6.0000                                         
     3  0  0.50       -89.4732   2.0000                                         
     3  1  1.50       -55.6373   6.0000                                         
     3  2  2.50        -3.8151   7.0000                                         
     4  0  0.50        -4.2551   1.0000                                         
     4  3  2.50        -1.3606   0.0000                                         
   Description                                                                  
     l       E           TYP  RCUT    TYP  RCUT                                 
     1    -55.6372668     23  2.000                                             
     1     -5.4423304     23  2.000                                             
     2     -3.8151096     23  2.200                                             
     2     -5.1756922     23  2.200                                             
     0     -4.2550951     23  2.200                                             
     0     27.2116520     23  2.200                                             
     3     -1.3605826     23  2.200                                             
  local pseudopotential read in
  partial core-charges read in
  partial kinetic energy density read in
  atomic valenz-charges read in
  non local Contribution for L=           1  read in
    real space projection operators read in
  non local Contribution for L=           1  read in
    real space projection operators read in
  non local Contribution for L=           2  read in
    real space projection operators read in
  non local Contribution for L=           2  read in
    real space projection operators read in
  non local Contribution for L=           0  read in
    real space projection operators read in
  non local Contribution for L=           0  read in
    real space projection operators read in
    PAW grid and wavefunctions read in
 
   number of l-projection  operators is LMAX  =           6
   number of lm-projection operators is LMMAX =          18
 

 ----------------------------------------------------------------------------- 
|                                                                             |
|  ADVICE TO THIS USER RUNNING 'VASP/VAMP'   (HEAR YOUR MASTER'S VOICE ...):  |
|                                                                             |
|      You have a (more or less) 'large supercell' and for larger cells       |
|      it might be more efficient to use real space projection opertators     |
|      So try LREAL= Auto  in the INCAR   file.                               |
|      Mind:          For very  accurate calculation you might also keep the  |
|      reciprocal projection scheme          (i.e. LREAL=.FALSE.)             |
|                                                                             |
 ----------------------------------------------------------------------------- 


 ----------------------------------------------------------------------------- 
|                                                                             |
|  ADVICE TO THIS USER RUNNING 'VASP/VAMP'   (HEAR YOUR MASTER'S VOICE ...):  |
|                                                                             |
|      You enforced a specific xc-type in the INCAR file,                     |
|      a different type was found on the POTCAR file                          |
|          I HOPE YOU KNOW, WHAT YOU ARE  DOING                               |
|                                                                             |
 ----------------------------------------------------------------------------- 

  PAW_PBE S 06Sep2000                   :
 energy of atom  1       EATOM= -276.8230
 kinetic energy error for atom=    0.0007 (will be added to EATOM!!)
   PAW_PBE Cu_pv 06Sep2000              :
 energy of atom  2       EATOM=-4120.1201
 kinetic energy error for atom=    0.0094 (will be added to EATOM!!)
   PAW_PBE Fe_pv 02Aug2007              :
 energy of atom  3       EATOM=-2457.4239
 kinetic energy error for atom=    0.0025 (will be added to EATOM!!)
 
 
 POSCAR: Fe16 Cu16 S32                           
  positions in direct lattice
  No initial velocities read in
 exchange correlation table for  LEXCH =       14
   RHO(1)=    0.500       N(1)  =     2000
   RHO(2)=  100.500       N(2)  =     4000
 


--------------------------------------------------------------------------------------------------------


 ion  position               nearest neighbor table
   1  0.126  0.125  0.125-  41 2.26  37 2.26  61 2.28  49 2.28
   2  0.626  0.125  0.125-  42 2.26  38 2.26  62 2.28  50 2.28
   3  0.126  0.625  0.125-  43 2.26  39 2.26  63 2.28  51 2.28
   4  0.626  0.625  0.125-  44 2.26  40 2.26  64 2.28  52 2.28
   5  0.374  0.375  0.125-  39 2.26  41 2.26  52 2.28  62 2.28
   6  0.874  0.375  0.125-  40 2.26  42 2.26  51 2.28  61 2.28
   7  0.374  0.875  0.125-  37 2.26  43 2.26  50 2.28  64 2.28
   8  0.874  0.875  0.125-  38 2.26  44 2.26  49 2.28  63 2.28
   9  0.125  0.374  0.875-  41 2.26  45 2.26  51 2.28  55 2.28
  10  0.625  0.374  0.875-  42 2.26  46 2.26  52 2.28  56 2.28
  11  0.125  0.874  0.875-  43 2.26  47 2.26  49 2.28  53 2.28
  12  0.625  0.874  0.875-  44 2.26  48 2.26  50 2.28  54 2.28
  13  0.375  0.126  0.875-  41 2.26  46 2.26  50 2.28  53 2.28
  14  0.875  0.126  0.875-  42 2.26  45 2.26  49 2.28  54 2.28
  15  0.375  0.626  0.875-  43 2.26  48 2.26  52 2.28  55 2.28
  16  0.875  0.626  0.875-  44 2.26  47 2.26  51 2.28  56 2.28
  17  0.124  0.125  0.625-  45 2.26  33 2.26  57 2.28  53 2.28
  18  0.624  0.125  0.625-  46 2.26  34 2.26  58 2.28  54 2.28
  19  0.124  0.625  0.625-  47 2.26  35 2.26  59 2.28  55 2.28
  20  0.624  0.625  0.625-  48 2.26  36 2.26  60 2.28  56 2.28
  21  0.376  0.375  0.625-  36 2.26  46 2.26  55 2.28  57 2.28
  22  0.876  0.375  0.625-  35 2.26  45 2.26  56 2.28  58 2.28
  23  0.376  0.875  0.625-  34 2.26  48 2.26  53 2.28  59 2.28
  24  0.876  0.875  0.625-  33 2.26  47 2.26  54 2.28  60 2.28
  25  0.375  0.124  0.375-  34 2.26  37 2.26  57 2.28  62 2.28
  26  0.875  0.124  0.375-  33 2.26  38 2.26  58 2.28  61 2.28
  27  0.375  0.624  0.375-  36 2.26  39 2.26  59 2.28  64 2.28
  28  0.875  0.624  0.375-  35 2.26  40 2.26  60 2.28  63 2.28
  29  0.125  0.376  0.375-  35 2.26  39 2.26  57 2.28  61 2.28
  30  0.625  0.376  0.375-  36 2.26  40 2.26  58 2.28  62 2.28
  31  0.125  0.876  0.375-  33 2.26  37 2.26  59 2.28  63 2.28
  32  0.625  0.876  0.375-  34 2.26  38 2.26  60 2.28  64 2.28
  33  1.000  0.000  0.500-  24 2.26  31 2.26  26 2.26  17 2.26
  34  0.500  0.000  0.500-  23 2.26  32 2.26  25 2.26  18 2.26
  35  1.000  0.500  0.500-  22 2.26  29 2.26  28 2.26  19 2.26
  36  0.500  0.500  0.500-  21 2.26  30 2.26  27 2.26  20 2.26
  37  0.250  0.000  0.250-   7 2.26  31 2.26  25 2.26   1 2.26
  38  0.750  0.000  0.250-   8 2.26  32 2.26  26 2.26   2 2.26
  39  0.250  0.500  0.250-   5 2.26  29 2.26  27 2.26   3 2.26
  40  0.750  0.500  0.250-   6 2.26  30 2.26  28 2.26   4 2.26
  41  0.250  0.250  1.000-   1 2.26  13 2.26   9 2.26   5 2.26
  42  0.750  0.250  1.000-   2 2.26  14 2.26  10 2.26   6 2.26
  43  0.250  0.750  1.000-   3 2.26  15 2.26  11 2.26   7 2.26
  44  0.750  0.750  1.000-   4 2.26  16 2.26  12 2.26   8 2.26
  45  0.000  0.250  0.750-  17 2.26  14 2.26   9 2.26  22 2.26
  46  0.500  0.250  0.750-  18 2.26  13 2.26  10 2.26  21 2.26
  47  0.000  0.750  0.750-  19 2.26  16 2.26  11 2.26  24 2.26
  48  0.500  0.750  0.750-  20 2.26  15 2.26  12 2.26  23 2.26
  49  1.000  0.000  0.000-   8 2.28  11 2.28  14 2.28   1 2.28
  50  0.500  0.000  0.000-   7 2.28  12 2.28  13 2.28   2 2.28
  51  1.000  0.500  0.000-   6 2.28   9 2.28  16 2.28   3 2.28
  52  0.500  0.500  0.000-   5 2.28  10 2.28  15 2.28   4 2.28
  53  0.250  0.000  0.750-  23 2.28  11 2.28  13 2.28  17 2.28
  54  0.750  0.000  0.750-  24 2.28  12 2.28  14 2.28  18 2.28
  55  0.250  0.500  0.750-  21 2.28   9 2.28  15 2.28  19 2.28
  56  0.750  0.500  0.750-  22 2.28  10 2.28  16 2.28  20 2.28
  57  0.250  0.250  0.500-  17 2.28  25 2.28  29 2.28  21 2.28
  58  0.750  0.250  0.500-  18 2.28  26 2.28  30 2.28  22 2.28
  59  0.250  0.750  0.500-  19 2.28  27 2.28  31 2.28  23 2.28
  60  0.750  0.750  0.500-  20 2.28  28 2.28  32 2.28  24 2.28
  61  0.000  0.250  0.250-   1 2.28  26 2.28  29 2.28   6 2.28
  62  0.500  0.250  0.250-   2 2.28  25 2.28  30 2.28   5 2.28
  63  0.000  0.750  0.250-   3 2.28  28 2.28  31 2.28   8 2.28
  64  0.500  0.750  0.250-   4 2.28  27 2.28  32 2.28   7 2.28
 
  LATTYP: Found a simple monoclinic cell.
 ALAT       =    14.8233739209
 B/A-ratio  =     0.7094195327
 C/A-ratio  =     1.5758329686
 COS(beta)  =    -0.9487022221
  
  Lattice vectors:
  
 A1 = ( -10.5340250000,   0.0000000000, -10.4291290000)
 A2 = (   0.0000000000, -10.5159910000,   0.0000000000)
 A3 = (  10.5521950000,   0.0000000000,  20.8399040000)


Analysis of symmetry for initial positions (statically):
=====================================================================
 Subroutine PRICEL returns following result:
 
  LATTYP: Found a base centered monoclinic cell.
 ALAT       =    11.6468149986
 B/A-ratio  =     0.4514535090
 C/A-ratio  =     0.8938744934
 COS(beta)  =    -0.8132633647
  
  Lattice vectors:
  
 A1 = (  -2.6198787500,  -2.6289977500,   5.2007990000)
 A2 = (  -2.6198787500,   2.6289977500,   5.2007990000)
 A3 = (  -0.0181700000,   0.0000000000, -10.4107750000)
 
   8 primitive cells build up your supercell.
 

 Routine SETGRP: Setting up the symmetry group for a 
 simple monoclinic supercell.


 Subroutine GETGRP returns: Found  2 space group operations
 (whereof  1 operations were pure point group operations)
 out of a pool of  4 trial point group operations.


The static configuration has the point symmetry C_1 .
 The point group associated with its full space group is C_2 .


Analysis of symmetry for dynamics (positions and initial velocities):
=====================================================================
 Subroutine PRICEL returns following result:
 
  LATTYP: Found a base centered monoclinic cell.
 ALAT       =    11.6468149986
 B/A-ratio  =     0.4514535090
 C/A-ratio  =     0.8938744934
 COS(beta)  =    -0.8132633647
  
  Lattice vectors:
  
 A1 = (  -2.6198787500,  -2.6289977500,   5.2007990000)
 A2 = (  -2.6198787500,   2.6289977500,   5.2007990000)
 A3 = (  -0.0181700000,   0.0000000000, -10.4107750000)
 
   8 primitive cells build up your supercell.
 

 Routine SETGRP: Setting up the symmetry group for a 
 simple monoclinic supercell.


 Subroutine GETGRP returns: Found  2 space group operations
 (whereof  1 operations were pure point group operations)
 out of a pool of  4 trial point group operations.


The dynamic configuration has the point symmetry C_1 .
 The point group associated with its full space group is C_2 .


Analysis of structural, dynamic, and magnetic symmetry:
=====================================================================
 Subroutine PRICEL returns following result:
 
  LATTYP: Found a base centered monoclinic cell.
 ALAT       =    11.6468149986
 B/A-ratio  =     0.4514535090
 C/A-ratio  =     0.8938744934
 COS(beta)  =    -0.8132633647
  
  Lattice vectors:
  
 A1 = (  -2.6198787500,  -2.6289977500,   5.2007990000)
 A2 = (  -2.6198787500,   2.6289977500,   5.2007990000)
 A3 = (  -0.0181700000,   0.0000000000, -10.4107750000)
 
   8 primitive cells build up your supercell.
 

 Routine SETGRP: Setting up the symmetry group for a 
 simple monoclinic supercell.


 Subroutine GETGRP returns: Found  2 space group operations
 (whereof  1 operations were pure point group operations)
 out of a pool of  4 trial point group operations.


The magnetic configuration has the point symmetry C_1 .
 The point group associated with its full space group is C_2 .


 Subroutine INISYM returns: Found  2 space group operations
 (whereof  1 operations are pure point group operations),
 and found     8 'primitive' translations

 
 
 KPOINTS: Automatic mesh                          

Automatic generation of k-mesh.
Space group operators:
 irot       det(A)        alpha          n_x          n_y          n_z        tau_x        tau_y        tau_z
    1     1.000000     0.000000     1.000000     0.000000     0.000000     0.000000     0.000000     0.000000
    2     1.000000   179.999999     0.000000     1.000000     0.000000    -0.250000     0.000000    -0.250000
 
 Subroutine IBZKPT returns following result:
 ===========================================
 
 Found     30 irreducible k-points:
 
 Following reciprocal coordinates:
            Coordinates               Weight
  0.000000  0.000000  0.000000      1.000000
  0.250000  0.000000  0.000000      2.000000
  0.500000  0.000000  0.000000      1.000000
  0.000000  0.250000  0.000000      2.000000
  0.250000  0.250000  0.000000      4.000000
  0.500000  0.250000  0.000000      2.000000
  0.000000  0.500000  0.000000      1.000000
  0.250000  0.500000  0.000000      2.000000
  0.500000  0.500000  0.000000      1.000000
 -0.000000  0.000000  0.250000      2.000000
  0.250000  0.000000  0.250000      2.000000
  0.500000  0.000000  0.250000      2.000000
 -0.250000  0.000000  0.250000      2.000000
 -0.000000  0.250000  0.250000      4.000000
  0.250000  0.250000  0.250000      4.000000
  0.500000  0.250000  0.250000      4.000000
 -0.250000  0.250000  0.250000      4.000000
 -0.000000  0.500000  0.250000      2.000000
  0.250000  0.500000  0.250000      2.000000
  0.500000  0.500000  0.250000      2.000000
 -0.250000  0.500000  0.250000      2.000000
 -0.000000  0.000000  0.500000      1.000000
  0.250000  0.000000  0.500000      2.000000
  0.500000  0.000000  0.500000      1.000000
 -0.000000  0.250000  0.500000      2.000000
  0.250000  0.250000  0.500000      4.000000
  0.500000  0.250000  0.500000      2.000000
 -0.000000  0.500000  0.500000      1.000000
  0.250000  0.500000  0.500000      2.000000
  0.500000  0.500000  0.500000      1.000000
 
 Following cartesian coordinates:
            Coordinates               Weight
  0.000000  0.000000  0.000000      1.000000
  0.023774  0.000000 -0.000041      2.000000
  0.047547  0.000000 -0.000083      1.000000
  0.000000  0.023773  0.000000      2.000000
  0.023774  0.023773 -0.000041      4.000000
  0.047547  0.023773 -0.000083      2.000000
  0.000000  0.047547  0.000000      1.000000
  0.023774  0.047547 -0.000041      2.000000
  0.047547  0.047547 -0.000083      1.000000
 -0.000042  0.000000  0.024014      2.000000
  0.023732  0.000000  0.023972      2.000000
  0.047505  0.000000  0.023931      2.000000
 -0.023816  0.000000  0.024055      2.000000
 -0.000042  0.023773  0.024014      4.000000
  0.023732  0.023773  0.023972      4.000000
  0.047505  0.023773  0.023931      4.000000
 -0.023816  0.023773  0.024055      4.000000
 -0.000042  0.047547  0.024014      2.000000
  0.023732  0.047547  0.023972      2.000000
  0.047505  0.047547  0.023931      2.000000
 -0.023816  0.047547  0.024055      2.000000
 -0.000084  0.000000  0.048027      1.000000
  0.023690  0.000000  0.047986      2.000000
  0.047464  0.000000  0.047944      1.000000
 -0.000084  0.023773  0.048027      2.000000
  0.023690  0.023773  0.047986      4.000000
  0.047464  0.023773  0.047944      2.000000
 -0.000084  0.047547  0.048027      1.000000
  0.023690  0.047547  0.047986      2.000000
  0.047464  0.047547  0.047944      1.000000
 
 TETIRR: Found    192 inequivalent tetrahedra from      384
 
 Subroutine IBZKPT_HF returns following result:
 ==============================================
 
 Found     64 k-points in 1st BZ
 the following     64 k-points will be used (e.g. in the exchange kernel)
 Following reciprocal coordinates:   # in IRBZ
  0.000000  0.000000  0.000000    0.01562500   1 t-inv F
  0.250000  0.000000  0.000000    0.01562500   2 t-inv F
  0.500000  0.000000  0.000000    0.01562500   3 t-inv F
  0.000000  0.250000  0.000000    0.01562500   4 t-inv F
  0.250000  0.250000  0.000000    0.01562500   5 t-inv F
  0.500000  0.250000  0.000000    0.01562500   6 t-inv F
  0.000000  0.500000  0.000000    0.01562500   7 t-inv F
  0.250000  0.500000  0.000000    0.01562500   8 t-inv F
  0.500000  0.500000  0.000000    0.01562500   9 t-inv F
 -0.000000  0.000000  0.250000    0.01562500  10 t-inv F
  0.250000  0.000000  0.250000    0.01562500  11 t-inv F
  0.500000  0.000000  0.250000    0.01562500  12 t-inv F
 -0.250000  0.000000  0.250000    0.01562500  13 t-inv F
 -0.000000  0.250000  0.250000    0.01562500  14 t-inv F
  0.250000  0.250000  0.250000    0.01562500  15 t-inv F
  0.500000  0.250000  0.250000    0.01562500  16 t-inv F
 -0.250000  0.250000  0.250000    0.01562500  17 t-inv F
 -0.000000  0.500000  0.250000    0.01562500  18 t-inv F
  0.250000  0.500000  0.250000    0.01562500  19 t-inv F
  0.500000  0.500000  0.250000    0.01562500  20 t-inv F
 -0.250000  0.500000  0.250000    0.01562500  21 t-inv F
 -0.000000  0.000000  0.500000    0.01562500  22 t-inv F
  0.250000  0.000000  0.500000    0.01562500  23 t-inv F
  0.500000  0.000000  0.500000    0.01562500  24 t-inv F
 -0.000000  0.250000  0.500000    0.01562500  25 t-inv F
  0.250000  0.250000  0.500000    0.01562500  26 t-inv F
  0.500000  0.250000  0.500000    0.01562500  27 t-inv F
 -0.000000  0.500000  0.500000    0.01562500  28 t-inv F
  0.250000  0.500000  0.500000    0.01562500  29 t-inv F
  0.500000  0.500000  0.500000    0.01562500  30 t-inv F
 -0.250000  0.000000 -0.000000    0.01562500   2 t-inv F spinflp
 -0.250000  0.250000 -0.000000    0.01562500   5 t-inv F spinflp
 -0.250000  0.500000 -0.000000    0.01562500   8 t-inv F spinflp
  0.000000  0.000000 -0.250000    0.01562500  10 t-inv F spinflp
 -0.250000  0.000000 -0.250000    0.01562500  11 t-inv F spinflp
 -0.500000  0.000000 -0.250000    0.01562500  12 t-inv F spinflp
  0.250000  0.000000 -0.250000    0.01562500  13 t-inv F spinflp
  0.000000  0.250000 -0.250000    0.01562500  14 t-inv F spinflp
 -0.250000  0.250000 -0.250000    0.01562500  15 t-inv F spinflp
 -0.500000  0.250000 -0.250000    0.01562500  16 t-inv F spinflp
  0.250000  0.250000 -0.250000    0.01562500  17 t-inv F spinflp
  0.000000  0.500000 -0.250000    0.01562500  18 t-inv F spinflp
 -0.250000  0.500000 -0.250000    0.01562500  19 t-inv F spinflp
 -0.500000  0.500000 -0.250000    0.01562500  20 t-inv F spinflp
  0.250000  0.500000 -0.250000    0.01562500  21 t-inv F spinflp
 -0.250000  0.000000 -0.500000    0.01562500  23 t-inv F spinflp
 -0.250000  0.250000 -0.500000    0.01562500  26 t-inv F spinflp
 -0.250000  0.500000 -0.500000    0.01562500  29 t-inv F spinflp
  0.000000 -0.250000  0.000000    0.01562500   4 t-inv T
 -0.250000 -0.250000 -0.000000    0.01562500   5 t-inv T
  0.250000 -0.250000  0.000000    0.01562500   5 t-inv T spinflp
 -0.500000 -0.250000 -0.000000    0.01562500   6 t-inv T
  0.000000 -0.250000 -0.250000    0.01562500  14 t-inv T
 -0.000000 -0.250000  0.250000    0.01562500  14 t-inv T spinflp
 -0.250000 -0.250000 -0.250000    0.01562500  15 t-inv T
  0.250000 -0.250000  0.250000    0.01562500  15 t-inv T spinflp
 -0.500000 -0.250000 -0.250000    0.01562500  16 t-inv T
  0.500000 -0.250000  0.250000    0.01562500  16 t-inv T spinflp
  0.250000 -0.250000 -0.250000    0.01562500  17 t-inv T
 -0.250000 -0.250000  0.250000    0.01562500  17 t-inv T spinflp
  0.000000 -0.250000 -0.500000    0.01562500  25 t-inv T
 -0.250000 -0.250000 -0.500000    0.01562500  26 t-inv T
  0.250000 -0.250000  0.500000    0.01562500  26 t-inv T spinflp
 -0.500000 -0.250000 -0.500000    0.01562500  27 t-inv T


--------------------------------------------------------------------------------------------------------




 Dimension of arrays:
   k-points           NKPTS =     30   k-points in BZ     NKDIM =     30   number of bands    NBANDS=    512
   number of dos      NEDOS =    301   number of ions     NIONS =     64
   non local maximal  LDIM  =      6   non local SUM 2l+1 LMDIM =     18
   total plane-waves  NPLWV = 829440
   max r-space proj   IRMAX =      1   max aug-charges    IRDMAX=  22895
   dimension x,y,z NGX =    96 NGY =   96 NGZ =   90
   dimension x,y,z NGXF=   192 NGYF=  192 NGZF=  180
   support grid    NGXF=   192 NGYF=  192 NGZF=  180
   ions per type =              32  16  16
   NGX,Y,Z   is equivalent  to a cutoff of  15.18, 15.18, 14.37 a.u.
   NGXF,Y,Z  is equivalent  to a cutoff of  30.35, 30.35, 28.74 a.u.

 SYSTEM =  CuFeS2                                  
 POSCAR =  Fe16 Cu16 S32                           

 Startparameter for this run:
   NWRITE =      2    write-flag & timer
   PREC   = accura    normal or accurate (medium, high low for compatibility)
   ISTART =      0    job   : 0-new  1-cont  2-samecut
   ICHARG =      1    charge: 1-file 2-atom 10-const
   ISPIN  =      2    spin polarized calculation?
   LNONCOLLINEAR =      F non collinear calculations
   LSORBIT =      F    spin-orbit coupling
   INIWAV =      1    electr: 0-lowe 1-rand  2-diag
   LASPH  =      F    aspherical Exc in radial PAW
   METAGGA=      F    non-selfconsistent MetaGGA calc.

 Electronic Relaxation 1
   ENCUT  =  700.0 eV  51.45 Ry    7.17 a.u.  22.69 22.69 22.46*2*pi/ulx,y,z
   ENINI  =  700.0     initial cutoff
   ENAUG  =  758.2 eV  augmentation charge cutoff
   NELM   =    500;   NELMIN=  2; NELMDL=  0     # of ELM steps 
   EDIFF  = 0.1E-07   stopping-criterion for ELM
   LREAL  =      F    real-space projection
   NLSPLINE    = F    spline interpolate recip. space projectors
   LCOMPAT=      F    compatible to vasp.4.4
   GGA_COMPAT  = T    GGA compatible to vasp.4.4-vasp.4.6
   LMAXPAW     = -100 max onsite density
   LMAXMIX     =    4 max onsite mixed and CHGCAR
   VOSKOWN=      0    Vosko Wilk Nusair interpolation
   ROPT   =    0.00000   0.00000   0.00000
 Ionic relaxation
   EDIFFG = -.1E-04   stopping-criterion for IOM
   NSW    =      0    number of steps for IOM
   NBLOCK =      1;   KBLOCK =      1    inner block; outer block 
   IBRION =     -1    ionic relax: 0-MD 1-quasi-New 2-CG
   NFREE  =      0    steps in history (QN), initial steepest desc. (CG)
   ISIF   =      2    stress and relaxation
   IWAVPR =     10    prediction:  0-non 1-charg 2-wave 3-comb
   ISYM   =      2    0-nonsym 1-usesym 2-fastsym
   LCORR  =      T    Harris-Foulkes like correction to forces

   POTIM  = 0.5000    time-step for ionic-motion
   TEIN   =    0.0    initial temperature
   TEBEG  =    0.0;   TEEND  =   0.0 temperature during run
   SMASS  =  -3.00    Nose mass-parameter (am)
   estimated Nose-frequenzy (Omega)   =  0.10E-29 period in steps =****** mass=  -0.253E-26a.u.
   SCALEE = 1.0000    scale energy and forces
   NPACO  =    256;   APACO  = 16.0  distance and # of slots for P.C.
   PSTRESS=    0.0 pullay stress

  Mass of Ions in am
   POMASS =  32.07 63.55 55.85
  Ionic Valenz
   ZVAL   =   6.00 17.00 14.00
  Atomic Wigner-Seitz radii
   RWIGS  =  -1.00 -1.00 -1.00
  virtual crystal weights 
   VCA    =   1.00  1.00  1.00
   NELECT =     688.0000    total number of electrons
   NUPDOWN=      -1.0000    fix difference up-down

 DOS related values:
   EMIN   =  10.00;   EMAX   =-10.00  energy-range for DOS
   EFERMI =   0.00
   ISMEAR =    -5;   SIGMA  =   0.03  broadening in eV -4-tet -1-fermi 0-gaus

 Electronic relaxation 2 (details)
   IALGO  =     38    algorithm
   LDIAG  =      T    sub-space diagonalisation (order eigenvalues)
   LSUBROT=      F    optimize rotation matrix (better conditioning)
   TURBO    =      0    0=normal 1=particle mesh
   IRESTART =      0    0=no restart 2=restart with 2 vectors
   NREBOOT  =      0    no. of reboots
   NMIN     =      0    reboot dimension
   EREF     =   0.00    reference energy to select bands
   IMIX   =      4    mixing-type and parameters
     AMIX     =   0.40;   BMIX     =  1.00
     AMIX_MAG =   1.60;   BMIX_MAG =  1.00
     AMIN     =   0.10
     WC   =   100.;   INIMIX=   1;  MIXPRE=   1;  MAXMIX= -45

 Intra band minimization:
   WEIMIN = 0.0000     energy-eigenvalue tresh-hold
   EBREAK =  0.49E-11  absolut break condition
   DEPER  =   0.30     relativ break condition  

   TIME   =   0.40     timestep for ELM

  volume/ion in A,a.u.               =      17.99       121.39
  Fermi-wavevector in a.u.,A,eV,Ry     =   1.378940  2.605819 25.871157  1.901476
  Thomas-Fermi vector in A             =   2.503956
 
 Write flags
   LWAVE        =      T    write WAVECAR
   LDOWNSAMPLE  =      F    k-point downsampling of WAVECAR
   LCHARG       =      T    write CHGCAR
   LVTOT        =      F    write LOCPOT, total local potential
   LVHAR        =      F    write LOCPOT, Hartree potential only
   LELF         =      F    write electronic localiz. function (ELF)
   LORBIT       =     11    0 simple, 1 ext, 2 COOP (PROOUT), +10 PAW based schemes


 Dipole corrections
   LMONO  =      F    monopole corrections only (constant potential shift)
   LDIPOL =      F    correct potential (dipole corrections)
   IDIPOL =      0    1-x, 2-y, 3-z, 4-all directions 
   EPSILON=  1.0000000 bulk dielectric constant

 LDA+U is selected, type is set to LDAUTYPE =  2
   angular momentum for each species LDAUL =     2    2    2
   U (eV)           for each species LDAUU =   0.0  0.1  4.7
   J (eV)           for each species LDAUJ =   0.0  0.0  0.0
 Exchange correlation treatment:
   GGA     =    PS    GGA type
   LEXCH   =    14    internal setting for exchange type
   VOSKOWN=      0    Vosko Wilk Nusair interpolation
   LHFCALC =     F    Hartree Fock is set to
   LHFONE  =     F    Hartree Fock one center treatment
   AEXX    =    0.0000 exact exchange contribution

 Linear response parameters
   LEPSILON=     F    determine dielectric tensor
   LRPA    =     F    only Hartree local field effects (RPA)
   LNABLA  =     F    use nabla operator in PAW spheres
   LVEL    =     F    velocity operator in full k-point grid
   LINTERFAST=   F  fast interpolation
   KINTER  =     0    interpolate to denser k-point grid
   CSHIFT  =0.1000    complex shift for real part using Kramers Kronig
   OMEGAMAX=  -1.0    maximum frequency
   DEG_THRESHOLD= 0.2000000E-02 threshold for treating states as degnerate
   RTIME   =   -0.100 relaxation time in fs
  (WPLASMAI=    0.000 imaginary part of plasma frequency in eV, 0.658/RTIME)
   DFIELD  = 0.0000000 0.0000000 0.0000000 field for delta impulse in time
 
 Orbital magnetization related:
   ORBITALMAG=     F  switch on orbital magnetization
   LCHIMAG   =     F  perturbation theory with respect to B field
   DQ        =  0.001000  dq finite difference perturbation B field
   LLRAUG    =     F  two centre corrections for induced B field

 PEAD related settings:
   LPEAD      =     T    switch on PEAD
   IPEAD      =     4    finite difference order for dpsi/dk
   LCALCPOL   =     T    calculate macroscopic polarization
   LCALCEPS   =     F    calculate dielectric tensor
   EFIELD_PEAD=    0.0000    0.0000    0.0000
   SKIP_EDOTP =     F
   LRPA       =     F
   SKIP_SCF   =     F


--------------------------------------------------------------------------------------------------------


 Static calculation
 charge density and potential will be updated during run
 spin polarized calculation
 Variant of blocked Davidson
 Davidson routine will perform the subspace rotation
 perform sub-space diagonalisation
    after iterative eigenvector-optimisation
 modified Broyden-mixing scheme, WC =      100.0
 initial mixing is a Kerker type mixing with AMIX =  0.4000 and BMIX =      1.0000
 Hartree-type preconditioning will be used
 using additional bands          168
 reciprocal scheme for non local part
 use partial core corrections
 calculate Harris-corrections to forces 
   (improved forces if not selfconsistent)
 use gradient corrections 
 use of overlap-Matrix (Vanderbilt PP)
 Fermi weights with tetrahedron method with Bloechl corrections


--------------------------------------------------------------------------------------------------------


  energy-cutoff  :      700.00
  volume of cell :     1151.27
      direct lattice vectors                 reciprocal lattice vectors
    10.515855000  0.000000000  0.018354000     0.095094792  0.000000000 -0.000165970
     0.000000000 10.515991000  0.000000000     0.000000000  0.095093273  0.000000000
     0.018170000  0.000000000 10.410775000    -0.000167650  0.000000000  0.096054621

  length of vectors
    10.515871017 10.515991000 10.410790856     0.095094937  0.095093273  0.096054767


 
 k-points in units of 2pi/SCALE and weight: Automatic mesh                          
   0.00000000  0.00000000  0.00000000       0.016
   0.02377370  0.00000000 -0.00004149       0.031
   0.04754740  0.00000000 -0.00008298       0.016
   0.00000000  0.02377332  0.00000000       0.031
   0.02377370  0.02377332 -0.00004149       0.062
   0.04754740  0.02377332 -0.00008298       0.031
   0.00000000  0.04754664  0.00000000       0.016
   0.02377370  0.04754664 -0.00004149       0.031
   0.04754740  0.04754664 -0.00008298       0.016
  -0.00004191  0.00000000  0.02401366       0.031
   0.02373179  0.00000000  0.02397216       0.031
   0.04750548  0.00000000  0.02393067       0.031
  -0.02381561  0.00000000  0.02405515       0.031
  -0.00004191  0.02377332  0.02401366       0.062
   0.02373179  0.02377332  0.02397216       0.062
   0.04750548  0.02377332  0.02393067       0.062
  -0.02381561  0.02377332  0.02405515       0.062
  -0.00004191  0.04754664  0.02401366       0.031
   0.02373179  0.04754664  0.02397216       0.031
   0.04750548  0.04754664  0.02393067       0.031
  -0.02381561  0.04754664  0.02405515       0.031
  -0.00008383  0.00000000  0.04802731       0.016
   0.02368987  0.00000000  0.04798582       0.031
   0.04746357  0.00000000  0.04794433       0.016
  -0.00008383  0.02377332  0.04802731       0.031
   0.02368987  0.02377332  0.04798582       0.062
   0.04746357  0.02377332  0.04794433       0.031
  -0.00008383  0.04754664  0.04802731       0.016
   0.02368987  0.04754664  0.04798582       0.031
   0.04746357  0.04754664  0.04794433       0.016
 
 k-points in reciprocal lattice and weights: Automatic mesh                          
   0.00000000  0.00000000  0.00000000       0.016
   0.25000000  0.00000000  0.00000000       0.031
   0.50000000  0.00000000  0.00000000       0.016
   0.00000000  0.25000000  0.00000000       0.031
   0.25000000  0.25000000  0.00000000       0.062
   0.50000000  0.25000000  0.00000000       0.031
   0.00000000  0.50000000  0.00000000       0.016
   0.25000000  0.50000000  0.00000000       0.031
   0.50000000  0.50000000  0.00000000       0.016
  -0.00000000  0.00000000  0.25000000       0.031
   0.25000000  0.00000000  0.25000000       0.031
   0.50000000  0.00000000  0.25000000       0.031
  -0.25000000  0.00000000  0.25000000       0.031
  -0.00000000  0.25000000  0.25000000       0.062
   0.25000000  0.25000000  0.25000000       0.062
   0.50000000  0.25000000  0.25000000       0.062
  -0.25000000  0.25000000  0.25000000       0.062
  -0.00000000  0.50000000  0.25000000       0.031
   0.25000000  0.50000000  0.25000000       0.031
   0.50000000  0.50000000  0.25000000       0.031
  -0.25000000  0.50000000  0.25000000       0.031
  -0.00000000  0.00000000  0.50000000       0.016
   0.25000000  0.00000000  0.50000000       0.031
   0.50000000  0.00000000  0.50000000       0.016
  -0.00000000  0.25000000  0.50000000       0.031
   0.25000000  0.25000000  0.50000000       0.062
   0.50000000  0.25000000  0.50000000       0.031
  -0.00000000  0.50000000  0.50000000       0.016
   0.25000000  0.50000000  0.50000000       0.031
   0.50000000  0.50000000  0.50000000       0.016
 
 position of ions in fractional coordinates (direct lattice) 
   0.12615900  0.12478100  0.12503600
   0.62615900  0.12478100  0.12503600
   0.12615900  0.62478100  0.12503600
   0.62615900  0.62478100  0.12503600
   0.37384100  0.37478100  0.12496400
   0.87384100  0.37478100  0.12496400
   0.37384100  0.87478100  0.12496400
   0.87384100  0.87478100  0.12496400
   0.12500000  0.37369200  0.87500000
   0.62500000  0.37369200  0.87500000
   0.12500000  0.87369200  0.87500000
   0.62500000  0.87369200  0.87500000
   0.37500000  0.12600200  0.87500000
   0.87500000  0.12600200  0.87500000
   0.37500000  0.62600200  0.87500000
   0.87500000  0.62600200  0.87500000
   0.12384100  0.12478100  0.62496400
   0.62384100  0.12478100  0.62496400
   0.12384100  0.62478100  0.62496400
   0.62384100  0.62478100  0.62496400
   0.37615900  0.37478100  0.62503600
   0.87615900  0.37478100  0.62503600
   0.37615900  0.87478100  0.62503600
   0.87615900  0.87478100  0.62503600
   0.37500000  0.12369200  0.37500000
   0.87500000  0.12369200  0.37500000
   0.37500000  0.62369200  0.37500000
   0.87500000  0.62369200  0.37500000
   0.12500000  0.37600200  0.37500000
   0.62500000  0.37600200  0.37500000
   0.12500000  0.87600200  0.37500000
   0.62500000  0.87600200  0.37500000
   0.99993300  0.00018900  0.49999900
   0.49993300  0.00018900  0.49999900
   0.99993300  0.50018900  0.49999900
   0.49993300  0.50018900  0.49999900
   0.25006700  0.00018900  0.25000100
   0.75006700  0.00018900  0.25000100
   0.25006700  0.50018900  0.25000100
   0.75006700  0.50018900  0.25000100
   0.24993300  0.25018900  0.99999900
   0.74993300  0.25018900  0.99999900
   0.24993300  0.75018900  0.99999900
   0.74993300  0.75018900  0.99999900
   0.00006700  0.25018900  0.75000100
   0.50006700  0.25018900  0.75000100
   0.00006700  0.75018900  0.75000100
   0.50006700  0.75018900  0.75000100
   0.99996700  0.00018300  0.00000300
   0.49996700  0.00018300  0.00000300
   0.99996700  0.50018300  0.00000300
   0.49996700  0.50018300  0.00000300
   0.25003300  0.00018300  0.74999700
   0.75003300  0.00018300  0.74999700
   0.25003300  0.50018300  0.74999700
   0.75003300  0.50018300  0.74999700
   0.24996700  0.25018300  0.50000300
   0.74996700  0.25018300  0.50000300
   0.24996700  0.75018300  0.50000300
   0.74996700  0.75018300  0.50000300
   0.00003300  0.25018300  0.24999700
   0.50003300  0.25018300  0.24999700
   0.00003300  0.75018300  0.24999700
   0.50003300  0.75018300  0.24999700
 
 position of ions in cartesian coordinates  (Angst):
   1.32894166  1.31219587  1.30403719
   6.58686916  1.31219587  1.31321419
   1.32894166  6.57019137  1.30403719
   6.58686916  6.57019137  1.31321419
   3.93352834  3.94119362  1.30783356
   9.19145584  3.94119362  1.31701056
   3.93352834  9.19918912  1.30783356
   9.19145584  9.19918912  1.31701056
   1.33038063  3.92974171  9.11172237
   6.58830813  3.92974171  9.12089937
   1.33038063  9.18773721  9.11172237
   6.58830813  9.18773721  9.12089937
   3.95934437  1.32503590  9.11631087
   9.21727187  1.32503590  9.12548787
   3.95934437  6.58303140  9.11631087
   9.21727187  6.58303140  9.12548787
   1.31364959  1.31219587  6.50863256
   6.57157709  1.31219587  6.51780956
   1.31364959  6.57019137  6.50863256
   6.57157709  6.57019137  6.51780956
   3.96699041  3.94119362  6.51401319
   9.22491791  3.94119362  6.52319019
   3.96699041  9.19918912  6.51401319
   9.22491791  9.19918912  6.52319019
   3.95025937  1.30074396  3.91092337
   9.20818687  1.30074396  3.92010037
   3.95025937  6.55873946  3.91092337
   9.20818687  6.55873946  3.92010037
   1.32129563  3.95403365  3.90633487
   6.57922313  3.95403365  3.91551187
   1.32129563  9.21202915  3.90633487
   6.57922313  9.21202915  3.91551187
  10.52423542  0.00198752  5.22372986
   5.26630792  0.00198752  5.21455286
  10.52423542  5.25998302  5.22372986
   5.26630792  5.25998302  5.21455286
   2.63421083  0.00198752  2.60729389
   7.89213833  0.00198752  2.61647089
   2.63421083  5.25998302  2.60729389
   7.89213833  5.25998302  2.61647089
   2.64642917  2.63098527 10.41535186
   7.90435667  2.63098527 10.42452886
   2.64642917  7.88898077 10.41535186
   7.90435667  7.88898077 10.42452886
   0.01433208  2.63098527  7.80809289
   5.27225958  2.63098527  7.81726989
   0.01433208  7.88898077  7.80809289
   5.27225958  7.88898077  7.81726989
  10.51550803  0.00192443  0.01838463
   5.25758053  0.00192443  0.00920763
  10.51550803  5.25991993  0.01838463
   5.25758053  5.25991993  0.00920763
   2.64293822  0.00192443  7.81263912
   7.90086572  0.00192443  7.82181612
   2.64293822  5.25991993  7.81263912
   7.90086572  5.25991993  7.82181612
   2.63770178  2.63092218  5.21000663
   7.89562928  2.63092218  5.21918363
   2.63770178  7.88891768  5.21000663
   7.89562928  7.88891768  5.21918363
   0.00488947  2.63092218  2.60266312
   5.26281697  2.63092218  2.61184012
   0.00488947  7.88891768  2.60266312
   5.26281697  7.88891768  2.61184012
 


--------------------------------------------------------------------------------------------------------


 k-point  1 :   0.0000 0.0000 0.0000  plane waves:   48431
 k-point  2 :   0.2500 0.0000 0.0000  plane waves:   48407
 k-point  3 :   0.5000 0.0000 0.0000  plane waves:   48450
 k-point  4 :   0.0000 0.2500 0.0000  plane waves:   48425
 k-point  5 :   0.2500 0.2500 0.0000  plane waves:   48418
 k-point  6 :   0.5000 0.2500 0.0000  plane waves:   48456
 k-point  7 :   0.0000 0.5000 0.0000  plane waves:   48434
 k-point  8 :   0.2500 0.5000 0.0000  plane waves:   48434
 k-point  9 :   0.5000 0.5000 0.0000  plane waves:   48428
 k-point 10 :  -0.0000 0.0000 0.2500  plane waves:   48438
 k-point 11 :   0.2500 0.0000 0.2500  plane waves:   48432
 k-point 12 :   0.5000 0.0000 0.2500  plane waves:   48439
 k-point 13 :  -0.2500 0.0000 0.2500  plane waves:   48447
 k-point 14 :  -0.0000 0.2500 0.2500  plane waves:   48437
 k-point 15 :   0.2500 0.2500 0.2500  plane waves:   48415
 k-point 16 :   0.5000 0.2500 0.2500  plane waves:   48407
 k-point 17 :  -0.2500 0.2500 0.2500  plane waves:   48390
 k-point 18 :  -0.0000 0.5000 0.2500  plane waves:   48442
 k-point 19 :   0.2500 0.5000 0.2500  plane waves:   48416
 k-point 20 :   0.5000 0.5000 0.2500  plane waves:   48394
 k-point 21 :  -0.2500 0.5000 0.2500  plane waves:   48406
 k-point 22 :  -0.0000 0.0000 0.5000  plane waves:   48452
 k-point 23 :   0.2500 0.0000 0.5000  plane waves:   48409
 k-point 24 :   0.5000 0.0000 0.5000  plane waves:   48412
 k-point 25 :  -0.0000 0.2500 0.5000  plane waves:   48424
 k-point 26 :   0.2500 0.2500 0.5000  plane waves:   48404
 k-point 27 :   0.5000 0.2500 0.5000  plane waves:   48358
 k-point 28 :  -0.0000 0.5000 0.5000  plane waves:   48416
 k-point 29 :   0.2500 0.5000 0.5000  plane waves:   48350
 k-point 30 :   0.5000 0.5000 0.5000  plane waves:   48400

 maximum and minimum number of plane-waves per node :     48456    48350

 maximum number of plane-waves:     48456
 maximum index in each direction: 
   IXMAX=   22   IYMAX=   22   IZMAX=   22
   IXMIN=  -23   IYMIN=  -23   IZMIN=  -22


 serial   3D FFT for wavefunctions
 parallel 3D FFT for charge:
    minimum data exchange during FFTs selected (reduces bandwidth)


 total amount of memory used by VASP MPI-rank0   881832. kBytes
=======================================================================

   base      :      30000. kBytes
   nonl-proj :     680181. kBytes
   fftplans  :       4588. kBytes
   grid      :      69719. kBytes
   one-center:       1990. kBytes
   wavefun   :      95354. kBytes
 
     INWAV:  cpu time    0.0000: real time    0.0000
 Broyden mixing: mesh for mixing (old mesh)
   NGX = 45   NGY = 45   NGZ = 45
  (NGX  =192   NGY  =192   NGZ  =180)
  gives a total of  91125 points

 initial charge density was supplied:
 charge density of overlapping atoms calculated
 number of electron     688.0000000 magnetization       0.0000000
 keeping initial charge density in first step


--------------------------------------------------------------------------------------------------------


 Maximum index for augmentation-charges          899 (set IRDMAX)


--------------------------------------------------------------------------------------------------------


 First call to EWALD:  gamma=   0.169
 Maximum number of real-space cells 3x 3x 3
 Maximum number of reciprocal cells 3x 3x 3

    FEWALD:  cpu time    0.0029: real time    0.0029


--------------------------------------- Iteration      1(   1)  ---------------------------------------


    POTLOK:  cpu time    0.3580: real time    0.4075
    SETDIJ:  cpu time    0.0149: real time    0.0150
     EDDAV:  cpu time  318.2165: real time  320.7518
 BZINTS: Fermi energy: 16.804606;688.000000 electrons
         Band energy:***********;  BLOECHL correction: -0.007732
       DOS:  cpu time    0.3401: real time    0.3418
    --------------------------------------------
      LOOP:  cpu time  318.9295: real time  321.5161

 eigenvalue-minimisations  : 61440
 total energy-change (2. order) : 0.6202283E+04  (-0.5040010E+05)
 number of electron     688.0000000 magnetization       0.0000000
 augmentation part      688.0000000 magnetization       0.0000000

 Free energy of the ion-electron system (eV)
  ---------------------------------------------------
  alpha Z        PSCENC =      2354.92511462
  Ewald energy   TEWEN  =    -62456.35658704
  -Hartree energ DENC   =    -44328.89189435
  -exchange      EXHF   =         0.00000000
  -V(xc)+E(xc)   XCENC  =      3320.12380164
  PAW double counting   =     94592.23312189   -98164.79192727
  entropy T*S    EENTRO =         0.00000000
  eigenvalues    EBANDS =     -3135.02411073
  atomic energy  EATOM  =    114020.06510763
  Solvation  Ediel_sol  =         0.00000000
  ---------------------------------------------------
  free energy    TOTEN  =      6202.28262637 eV

  energy without entropy =     6202.28262637  energy(sigma->0) =     6202.28262637


--------------------------------------------------------------------------------------------------------




--------------------------------------- Iteration      1(   2)  ---------------------------------------


     EDDAV:  cpu time  358.9739: real time  361.6592
 BZINTS: Fermi energy:  6.533202;688.000000 electrons
         Band energy:***********;  BLOECHL correction:  0.000000
       DOS:  cpu time    0.0466: real time    0.0468
    --------------------------------------------
      LOOP:  cpu time  359.0205: real time  361.7059

 eigenvalue-minimisations  : 65536
 total energy-change (2. order) :-0.6296263E+04  (-0.6165228E+04)
 number of electron     688.0000000 magnetization       0.0000000
 augmentation part      688.0000000 magnetization       0.0000000

 Free energy of the ion-electron system (eV)
  ---------------------------------------------------
  alpha Z        PSCENC =      2354.92511462
  Ewald energy   TEWEN  =    -62456.35658704
  -Hartree energ DENC   =    -44328.89189435
  -exchange      EXHF   =         0.00000000
  -V(xc)+E(xc)   XCENC  =      3320.12380164
  PAW double counting   =     94592.23312189   -98164.79192727
  entropy T*S    EENTRO =         0.00000000
  eigenvalues    EBANDS =     -9431.28712807
  atomic energy  EATOM  =    114020.06510763
  Solvation  Ediel_sol  =         0.00000000
  ---------------------------------------------------
  free energy    TOTEN  =       -93.98039097 eV

  energy without entropy =      -93.98039097  energy(sigma->0) =      -93.98039097


--------------------------------------------------------------------------------------------------------




--------------------------------------- Iteration      1(   3)  ---------------------------------------


     EDDAV:  cpu time  615.0078: real time  619.1761
 BZINTS: Fermi energy:  6.053368;688.000000 electrons
         Band energy:***********;  BLOECHL correction:  0.000000
       DOS:  cpu time    0.0463: real time    0.0465
    --------------------------------------------
      LOOP:  cpu time  615.0541: real time  619.2226

 eigenvalue-minimisations  : 86784
 total energy-change (2. order) :-0.2784153E+03  (-0.2772295E+03)
 number of electron     688.0000000 magnetization       0.0000000
 augmentation part      688.0000000 magnetization       0.0000000

 Free energy of the ion-electron system (eV)
  ---------------------------------------------------
  alpha Z        PSCENC =      2354.92511462
  Ewald energy   TEWEN  =    -62456.35658704
  -Hartree energ DENC   =    -44328.89189435
  -exchange      EXHF   =         0.00000000
  -V(xc)+E(xc)   XCENC  =      3320.12380164
  PAW double counting   =     94592.23312189   -98164.79192727
  entropy T*S    EENTRO =         0.00000000
  eigenvalues    EBANDS =     -9709.70242391
  atomic energy  EATOM  =    114020.06510763
  Solvation  Ediel_sol  =         0.00000000
  ---------------------------------------------------
  free energy    TOTEN  =      -372.39568681 eV

  energy without entropy =     -372.39568681  energy(sigma->0) =     -372.39568681


--------------------------------------------------------------------------------------------------------




--------------------------------------- Iteration      1(   4)  ---------------------------------------


     EDDAV:  cpu time  407.0444: real time  410.0091
 BZINTS: Fermi energy:  6.107217;688.000000 electrons
         Band energy:***********;  BLOECHL correction:  0.000000
       DOS:  cpu time    0.0458: real time    0.0460
    --------------------------------------------
      LOOP:  cpu time  407.0902: real time  410.0551

 eigenvalue-minimisations  : 68864
 total energy-change (2. order) :-0.3941365E+01  (-0.3941079E+01)
 number of electron     688.0000000 magnetization       0.0000000
 augmentation part      688.0000000 magnetization       0.0000000

 Free energy of the ion-electron system (eV)
  ---------------------------------------------------
  alpha Z        PSCENC =      2354.92511462
  Ewald energy   TEWEN  =    -62456.35658704
  -Hartree energ DENC   =    -44328.89189435
  -exchange      EXHF   =         0.00000000
  -V(xc)+E(xc)   XCENC  =      3320.12380164
  PAW double counting   =     94592.23312189   -98164.79192727
  entropy T*S    EENTRO =         0.00000000
  eigenvalues    EBANDS =     -9713.64378845
  atomic energy  EATOM  =    114020.06510763
  Solvation  Ediel_sol  =         0.00000000
  ---------------------------------------------------
  free energy    TOTEN  =      -376.33705135 eV

  energy without entropy =     -376.33705135  energy(sigma->0) =     -376.33705135


--------------------------------------------------------------------------------------------------------




--------------------------------------- Iteration      1(   5)  ---------------------------------------


     EDDAV:  cpu time  603.4843: real time  607.5681
 BZINTS: Fermi energy:  6.062452;688.000000 electrons
         Band energy:***********;  BLOECHL correction:  0.000000
       DOS:  cpu time    0.0458: real time    0.0460
    CHARGE:  cpu time    3.9911: real time    4.0202
    MIXING:  cpu time    0.0066: real time    0.0067
    --------------------------------------------
      LOOP:  cpu time  607.5278: real time  611.6410

 eigenvalue-minimisations  : 85504
 total energy-change (2. order) :-0.1047025E+00  (-0.1047019E+00)
 number of electron     688.0000422 magnetization       0.0000000
 augmentation part      261.0341865 magnetization       0.0000000

 Broyden mixing:
  rms(total) = 0.74968E+01    rms(broyden)= 0.74967E+01
  rms(prec ) = 0.89736E+01
  weight for this iteration     100.00

 Free energy of the ion-electron system (eV)
  ---------------------------------------------------
  alpha Z        PSCENC =      2354.92511462
  Ewald energy   TEWEN  =    -62456.35658704
  -Hartree energ DENC   =    -44328.89189435
  -exchange      EXHF   =         0.00000000
  -V(xc)+E(xc)   XCENC  =      3320.12380164
  PAW double counting   =     94592.23312189   -98164.79192727
  entropy T*S    EENTRO =         0.00000000
  eigenvalues    EBANDS =     -9713.74849091
  atomic energy  EATOM  =    114020.06510763
  Solvation  Ediel_sol  =         0.00000000
  ---------------------------------------------------
  free energy    TOTEN  =      -376.44175381 eV

  energy without entropy =     -376.44175381  energy(sigma->0) =     -376.44175381


--------------------------------------------------------------------------------------------------------




--------------------------------------- Iteration      1(   6)  ---------------------------------------


    POTLOK:  cpu time    0.1544: real time    0.1553
    SETDIJ:  cpu time    0.0135: real time    0.0135
     EDDAV:  cpu time  325.2483: real time  327.7306
 BZINTS: Fermi energy:  4.287924;688.000000 electrons
         Band energy:***********;  BLOECHL correction: -0.000000
       DOS:  cpu time    0.1175: real time    0.1180
    CHARGE:  cpu time    3.9843: real time    4.0123
    MIXING:  cpu time    0.0030: real time    0.1009
    --------------------------------------------
      LOOP:  cpu time  329.5209: real time  332.1307

 eigenvalue-minimisations  : 61440
 total energy-change (2. order) : 0.4156565E+02  (-0.5899336E+02)
 number of electron     688.0000455 magnetization       0.0000000
 augmentation part      296.1531987 magnetization       0.0000000

 Broyden mixing:
  rms(total) = 0.99885E+01    rms(broyden)= 0.99885E+01
  rms(prec ) = 0.10427E+02
  weight for this iteration     100.00

 eigenvalues of (default mixing * dielectric matrix)
  average eigenvalue GAMMA=   0.1669
  0.1669

 Free energy of the ion-electron system (eV)
  ---------------------------------------------------
  alpha Z        PSCENC =      2354.92511462
  Ewald energy   TEWEN  =    -62456.35658704
  -Hartree energ DENC   =    -42373.41723103
  -exchange      EXHF   =         0.00000000
  -V(xc)+E(xc)   XCENC  =      3267.55522416
  PAW double counting   =     96416.64080950   -99775.99489385
  entropy T*S    EENTRO =         0.00000000
  eigenvalues    EBANDS =    -11788.29365249
  atomic energy  EATOM  =    114020.06510763
  Solvation  Ediel_sol  =         0.00000000
  ---------------------------------------------------
  free energy    TOTEN  =      -334.87610850 eV

  energy without entropy =     -334.87610850  energy(sigma->0) =     -334.87610850


--------------------------------------------------------------------------------------------------------




--------------------------------------- Iteration      1(   7)  ---------------------------------------


    POTLOK:  cpu time    0.1560: real time    0.1570
    SETDIJ:  cpu time    0.0131: real time    0.0132
     EDDAV:  cpu time  321.9545: real time  324.4227
 BZINTS: Fermi energy:  4.565216;688.000000 electrons
         Band energy:***********;  BLOECHL correction:  0.000000
       DOS:  cpu time    0.0464: real time    0.0466
    CHARGE:  cpu time    3.9963: real time    4.0245
    MIXING:  cpu time    0.0020: real time    0.0126
    --------------------------------------------
      LOOP:  cpu time  326.1682: real time  328.6766

 eigenvalue-minimisations  : 61440
 total energy-change (2. order) : 0.4978541E+01  (-0.1082785E+02)
 number of electron     688.0000442 magnetization       0.0000000
 augmentation part      286.1196370 magnetization       0.0000000

 Broyden mixing:
  rms(total) = 0.43622E+01    rms(broyden)= 0.43622E+01
  rms(prec ) = 0.44360E+01
  weight for this iteration     100.00

 eigenvalues of (default mixing * dielectric matrix)
  average eigenvalue GAMMA=   0.6169
  0.7613  0.4725

 Free energy of the ion-electron system (eV)
  ---------------------------------------------------
  alpha Z        PSCENC =      2354.92511462
  Ewald energy   TEWEN  =    -62456.35658704
  -Hartree energ DENC   =    -42853.56921573
  -exchange      EXHF   =         0.00000000
  -V(xc)+E(xc)   XCENC  =      3278.97455020
  PAW double counting   =     99827.36765643  -103343.26766789
  entropy T*S    EENTRO =         0.00000000
  eigenvalues    EBANDS =    -11158.03652570
  atomic energy  EATOM  =    114020.06510763
  Solvation  Ediel_sol  =         0.00000000
  ---------------------------------------------------
  free energy    TOTEN  =      -329.89756748 eV

  energy without entropy =     -329.89756748  energy(sigma->0) =     -329.89756748


--------------------------------------------------------------------------------------------------------




--------------------------------------- Iteration      1(   8)  ---------------------------------------


    POTLOK:  cpu time    0.1611: real time    0.1621
    SETDIJ:  cpu time    0.0142: real time    0.0143
     EDDAV:  cpu time  544.5068: real time  548.2474
 BZINTS: Fermi energy:  5.076229;688.000000 electrons
         Band energy:***********;  BLOECHL correction:  0.000000
       DOS:  cpu time    0.0464: real time    0.0466
    CHARGE:  cpu time    3.9827: real time    4.0100
    MIXING:  cpu time    0.0016: real time    0.0016
    --------------------------------------------
      LOOP:  cpu time  548.7128: real time  552.4819

 eigenvalue-minimisations  : 80384
 total energy-change (2. order) : 0.2557583E+00  (-0.3330062E+01)
 number of electron     688.0000440 magnetization       0.0000000
 augmentation part      281.4622556 magnetization       0.0000000

 Broyden mixing:
  rms(total) = 0.31357E+01    rms(broyden)= 0.31357E+01
  rms(prec ) = 0.33701E+01
  weight for this iteration     100.00

 eigenvalues of (default mixing * dielectric matrix)
  average eigenvalue GAMMA=   0.8935
  1.6022  0.6198  0.4584

 Free energy of the ion-electron system (eV)
  ---------------------------------------------------
  alpha Z        PSCENC =      2354.92511462
  Ewald energy   TEWEN  =    -62456.35658704
  -Hartree energ DENC   =    -43111.09690158
  -exchange      EXHF   =         0.00000000
  -V(xc)+E(xc)   XCENC  =      3291.04674476
  PAW double counting   =    105324.90286112  -108940.66070618
  entropy T*S    EENTRO =         0.00000000
  eigenvalues    EBANDS =    -10812.46744249
  atomic energy  EATOM  =    114020.06510763
  Solvation  Ediel_sol  =         0.00000000
  ---------------------------------------------------
  free energy    TOTEN  =      -329.64180917 eV

  energy without entropy =     -329.64180917  energy(sigma->0) =     -329.64180917


--------------------------------------------------------------------------------------------------------




--------------------------------------- Iteration      1(   9)  ---------------------------------------


    POTLOK:  cpu time    0.1533: real time    0.1543
    SETDIJ:  cpu time    0.0132: real time    0.0133
     EDDAV:  cpu time  457.9710: real time  461.3459
 BZINTS: Fermi energy:  4.548746;688.000000 electrons
         Band energy:***********;  BLOECHL correction:  0.000000
       DOS:  cpu time    0.0479: real time    0.0489
    CHARGE:  cpu time    4.0120: real time    4.0410
    MIXING:  cpu time    0.0093: real time    0.0718
    --------------------------------------------
      LOOP:  cpu time  462.2068: real time  465.6754

 eigenvalue-minimisations  : 75264
 total energy-change (2. order) :-0.1934978E+01  (-0.9262689E+01)
 number of electron     688.0000437 magnetization       0.0000000
 augmentation part      282.1084100 magnetization       0.0000000

 Broyden mixing:
  rms(total) = 0.23120E+01    rms(broyden)= 0.23119E+01
  rms(prec ) = 0.27522E+01
  weight for this iteration     100.00

 eigenvalues of (default mixing * dielectric matrix)
  average eigenvalue GAMMA=   0.9819
  2.3973  0.5957  0.5957  0.3390

 Free energy of the ion-electron system (eV)
  ---------------------------------------------------
  alpha Z        PSCENC =      2354.92511462
  Ewald energy   TEWEN  =    -62456.35658704
  -Hartree energ DENC   =    -42898.67609265
  -exchange      EXHF   =         0.00000000
  -V(xc)+E(xc)   XCENC  =      3284.02215655
  PAW double counting   =    109921.54371868  -113575.46175221
  entropy T*S    EENTRO =         0.00000000
  eigenvalues    EBANDS =    -10981.63845317
  atomic energy  EATOM  =    114020.06510763
  Solvation  Ediel_sol  =         0.00000000
  ---------------------------------------------------
  free energy    TOTEN  =      -331.57678760 eV

  energy without entropy =     -331.57678760  energy(sigma->0) =     -331.57678760


--------------------------------------------------------------------------------------------------------




--------------------------------------- Iteration      1(  10)  ---------------------------------------


    POTLOK:  cpu time    0.1569: real time    0.1595
    SETDIJ:  cpu time    0.0145: real time    0.0146
     EDDAV:  cpu time  550.1014: real time  553.8925
 BZINTS: Fermi energy:  4.992506;688.000000 electrons
         Band energy:***********;  BLOECHL correction:  0.000000
       DOS:  cpu time    0.0463: real time    0.0465
    CHARGE:  cpu time    3.9829: real time    4.0137
    MIXING:  cpu time    0.0018: real time    0.0018
    --------------------------------------------
      LOOP:  cpu time  554.3036: real time  558.1285

 eigenvalue-minimisations  : 82432
 total energy-change (2. order) : 0.3578775E+01  (-0.2163497E+01)
 number of electron     688.0000437 magnetization       0.0000000
 augmentation part      282.3849712 magnetization       0.0000000

 Broyden mixing:
  rms(total) = 0.28540E+00    rms(broyden)= 0.28534E+00
  rms(prec ) = 0.30182E+00
  weight for this iteration     100.00

 eigenvalues of (default mixing * dielectric matrix)
  average eigenvalue GAMMA=   0.9176
  2.3648  0.7577  0.5692  0.5692  0.3271

 Free energy of the ion-electron system (eV)
  ---------------------------------------------------
  alpha Z        PSCENC =      2354.92511462
  Ewald energy   TEWEN  =    -62456.35658704
  -Hartree energ DENC   =    -42931.10178369
  -exchange      EXHF   =         0.00000000
  -V(xc)+E(xc)   XCENC  =      3287.38060038
  PAW double counting   =    113304.13528936  -117001.58032441
  entropy T*S    EENTRO =         0.00000000
  eigenvalues    EBANDS =    -10905.46542993
  atomic energy  EATOM  =    114020.06510763
  Solvation  Ediel_sol  =         0.00000000
  ---------------------------------------------------
  free energy    TOTEN  =      -327.99801310 eV

  energy without entropy =     -327.99801310  energy(sigma->0) =     -327.99801310


--------------------------------------------------------------------------------------------------------




--------------------------------------- Iteration      1(  11)  ---------------------------------------


    POTLOK:  cpu time    0.1507: real time    0.1515
    SETDIJ:  cpu time    0.0132: real time    0.0133
     EDDAV:  cpu time  499.6413: real time  503.1330
 BZINTS: Fermi energy:  5.001933;688.000000 electrons
         Band energy:***********;  BLOECHL correction:  0.000000
       DOS:  cpu time    0.0464: real time    0.0466
    CHARGE:  cpu time    3.9841: real time    4.0149
    MIXING:  cpu time    0.0017: real time    0.0017
    --------------------------------------------
      LOOP:  cpu time  503.8374: real time  507.3609

 eigenvalue-minimisations  : 77312
 total energy-change (2. order) :-0.1255806E+00  (-0.1054785E+00)
 number of electron     688.0000436 magnetization       0.0000000
 augmentation part      282.3537646 magnetization       0.0000000

 Broyden mixing:
  rms(total) = 0.35134E+00    rms(broyden)= 0.35132E+00
  rms(prec ) = 0.38701E+00
  weight for this iteration     100.00

 eigenvalues of (default mixing * dielectric matrix)
  average eigenvalue GAMMA=   0.9029
  2.2593  0.7445  0.7445  0.7343  0.5913  0.3437

 Free energy of the ion-electron system (eV)
  ---------------------------------------------------
  alpha Z        PSCENC =      2354.92511462
  Ewald energy   TEWEN  =    -62456.35658704
  -Hartree energ DENC   =    -42947.18614934
  -exchange      EXHF   =         0.00000000
  -V(xc)+E(xc)   XCENC  =      3287.04275569
  PAW double counting   =    113092.62179883  -116790.08917675
  entropy T*S    EENTRO =         0.00000000
  eigenvalues    EBANDS =    -10889.14645738
  atomic energy  EATOM  =    114020.06510763
  Solvation  Ediel_sol  =         0.00000000
  ---------------------------------------------------
  free energy    TOTEN  =      -328.12359374 eV

  energy without entropy =     -328.12359374  energy(sigma->0) =     -328.12359374


--------------------------------------------------------------------------------------------------------




--------------------------------------- Iteration      1(  12)  ---------------------------------------


    POTLOK:  cpu time    0.1499: real time    0.1507
    SETDIJ:  cpu time    0.0129: real time    0.0130
     EDDAV:  cpu time  563.6926: real time  567.5628
 BZINTS: Fermi energy:  4.984366;688.000000 electrons
         Band energy:***********;  BLOECHL correction:  0.000000
       DOS:  cpu time    0.0464: real time    0.0467
    CHARGE:  cpu time    3.9815: real time    4.0112
    MIXING:  cpu time    0.0019: real time    0.0019
    --------------------------------------------
      LOOP:  cpu time  567.8853: real time  571.7863

 eigenvalue-minimisations  : 82944
 total energy-change (2. order) : 0.1232193E-01  (-0.4716756E-01)
 number of electron     688.0000436 magnetization      -0.0000000
 augmentation part      282.2518807 magnetization      -0.0000000

 Broyden mixing:
  rms(total) = 0.13488E+00    rms(broyden)= 0.13488E+00
  rms(prec ) = 0.14884E+00
  weight for this iteration     100.00

 eigenvalues of (default mixing * dielectric matrix)
  average eigenvalue GAMMA=   0.9372
  2.2794  1.0631  1.0631  0.6144  0.6144  0.5824  0.3438

 Free energy of the ion-electron system (eV)
  ---------------------------------------------------
  alpha Z        PSCENC =      2354.92511462
  Ewald energy   TEWEN  =    -62456.35658704
  -Hartree energ DENC   =    -42946.23171646
  -exchange      EXHF   =         0.00000000
  -V(xc)+E(xc)   XCENC  =      3286.57002686
  PAW double counting   =    112702.33596097  -116396.91812256
  entropy T*S    EENTRO =         0.00000000
  eigenvalues    EBANDS =    -10892.50105581
  atomic energy  EATOM  =    114020.06510763
  Solvation  Ediel_sol  =         0.00000000
  ---------------------------------------------------
  free energy    TOTEN  =      -328.11127181 eV

  energy without entropy =     -328.11127181  energy(sigma->0) =     -328.11127181


--------------------------------------------------------------------------------------------------------




--------------------------------------- Iteration      1(  13)  ---------------------------------------


    POTLOK:  cpu time    0.1501: real time    0.1510
    SETDIJ:  cpu time    0.0134: real time    0.0135
     EDDAV:  cpu time  471.3973: real time  474.7276
 BZINTS: Fermi energy:  4.987935;688.000000 electrons
         Band energy:***********;  BLOECHL correction:  0.000000
       DOS:  cpu time    0.0465: real time    0.0467
    CHARGE:  cpu time    3.9894: real time    4.0177
    MIXING:  cpu time    0.0020: real time    0.0020
    --------------------------------------------
      LOOP:  cpu time  475.5987: real time  478.9585

 eigenvalue-minimisations  : 74752
 total energy-change (2. order) :-0.4543130E-02  (-0.5070888E-02)
 number of electron     688.0000436 magnetization      -0.0000000
 augmentation part      282.2525533 magnetization      -0.0000000

 Broyden mixing:
  rms(total) = 0.94541E-01    rms(broyden)= 0.94539E-01
  rms(prec ) = 0.96000E-01
  weight for this iteration     100.00

 eigenvalues of (default mixing * dielectric matrix)
  average eigenvalue GAMMA=   1.1243
  2.5390  2.5390  0.3439  0.8438  0.8438  0.6483  0.6483  0.5883

 Free energy of the ion-electron system (eV)
  ---------------------------------------------------
  alpha Z        PSCENC =      2354.92511462
  Ewald energy   TEWEN  =    -62456.35658704
  -Hartree energ DENC   =    -42952.86471202
  -exchange      EXHF   =         0.00000000
  -V(xc)+E(xc)   XCENC  =      3286.64171779
  PAW double counting   =    112445.90964089  -116140.39282735
  entropy T*S    EENTRO =         0.00000000
  eigenvalues    EBANDS =    -10886.04326944
  atomic energy  EATOM  =    114020.06510763
  Solvation  Ediel_sol  =         0.00000000
  ---------------------------------------------------
  free energy    TOTEN  =      -328.11581494 eV

  energy without entropy =     -328.11581494  energy(sigma->0) =     -328.11581494


--------------------------------------------------------------------------------------------------------




--------------------------------------- Iteration      1(  14)  ---------------------------------------


    POTLOK:  cpu time    0.1537: real time    0.1544
    SETDIJ:  cpu time    0.0131: real time    0.0132
     EDDAV:  cpu time  643.9415: real time  648.2373
 BZINTS: Fermi energy:  4.990369;688.000000 electrons
         Band energy:***********;  BLOECHL correction:  0.000000
       DOS:  cpu time    0.0466: real time    0.0468
    CHARGE:  cpu time    3.9820: real time    4.0111
    MIXING:  cpu time    0.0023: real time    0.0024
    --------------------------------------------
      LOOP:  cpu time  648.1392: real time  652.4651

 eigenvalue-minimisations  : 88832
 total energy-change (2. order) :-0.9404154E-02  (-0.4656994E-02)
 number of electron     688.0000436 magnetization      -0.0000000
 augmentation part      282.2118589 magnetization      -0.0000000

 Broyden mixing:
  rms(total) = 0.39127E-01    rms(broyden)= 0.39121E-01
  rms(prec ) = 0.43765E-01
  weight for this iteration     100.00

 eigenvalues of (default mixing * dielectric matrix)
  average eigenvalue GAMMA=   1.0509
  2.3520  2.3520  0.9409  0.9409  0.3439  0.6398  0.6398  0.5728  0.6757

 Free energy of the ion-electron system (eV)
  ---------------------------------------------------
  alpha Z        PSCENC =      2354.92511462
  Ewald energy   TEWEN  =    -62456.35658704
  -Hartree energ DENC   =    -42961.02563539
  -exchange      EXHF   =         0.00000000
  -V(xc)+E(xc)   XCENC  =      3286.44732139
  PAW double counting   =    112154.96686098  -115849.07059089
  entropy T*S    EENTRO =         0.00000000
  eigenvalues    EBANDS =    -10878.07681038
  atomic energy  EATOM  =    114020.06510763
  Solvation  Ediel_sol  =         0.00000000
  ---------------------------------------------------
  free energy    TOTEN  =      -328.12521909 eV

  energy without entropy =     -328.12521909  energy(sigma->0) =     -328.12521909


--------------------------------------------------------------------------------------------------------




--------------------------------------- Iteration      1(  15)  ---------------------------------------


    POTLOK:  cpu time    0.1488: real time    0.1497
    SETDIJ:  cpu time    0.0133: real time    0.0134
     EDDAV:  cpu time  391.5654: real time  394.4129
[...]
   -.422E+02 0.122E+01 -.104E+00   0.430E+02 -.123E+01 0.105E+00   -.862E+00 0.804E-02 -.129E-02   -.420E-04 -.432E-06 -.174E-06
   -.422E+02 0.122E+01 -.104E+00   0.430E+02 -.123E+01 0.105E+00   -.862E+00 0.804E-02 -.129E-02   -.420E-04 -.432E-06 -.174E-06
   -.422E+02 0.122E+01 -.104E+00   0.430E+02 -.123E+01 0.105E+00   -.862E+00 0.804E-02 -.129E-02   -.420E-04 -.432E-06 -.174E-06
   -.422E+02 0.122E+01 -.104E+00   0.430E+02 -.123E+01 0.105E+00   -.862E+00 0.804E-02 -.129E-02   -.420E-04 -.432E-06 -.174E-06
   0.422E+02 0.122E+01 0.104E+00   -.430E+02 -.123E+01 -.105E+00   0.862E+00 0.804E-02 0.129E-02   0.420E-04 -.432E-06 0.174E-06
   0.422E+02 0.122E+01 0.104E+00   -.430E+02 -.123E+01 -.105E+00   0.862E+00 0.804E-02 0.129E-02   0.420E-04 -.432E-06 0.174E-06
   0.422E+02 0.122E+01 0.104E+00   -.430E+02 -.123E+01 -.105E+00   0.862E+00 0.804E-02 0.129E-02   0.420E-04 -.432E-06 0.174E-06
   0.422E+02 0.122E+01 0.104E+00   -.430E+02 -.123E+01 -.105E+00   0.862E+00 0.804E-02 0.129E-02   0.420E-04 -.432E-06 0.174E-06
   0.462E-07 -.412E+02 0.230E-06   0.320E-13 0.421E+02 0.462E-13   -.699E-18 -.855E+00 -.163E-18   -.883E-13 -.413E-04 -.619E-12
   0.462E-07 -.412E+02 0.230E-06   0.178E-13 0.421E+02 -.160E-13   0.178E-17 -.855E+00 0.163E-18   0.999E-13 -.413E-04 -.682E-12
   0.462E-07 -.412E+02 0.230E-06   0.568E-13 0.421E+02 0.142E-13   0.114E-17 -.855E+00 -.434E-18   -.473E-13 -.413E-04 -.632E-12
   0.462E-07 -.412E+02 0.230E-06   0.568E-13 0.421E+02 0.711E-14   -.251E-17 -.855E+00 -.271E-18   0.342E-13 -.413E-04 -.652E-12
   0.333E-07 0.431E+02 -.215E-06   0.231E-13 -.440E+02 -.711E-14   0.124E-17 0.870E+00 -.434E-18   -.564E-13 0.426E-04 -.733E-12
   0.333E-07 0.431E+02 -.215E-06   0.711E-14 -.440E+02 -.142E-13   -.162E-17 0.870E+00 -.282E-17   -.404E-13 0.426E-04 -.681E-12
   0.333E-07 0.431E+02 -.215E-06   0.426E-13 -.440E+02 -.213E-13   -.139E-17 0.870E+00 -.867E-18   0.101E-13 0.426E-04 -.720E-12
   0.333E-07 0.431E+02 -.215E-06   -.568E-13 -.440E+02 -.853E-13   -.180E-17 0.870E+00 0.651E-18   -.610E-13 0.426E-04 -.663E-12
   0.256E+00 -.115E+01 0.894E-02   -.253E+00 0.111E+01 -.909E-02   -.352E-02 0.465E-01 0.121E-03   -.337E-05 0.870E-06 -.272E-07
   0.256E+00 -.115E+01 0.894E-02   -.253E+00 0.111E+01 -.909E-02   -.352E-02 0.465E-01 0.121E-03   -.337E-05 0.870E-06 -.272E-07
   0.256E+00 -.115E+01 0.894E-02   -.253E+00 0.111E+01 -.909E-02   -.352E-02 0.465E-01 0.121E-03   -.337E-05 0.870E-06 -.272E-07
   0.256E+00 -.115E+01 0.894E-02   -.253E+00 0.111E+01 -.909E-02   -.352E-02 0.465E-01 0.121E-03   -.337E-05 0.870E-06 -.272E-07
   -.256E+00 -.115E+01 -.893E-02   0.253E+00 0.111E+01 0.909E-02   0.352E-02 0.465E-01 -.121E-03   0.337E-05 0.870E-06 0.272E-07
   -.256E+00 -.115E+01 -.893E-02   0.253E+00 0.111E+01 0.909E-02   0.352E-02 0.465E-01 -.121E-03   0.337E-05 0.870E-06 0.272E-07
   -.256E+00 -.115E+01 -.893E-02   0.253E+00 0.111E+01 0.909E-02   0.352E-02 0.465E-01 -.121E-03   0.337E-05 0.870E-06 0.272E-07
   -.256E+00 -.115E+01 -.893E-02   0.253E+00 0.111E+01 0.909E-02   0.352E-02 0.465E-01 -.121E-03   0.337E-05 0.870E-06 0.272E-07
   0.256E+00 -.115E+01 0.894E-02   -.253E+00 0.111E+01 -.909E-02   -.352E-02 0.465E-01 0.121E-03   -.337E-05 0.870E-06 -.272E-07
   0.256E+00 -.115E+01 0.894E-02   -.253E+00 0.111E+01 -.909E-02   -.352E-02 0.465E-01 0.121E-03   -.337E-05 0.870E-06 -.272E-07
   0.256E+00 -.115E+01 0.894E-02   -.253E+00 0.111E+01 -.909E-02   -.352E-02 0.465E-01 0.121E-03   -.337E-05 0.870E-06 -.272E-07
   0.256E+00 -.115E+01 0.894E-02   -.253E+00 0.111E+01 -.909E-02   -.352E-02 0.465E-01 0.121E-03   -.337E-05 0.870E-06 -.272E-07
   -.256E+00 -.115E+01 -.893E-02   0.253E+00 0.111E+01 0.909E-02   0.352E-02 0.465E-01 -.121E-03   0.337E-05 0.870E-06 0.272E-07
   -.256E+00 -.115E+01 -.893E-02   0.253E+00 0.111E+01 0.909E-02   0.352E-02 0.465E-01 -.121E-03   0.337E-05 0.870E-06 0.272E-07
   -.256E+00 -.115E+01 -.893E-02   0.253E+00 0.111E+01 0.909E-02   0.352E-02 0.465E-01 -.121E-03   0.337E-05 0.870E-06 0.272E-07
   -.256E+00 -.115E+01 -.893E-02   0.253E+00 0.111E+01 0.909E-02   0.352E-02 0.465E-01 -.121E-03   0.337E-05 0.870E-06 0.272E-07
   -.294E+00 -.113E+01 0.887E-02   0.288E+00 0.106E+01 -.921E-02   0.623E-02 0.617E-01 0.262E-03   0.405E-05 -.997E-05 0.654E-07
   -.294E+00 -.113E+01 0.887E-02   0.288E+00 0.106E+01 -.921E-02   0.623E-02 0.617E-01 0.262E-03   0.405E-05 -.997E-05 0.654E-07
   -.294E+00 -.113E+01 0.887E-02   0.288E+00 0.106E+01 -.921E-02   0.623E-02 0.617E-01 0.262E-03   0.405E-05 -.997E-05 0.654E-07
   -.294E+00 -.113E+01 0.887E-02   0.288E+00 0.106E+01 -.921E-02   0.623E-02 0.617E-01 0.262E-03   0.405E-05 -.997E-05 0.654E-07
   0.294E+00 -.113E+01 -.886E-02   -.288E+00 0.106E+01 0.921E-02   -.623E-02 0.617E-01 -.262E-03   -.405E-05 -.997E-05 -.654E-07
   0.294E+00 -.113E+01 -.886E-02   -.288E+00 0.106E+01 0.921E-02   -.623E-02 0.617E-01 -.262E-03   -.405E-05 -.997E-05 -.654E-07
   0.294E+00 -.113E+01 -.886E-02   -.288E+00 0.106E+01 0.921E-02   -.623E-02 0.617E-01 -.262E-03   -.405E-05 -.997E-05 -.654E-07
   0.294E+00 -.113E+01 -.886E-02   -.288E+00 0.106E+01 0.921E-02   -.623E-02 0.617E-01 -.262E-03   -.405E-05 -.997E-05 -.654E-07
   -.294E+00 -.113E+01 0.887E-02   0.288E+00 0.106E+01 -.921E-02   0.623E-02 0.617E-01 0.262E-03   0.405E-05 -.997E-05 0.654E-07
   -.294E+00 -.113E+01 0.887E-02   0.288E+00 0.106E+01 -.921E-02   0.623E-02 0.617E-01 0.262E-03   0.405E-05 -.997E-05 0.654E-07
   -.294E+00 -.113E+01 0.887E-02   0.288E+00 0.106E+01 -.921E-02   0.623E-02 0.617E-01 0.262E-03   0.405E-05 -.997E-05 0.654E-07
   -.294E+00 -.113E+01 0.887E-02   0.288E+00 0.106E+01 -.921E-02   0.623E-02 0.617E-01 0.262E-03   0.405E-05 -.997E-05 0.654E-07
   0.294E+00 -.113E+01 -.886E-02   -.288E+00 0.106E+01 0.921E-02   -.623E-02 0.617E-01 -.262E-03   -.405E-05 -.997E-05 -.654E-07
   0.294E+00 -.113E+01 -.886E-02   -.288E+00 0.106E+01 0.921E-02   -.623E-02 0.617E-01 -.262E-03   -.405E-05 -.997E-05 -.654E-07
   0.294E+00 -.113E+01 -.886E-02   -.288E+00 0.106E+01 0.921E-02   -.623E-02 0.617E-01 -.262E-03   -.405E-05 -.997E-05 -.654E-07
   0.294E+00 -.113E+01 -.886E-02   -.288E+00 0.106E+01 0.921E-02   -.623E-02 0.617E-01 -.262E-03   -.405E-05 -.997E-05 -.654E-07
 -----------------------------------------------------------------------------------------------
   0.575E-06 -.198E+01 0.744E-04   -.359E-12 -.503E-12 -.580E-13   0.104E-15 0.198E+01 -.107E-16   -.327E-11 -.142E-03 -.422E-12
 
 
 POSITION                                       TOTAL-FORCE (eV/Angst)
 -----------------------------------------------------------------------------------
      1.32894      1.31220      1.30404        -0.000037      0.000011      0.000045
      6.58687      1.31220      1.31321        -0.000037      0.000011      0.000045
      1.32894      6.57019      1.30404        -0.000037      0.000011      0.000045
      6.58687      6.57019      1.31321        -0.000037      0.000011      0.000045
      3.93353      3.94119      1.30783         0.000037      0.000011     -0.000045
      9.19146      3.94119      1.31701         0.000037      0.000011     -0.000045
      3.93353      9.19919      1.30783         0.000037      0.000011     -0.000045
      9.19146      9.19919      1.31701         0.000037      0.000011     -0.000045
      1.33038      3.92974      9.11172        -0.000000     -0.000165     -0.000000
      6.58831      3.92974      9.12090        -0.000000     -0.000165     -0.000000
      1.33038      9.18774      9.11172        -0.000000     -0.000165     -0.000000
      6.58831      9.18774      9.12090        -0.000000     -0.000165     -0.000000
      3.95934      1.32504      9.11631        -0.000000      0.000019     -0.000000
      9.21727      1.32504      9.12549        -0.000000      0.000019     -0.000000
      3.95934      6.58303      9.11631        -0.000000      0.000019     -0.000000
      9.21727      6.58303      9.12549        -0.000000      0.000019     -0.000000
      1.31365      1.31220      6.50863         0.000037      0.000011     -0.000045
      6.57158      1.31220      6.51781         0.000037      0.000011     -0.000045
      1.31365      6.57019      6.50863         0.000037      0.000011     -0.000045
      6.57158      6.57019      6.51781         0.000037      0.000011     -0.000045
      3.96699      3.94119      6.51401        -0.000037      0.000011      0.000045
      9.22492      3.94119      6.52319        -0.000037      0.000011      0.000045
      3.96699      9.19919      6.51401        -0.000037      0.000011      0.000045
      9.22492      9.19919      6.52319        -0.000037      0.000011      0.000045
      3.95026      1.30074      3.91092        -0.000000     -0.000165     -0.000000
      9.20819      1.30074      3.92010        -0.000000     -0.000165     -0.000000
      3.95026      6.55874      3.91092        -0.000000     -0.000165     -0.000000
      9.20819      6.55874      3.92010        -0.000000     -0.000165     -0.000000
      1.32130      3.95403      3.90633        -0.000000      0.000019     -0.000000
      6.57922      3.95403      3.91551        -0.000000      0.000019     -0.000000
      1.32130      9.21203      3.90633        -0.000000      0.000019     -0.000000
      6.57922      9.21203      3.91551        -0.000000      0.000019     -0.000000
     10.52424      0.00199      5.22373        -0.000165      0.000045     -0.000036
      5.26631      0.00199      5.21455        -0.000165      0.000045     -0.000036
     10.52424      5.25998      5.22373        -0.000165      0.000045     -0.000036
      5.26631      5.25998      5.21455        -0.000165      0.000045     -0.000036
      2.63421      0.00199      2.60729         0.000165      0.000045      0.000036
      7.89214      0.00199      2.61647         0.000165      0.000045      0.000036
      2.63421      5.25998      2.60729         0.000165      0.000045      0.000036
      7.89214      5.25998      2.61647         0.000165      0.000045      0.000036
      2.64643      2.63099     10.41535        -0.000165      0.000045     -0.000036
      7.90436      2.63099     10.42453        -0.000165      0.000045     -0.000036
      2.64643      7.88898     10.41535        -0.000165      0.000045     -0.000036
      7.90436      7.88898     10.42453        -0.000165      0.000045     -0.000036
      0.01433      2.63099      7.80809         0.000165      0.000045      0.000036
      5.27226      2.63099      7.81727         0.000165      0.000045      0.000036
      0.01433      7.88898      7.80809         0.000165      0.000045      0.000036
      5.27226      7.88898      7.81727         0.000165      0.000045      0.000036
     10.51551      0.00192      0.01838        -0.000054      0.000017     -0.000082
      5.25758      0.00192      0.00921        -0.000054      0.000017     -0.000082
     10.51551      5.25992      0.01838        -0.000054      0.000017     -0.000082
      5.25758      5.25992      0.00921        -0.000054      0.000017     -0.000082
      2.64294      0.00192      7.81264         0.000054      0.000017      0.000082
      7.90087      0.00192      7.82182         0.000054      0.000017      0.000082
      2.64294      5.25992      7.81264         0.000054      0.000017      0.000082
      7.90087      5.25992      7.82182         0.000054      0.000017      0.000082
      2.63770      2.63092      5.21001        -0.000054      0.000017     -0.000082
      7.89563      2.63092      5.21918        -0.000054      0.000017     -0.000082
      2.63770      7.88892      5.21001        -0.000054      0.000017     -0.000082
      7.89563      7.88892      5.21918        -0.000054      0.000017     -0.000082
      0.00489      2.63092      2.60266         0.000054      0.000017      0.000082
      5.26282      2.63092      2.61184         0.000054      0.000017      0.000082
      0.00489      7.88892      2.60266         0.000054      0.000017      0.000082
      5.26282      7.88892      2.61184         0.000054      0.000017      0.000082
 -----------------------------------------------------------------------------------
    total drift:                                0.000001     -0.002062      0.000074


--------------------------------------------------------------------------------------------------------



  FREE ENERGIE OF THE ION-ELECTRON SYSTEM (eV)
  ---------------------------------------------------
  free  energy   TOTEN  =      -328.12531539 eV

  energy  without entropy=     -328.12531539  energy(sigma->0) =     -328.12531539
 


--------------------------------------------------------------------------------------------------------


    POTLOK:  cpu time    0.1673: real time    0.1681


--------------------------------------------------------------------------------------------------------


 writing wavefunctions
     LOOP+:  cpu time13837.0369: real time13944.2058
    4ORBIT:  cpu time    0.0001: real time    0.0008
 


 total charge     
 
# of ion       s       p       d       tot
------------------------------------------
    1        1.313   2.410   0.000   3.724
    2        1.313   2.410   0.000   3.724
    3        1.313   2.410   0.000   3.724
    4        1.313   2.410   0.000   3.724
    5        1.313   2.410   0.000   3.724
    6        1.313   2.410   0.000   3.724
    7        1.313   2.410   0.000   3.724
    8        1.313   2.410   0.000   3.724
    9        1.313   2.410   0.000   3.724
   10        1.313   2.410   0.000   3.724
   11        1.313   2.410   0.000   3.724
   12        1.313   2.410   0.000   3.724
   13        1.313   2.410   0.000   3.724
   14        1.313   2.410   0.000   3.724
   15        1.313   2.410   0.000   3.724
   16        1.313   2.410   0.000   3.724
   17        1.313   2.410   0.000   3.724
   18        1.313   2.410   0.000   3.724
   19        1.313   2.410   0.000   3.724
   20        1.313   2.410   0.000   3.724
   21        1.313   2.410   0.000   3.724
   22        1.313   2.410   0.000   3.724
   23        1.313   2.410   0.000   3.724
   24        1.313   2.410   0.000   3.724
   25        1.313   2.410   0.000   3.724
   26        1.313   2.410   0.000   3.724
   27        1.313   2.410   0.000   3.724
   28        1.313   2.410   0.000   3.724
   29        1.313   2.410   0.000   3.724
   30        1.313   2.410   0.000   3.724
   31        1.313   2.410   0.000   3.724
   32        1.313   2.410   0.000   3.724
   33        0.260   6.202   8.917  15.378
   34        0.260   6.202   8.917  15.378
   35        0.260   6.202   8.917  15.378
   36        0.260   6.202   8.917  15.378
   37        0.260   6.202   8.917  15.378
   38        0.260   6.202   8.917  15.378
   39        0.260   6.202   8.917  15.378
   40        0.260   6.202   8.917  15.378
   41        0.260   6.202   8.917  15.378
   42        0.260   6.202   8.917  15.378
   43        0.260   6.202   8.917  15.378
   44        0.260   6.202   8.917  15.378
   45        0.260   6.202   8.917  15.378
   46        0.260   6.202   8.917  15.378
   47        0.260   6.202   8.917  15.378
   48        0.260   6.202   8.917  15.378
   49        0.350   6.351   5.820  12.521
   50        0.350   6.351   5.820  12.521
   51        0.350   6.351   5.820  12.521
   52        0.350   6.351   5.820  12.521
   53        0.350   6.351   5.820  12.521
   54        0.350   6.351   5.820  12.521
   55        0.350   6.351   5.820  12.521
   56        0.350   6.351   5.820  12.521
   57        0.350   6.351   5.820  12.521
   58        0.350   6.351   5.820  12.521
   59        0.350   6.351   5.820  12.521
   60        0.350   6.351   5.820  12.521
   61        0.350   6.351   5.820  12.521
   62        0.350   6.351   5.820  12.521
   63        0.350   6.351   5.820  12.521
   64        0.350   6.351   5.820  12.521
--------------------------------------------------
tot         51.790 277.975 235.777 565.542
 


 magnetization (x)
 
# of ion       s       p       d       tot
------------------------------------------
    1        0.000  -0.001   0.000  -0.001
    2        0.000  -0.001   0.000  -0.001
    3        0.000  -0.001   0.000  -0.001
    4        0.000  -0.001   0.000  -0.001
    5        0.000   0.001   0.000   0.001
    6        0.000   0.001   0.000   0.001
    7        0.000   0.001   0.000   0.001
    8        0.000   0.001   0.000   0.001
    9       -0.000   0.000   0.000   0.000
   10       -0.000   0.000   0.000   0.000
   11       -0.000   0.000   0.000   0.000
   12       -0.000   0.000   0.000   0.000
   13       -0.000   0.000   0.000   0.000
   14       -0.000   0.000   0.000   0.000
   15       -0.000   0.000   0.000   0.000
   16       -0.000   0.000   0.000   0.000
   17        0.000   0.001   0.000   0.001
   18        0.000   0.001   0.000   0.001
   19        0.000   0.001   0.000   0.001
   20        0.000   0.001   0.000   0.001
   21        0.000  -0.001   0.000  -0.001
   22        0.000  -0.001   0.000  -0.001
   23        0.000  -0.001   0.000  -0.001
   24        0.000  -0.001   0.000  -0.001
   25       -0.000   0.000   0.000   0.000
   26       -0.000   0.000   0.000   0.000
   27       -0.000   0.000   0.000   0.000
   28       -0.000   0.000   0.000   0.000
   29       -0.000   0.000   0.000   0.000
   30       -0.000   0.000   0.000   0.000
   31       -0.000   0.000   0.000   0.000
   32       -0.000   0.000   0.000   0.000
   33        0.000   0.000  -0.001   0.000
   34        0.000   0.000  -0.001   0.000
   35        0.000   0.000  -0.001   0.000
   36        0.000   0.000  -0.001   0.000
   37       -0.000  -0.000   0.001  -0.000
   38       -0.000  -0.000   0.001  -0.000
   39       -0.000  -0.000   0.001  -0.000
   40       -0.000  -0.000   0.001  -0.000
   41        0.000   0.000  -0.001   0.000
   42        0.000   0.000  -0.001   0.000
   43        0.000   0.000  -0.001   0.000
   44        0.000   0.000  -0.001   0.000
   45       -0.000  -0.000   0.001  -0.000
   46       -0.000  -0.000   0.001  -0.000
   47       -0.000  -0.000   0.001  -0.000
   48       -0.000  -0.000   0.001  -0.000
   49        0.020   0.054   3.671   3.745
   50        0.020   0.054   3.671   3.745
   51        0.020   0.054   3.671   3.745
   52        0.020   0.054   3.671   3.745
   53       -0.020  -0.054  -3.671  -3.745
   54       -0.020  -0.054  -3.671  -3.745
   55       -0.020  -0.054  -3.671  -3.745
   56       -0.020  -0.054  -3.671  -3.745
   57        0.020   0.054   3.671   3.745
   58        0.020   0.054   3.671   3.745
   59        0.020   0.054   3.671   3.745
   60        0.020   0.054   3.671   3.745
   61       -0.020  -0.054  -3.671  -3.745
   62       -0.020  -0.054  -3.671  -3.745
   63       -0.020  -0.054  -3.671  -3.745
   64       -0.020  -0.054  -3.671  -3.745
--------------------------------------------------
tot         -0.000   0.000   0.000   0.000
 
 BZINTS: Fermi energy:  4.989136;688.000000 electrons
         Band energy:***********;  BLOECHL correction:  0.000000

 total amount of memory used by VASP MPI-rank0   881832. kBytes
=======================================================================

   base      :      30000. kBytes
   nonl-proj :     680181. kBytes
   fftplans  :       4588. kBytes
   grid      :      69719. kBytes
   one-center:       1990. kBytes
   wavefun   :      95354. kBytes
 
  
  
 General timing and accounting informations for this job:
 ========================================================
  
                  Total CPU time used (sec):    13988.286
                            User time (sec):    13962.969
                          System time (sec):       25.317
                         Elapsed time (sec):    14100.375
  
                   Maximum memory used (kb):     1505688.
                   Average memory used (kb):           0.
  
                          Minor page faults:       762025
                          Major page faults:        37227
                 Voluntary context switches:        46540
