       N       E                     dE             d eps       ncg     rms          rms(c)
DAV:   1     0.605800474986E+04    0.60580E+04   -0.51589E+05 12288   0.196E+03
DAV:   2    -0.831753034865E+02   -0.61412E+04   -0.60315E+04 14080   0.445E+02
DAV:   3    -0.324592365019E+03   -0.24142E+03   -0.24066E+03 16640   0.960E+01
DAV:   4    -0.327941395387E+03   -0.33490E+01   -0.33489E+01 15104   0.114E+01
DAV:   5    -0.328045387056E+03   -0.10399E+00   -0.10399E+00 15872   0.196E+00    0.254E-01
DAV:   6    -0.328050574131E+03   -0.51871E-02   -0.52055E-02 16640   0.435E-01    0.996E-02
DAV:   7    -0.328050844228E+03   -0.27010E-03   -0.30799E-03 16384   0.128E-01    0.864E-02
DAV:   8    -0.328050854965E+03   -0.10738E-04   -0.26122E-04 15616   0.428E-02    0.751E-02
DAV:   9    -0.328050854695E+03    0.27061E-06   -0.15673E-05 16128   0.101E-02    0.677E-02
DAV:  10    -0.328050854464E+03    0.23062E-06   -0.76312E-07 17408   0.171E-03    0.582E-02
DAV:  11    -0.328050853553E+03    0.91079E-06   -0.10045E-06 15616   0.298E-03    0.281E-02
DAV:  12    -0.328050852975E+03    0.57829E-06   -0.10313E-06 18176   0.274E-03    0.202E-03
DAV:  13    -0.328050852943E+03    0.31869E-07   -0.74552E-08 14848   0.442E-04    0.131E-03
DAV:  14    -0.328050852934E+03    0.90222E-08   -0.55185E-08 12032   0.263E-04
   1 F= -.32805085E+03 E0= -.32805085E+03  d E =0.000000E+00  mag=     0.0000
