 vasp.5.4.4.18Apr17-6-g9f103f2a35 (build Oct 30 2023 17:49:44) complex          
  
 executed on             LinuxIFC date 2024.12.05  06:19:14
 running on  256 total cores
 distrk:  each k-point on  256 cores,    1 groups
 distr:  one band on NCORES_PER_BAND=   1 cores,  256 groups


--------------------------------------------------------------------------------------------------------


 INCAR:
 POTCAR:    PAW_PBE S 06Sep2000                   
 POTCAR:     PAW_PBE Cu_pv 06Sep2000              
 POTCAR:     PAW_PBE Fe_pv 02Aug2007              

 ----------------------------------------------------------------------------- 
|                                                                             |
|           W    W    AA    RRRRR   N    N  II  N    N   GGGG   !!!           |
|           W    W   A  A   R    R  NN   N  II  NN   N  G    G  !!!           |
|           W    W  A    A  R    R  N N  N  II  N N  N  G       !!!           |
|           W WW W  AAAAAA  RRRRR   N  N N  II  N  N N  G  GGG   !            |
|           WW  WW  A    A  R   R   N   NN  II  N   NN  G    G                |
|           W    W  A    A  R    R  N    N  II  N    N   GGGG   !!!           |
|                                                                             |
|      For optimal performance we recommend to set                            |
|        NCORE= 4 - approx SQRT( number of cores)                             |
|      NCORE specifies how many cores store one orbital (NPAR=cpu/NCORE).     |
|      This setting can  greatly improve the performance of VASP for DFT.     |
|      The default,   NCORE=1            might be grossly inefficient         |
|      on modern multi-core architectures or massively parallel machines.     |
|      Do your own testing !!!!                                               |
|      Unfortunately you need to use the default for GW and RPA calculations. |
|      (for HF NCORE is supported but not extensively tested yet)             |
|                                                                             |
 ----------------------------------------------------------------------------- 

 POTCAR:    PAW_PBE S 06Sep2000                   
   SHA256 =  0fc7481fb0695f01bdc6462160264c5c84044ae9ec85a907d398b887a2bc3132 S/
   COPYR  = (c) Copyright 06Sep2000 Georg Kresse                                
   COPYR  = This file is part of the software VASP. Any use, copying, and all ot
   COPYR  = If you do not have a valid VASP license, you may not use, copy or di
   VRHFIN =S : s2p4                                                             
   LEXCH  = PE                                                                  
   EATOM  =   276.8230 eV,   20.3459 Ry                                         
                                                                                
   TITEL  = PAW_PBE S 06Sep2000                                                 
   LULTRA =        F    use ultrasoft PP ?                                      
   IUNSCR =        1    unscreen: 0-lin 1-nonlin 2-no                           
   RPACOR =    1.500    partial core radius                                     
   POMASS =   32.066; ZVAL   =    6.000    mass and valenz                      
   RCORE  =    1.900    outmost cutoff radius                                   
   RWIGS  =    2.200; RWIGS  =    1.164    wigner-seitz radius (au A)           
   ENMAX  =  258.689; ENMIN  =  194.016 eV                                      
   ICORE  =        2    local potential                                         
   LCOR   =        T    correct aug charges                                     
   LPAW   =        T    paw PP                                                  
   EAUG   =  335.092                                                            
   DEXC   =    0.000                                                            
   RMAX   =    1.942    core radius for proj-oper                               
   RAUG   =    1.300    factor for augmentation sphere                          
   RDEP   =    1.954    radius for radial grids                                 
   RDEPT  =    1.744    core radius for aug-charge                              
                                                                                
   Atomic configuration                                                         
    6 entries                                                                   
     n  l   j            E        occ.                                          
     1  0  0.50     -2405.8406   2.0000                                         
     2  0  0.50      -211.7007   2.0000                                         
     2  1  1.50      -156.4958   6.0000                                         
     3  0  0.50       -17.2562   2.0000                                         
     3  1  0.50        -7.0085   4.0000                                         
     3  2  1.50        -6.8029   0.0000                                         
   Description                                                                  
     l       E           TYP  RCUT    TYP  RCUT                                 
     0    -17.2561641     23  1.900                                             
     0    -15.8743224     23  1.900                                             
     1     -7.0085400     23  1.900                                             
     1     -2.7779785     23  1.900                                             
     2     -6.8029130     23  1.900                                             
  local pseudopotential read in
  partial core-charges read in
  partial kinetic energy density read in
  atomic valenz-charges read in
  non local Contribution for L=           0  read in
    real space projection operators read in
  non local Contribution for L=           0  read in
    real space projection operators read in
  non local Contribution for L=           1  read in
    real space projection operators read in
  non local Contribution for L=           1  read in
    real space projection operators read in
    PAW grid and wavefunctions read in
 
   number of l-projection  operators is LMAX  =           4
   number of lm-projection operators is LMMAX =           8
 
 POTCAR:     PAW_PBE Cu_pv 06Sep2000              
   SHA256 =  cb7b504e2ea725fe1f25c85a9ac77d4012ce94cd394135b722c4e25ec297f1cb Cu
   COPYR  = (c) Copyright 06Sep2000 Georg Kresse                                
   COPYR  = This file is part of the software VASP. Any use, copying, and all ot
   COPYR  = If you do not have a valid VASP license, you may not use, copy or di
   VRHFIN =Cu: d10 p1                                                           
   LEXCH  = PE                                                                  
   EATOM  =  4120.1201 eV,  302.8203 Ry                                         
                                                                                
   TITEL  = PAW_PBE Cu_pv 06Sep2000                                             
   LULTRA =        F    use ultrasoft PP ?                                      
   IUNSCR =        1    unscreen: 0-lin 1-nonlin 2-no                           
   RPACOR =    1.500    partial core radius                                     
   POMASS =   63.546; ZVAL   =   17.000    mass and valenz                      
   RCORE  =    2.000    outmost cutoff radius                                   
   RWIGS  =    2.000; RWIGS  =    1.058    wigner-seitz radius (au A)           
   ENMAX  =  368.648; ENMIN  =  276.486 eV                                      
   RCLOC  =    1.304    cutoff for local pot                                    
   LCOR   =        T    correct aug charges                                     
   LPAW   =        T    paw PP                                                  
   EAUG   =  758.233                                                            
   DEXC   =    0.000                                                            
   RMAX   =    2.046    core radius for proj-oper                               
   RAUG   =    1.300    factor for augmentation sphere                          
   RDEP   =    2.025    radius for radial grids                                 
   RDEPT  =    1.558    core radius for aug-charge                              
                                                                                
   Atomic configuration                                                         
    8 entries                                                                   
     n  l   j            E        occ.                                          
     1  0  0.50     -8850.2467   2.0000                                         
     2  0  0.50     -1062.3498   2.0000                                         
     2  1  1.50      -916.8226   6.0000                                         
     3  0  0.50      -114.6929   2.0000                                         
     3  1  1.50       -72.1325   6.0000                                         
     3  2  2.50        -5.0394  10.0000                                         
     4  0  0.50        -4.6097   1.0000                                         
     4  3  2.50        -1.3606   0.0000                                         
   Description                                                                  
     l       E           TYP  RCUT    TYP  RCUT                                 
     1    -72.1324777     23  1.700                                             
     1     -1.3605826     23  1.700                                             
     2     -5.0393776     23  2.000                                             
     2     -6.3999602     23  2.000                                             
     0     -4.6097062     23  1.800                                             
     0     14.1620818     23  1.800                                             
  local pseudopotential read in
  partial core-charges read in
  partial kinetic energy density read in
  atomic valenz-charges read in
  non local Contribution for L=           1  read in
    real space projection operators read in
  non local Contribution for L=           1  read in
    real space projection operators read in
  non local Contribution for L=           2  read in
    real space projection operators read in
  non local Contribution for L=           2  read in
    real space projection operators read in
  non local Contribution for L=           0  read in
    real space projection operators read in
  non local Contribution for L=           0  read in
    real space projection operators read in
    PAW grid and wavefunctions read in
 
   number of l-projection  operators is LMAX  =           6
   number of lm-projection operators is LMMAX =          18
 
 POTCAR:     PAW_PBE Fe_pv 02Aug2007              
   SHA256 =  5d22e414b1f82158bf2c7ecb8b97b28fd0923e48cadc1c3bf74d524558f5dd32 Fe
   COPYR  = (c) Copyright 02Aug2007 Georg Kresse                                
   COPYR  = This file is part of the software VASP. Any use, copying, and all ot
   COPYR  = If you do not have a valid VASP license, you may not use, copy or di
   VRHFIN =Fe:  3pd7s1                                                          
   LEXCH  = PE                                                                  
   EATOM  =  2457.4239 eV,  180.6156 Ry                                         
                                                                                
   TITEL  = PAW_PBE Fe_pv 02Aug2007                                             
   LULTRA =        F    use ultrasoft PP ?                                      
   IUNSCR =        1    unscreen: 0-lin 1-nonlin 2-no                           
   RPACOR =    1.750    partial core radius                                     
   POMASS =   55.847; ZVAL   =   14.000    mass and valenz                      
   RCORE  =    2.200    outmost cutoff radius                                   
   RWIGS  =    2.200; RWIGS  =    1.164    wigner-seitz radius (au A)           
   ENMAX  =  293.238; ENMIN  =  219.928 eV                                      
   ICORE  =        3    local potential                                         
   LCOR   =        T    correct aug charges                                     
   LPAW   =        T    paw PP                                                  
   EAUG   =  578.342                                                            
   DEXC   =    0.000                                                            
   RMAX   =    2.249    core radius for proj-oper                               
   RAUG   =    1.300    factor for augmentation sphere                          
   RDEP   =    2.296    radius for radial grids                                 
   RDEPT  =    1.766    core radius for aug-charge                              
                                                                                
   Atomic configuration                                                         
    8 entries                                                                   
     n  l   j            E        occ.                                          
     1  0  0.50     -6993.8440   2.0000                                         
     2  0  0.50      -814.6047   2.0000                                         
     2  1  1.50      -693.3689   6.0000                                         
     3  0  0.50       -89.4732   2.0000                                         
     3  1  1.50       -55.6373   6.0000                                         
     3  2  2.50        -3.8151   7.0000                                         
     4  0  0.50        -4.2551   1.0000                                         
     4  3  2.50        -1.3606   0.0000                                         
   Description                                                                  
     l       E           TYP  RCUT    TYP  RCUT                                 
     1    -55.6372668     23  2.000                                             
     1     -5.4423304     23  2.000                                             
     2     -3.8151096     23  2.200                                             
     2     -5.1756922     23  2.200                                             
     0     -4.2550951     23  2.200                                             
     0     27.2116520     23  2.200                                             
     3     -1.3605826     23  2.200                                             
  local pseudopotential read in
  partial core-charges read in
  partial kinetic energy density read in
  atomic valenz-charges read in
  non local Contribution for L=           1  read in
    real space projection operators read in
  non local Contribution for L=           1  read in
    real space projection operators read in
  non local Contribution for L=           2  read in
    real space projection operators read in
  non local Contribution for L=           2  read in
    real space projection operators read in
  non local Contribution for L=           0  read in
    real space projection operators read in
  non local Contribution for L=           0  read in
    real space projection operators read in
    PAW grid and wavefunctions read in
 
   number of l-projection  operators is LMAX  =           6
   number of lm-projection operators is LMMAX =          18
 

 ----------------------------------------------------------------------------- 
|                                                                             |
|  ADVICE TO THIS USER RUNNING 'VASP/VAMP'   (HEAR YOUR MASTER'S VOICE ...):  |
|                                                                             |
|      You enforced a specific xc-type in the INCAR file,                     |
|      a different type was found on the POTCAR file                          |
|          I HOPE YOU KNOW, WHAT YOU ARE  DOING                               |
|                                                                             |
 ----------------------------------------------------------------------------- 

  PAW_PBE S 06Sep2000                   :
 energy of atom  1       EATOM= -276.8230
 kinetic energy error for atom=    0.0007 (will be added to EATOM!!)
   PAW_PBE Cu_pv 06Sep2000              :
 energy of atom  2       EATOM=-4120.1201
 kinetic energy error for atom=    0.0094 (will be added to EATOM!!)
   PAW_PBE Fe_pv 02Aug2007              :
 energy of atom  3       EATOM=-2457.4239
 kinetic energy error for atom=    0.0025 (will be added to EATOM!!)
 
 
 POSCAR: Fe4 Cu4 S8                              
  positions in direct lattice
  velocities in cartesian coordinates
 exchange correlation table for  LEXCH =       14
   RHO(1)=    0.500       N(1)  =     2000
   RHO(2)=  100.500       N(2)  =     4000
 


--------------------------------------------------------------------------------------------------------


 ion  position               nearest neighbor table
   1  0.255  0.222  0.127-  11 2.25  16 2.25  10 2.31  13 2.33
   2  0.745  0.722  0.123-  10 2.25  13 2.25  11 2.31  16 2.33
   3  0.250  0.736  0.875-  14 2.27  13 2.27  12 2.28  11 2.28
   4  0.750  0.236  0.875-  11 2.27  12 2.27  13 2.32  14 2.32
   5  0.245  0.222  0.623-  12 2.25  15 2.25   9 2.31  14 2.33
   6  0.755  0.722  0.627-   9 2.25  14 2.25  12 2.31  15 2.33
   7  0.750  0.236  0.375-  16 2.27  15 2.27  10 2.28   9 2.28
   8  0.250  0.736  0.375-   9 2.27  10 2.27  16 2.32  15 2.32
   9  0.986  0.021  0.500-   6 2.25   8 2.27   7 2.28   5 2.31
  10  0.514  0.021  0.250-   2 2.25   8 2.27   7 2.28   1 2.31
  11  0.486  0.521  0.000-   1 2.25   4 2.27   3 2.28   2 2.31
  12  0.014  0.521  0.750-   5 2.25   4 2.27   3 2.28   6 2.31
  13  0.991  0.022  0.004-   2 2.25   3 2.27   4 2.32   1 2.33
  14  0.509  0.022  0.746-   6 2.25   3 2.27   4 2.32   5 2.33
  15  0.491  0.522  0.504-   5 2.25   7 2.27   8 2.32   6 2.33
  16  0.009  0.522  0.246-   1 2.25   7 2.27   8 2.32   2 2.33
 
  LATTYP: Found a simple monoclinic cell.
 ALAT       =    12.5995408229
 B/A-ratio  =     0.4197937306
 C/A-ratio  =     1.7862359352
 COS(beta)  =    -0.9820138187
  
  Lattice vectors:
  
 A1 = (  -7.4227997205,   0.0000000000, -10.1808876458)
 A2 = (   0.0000000000,  -5.2892082457,   0.0000000000)
 A3 = (   9.5868141932,   0.0000000000,  20.3617752916)


Analysis of symmetry for initial positions (statically):
=====================================================================
 Subroutine PRICEL returns following result:
 
  LATTYP: Found a base centered monoclinic cell.
 ALAT       =    10.6408683577
 B/A-ratio  =     0.4970654713
 C/A-ratio  =     0.9781471194
 COS(beta)  =    -0.7838958174
  
  Lattice vectors:
  
 A1 = (  -1.5473853875,  -2.6446041229,   5.0904438229)
 A2 = (  -1.5473853875,   2.6446041229,   5.0904438229)
 A3 = (  -2.1640144727,   0.0000000000, -10.1808876458)
 
   2 primitive cells build up your supercell.
 

 Routine SETGRP: Setting up the symmetry group for a 
 simple monoclinic supercell.


 Subroutine GETGRP returns: Found  2 space group operations
 (whereof  1 operations were pure point group operations)
 out of a pool of  4 trial point group operations.


The static configuration has the point symmetry C_1 .
 The point group associated with its full space group is C_2 .


Analysis of symmetry for dynamics (positions and initial velocities):
=====================================================================
 Subroutine PRICEL returns following result:
 
  LATTYP: Found a base centered monoclinic cell.
 ALAT       =    10.6408683577
 B/A-ratio  =     0.4970654713
 C/A-ratio  =     0.9781471194
 COS(beta)  =    -0.7838958174
  
  Lattice vectors:
  
 A1 = (  -1.5473853875,  -2.6446041229,   5.0904438229)
 A2 = (  -1.5473853875,   2.6446041229,   5.0904438229)
 A3 = (  -2.1640144727,   0.0000000000, -10.1808876458)
 
   2 primitive cells build up your supercell.
 

 Routine SETGRP: Setting up the symmetry group for a 
 simple monoclinic supercell.


 Subroutine GETGRP returns: Found  2 space group operations
 (whereof  1 operations were pure point group operations)
 out of a pool of  4 trial point group operations.


The dynamic configuration has the point symmetry C_1 .
 The point group associated with its full space group is C_2 .


Analysis of structural, dynamic, and magnetic symmetry:
=====================================================================
 Subroutine PRICEL returns following result:
 
  LATTYP: Found a base centered monoclinic cell.
 ALAT       =    10.6408683577
 B/A-ratio  =     0.4970654713
 C/A-ratio  =     0.9781471194
 COS(beta)  =    -0.7838958174
  
  Lattice vectors:
  
 A1 = (  -1.5473853875,  -2.6446041229,   5.0904438229)
 A2 = (  -1.5473853875,   2.6446041229,   5.0904438229)
 A3 = (  -2.1640144727,   0.0000000000, -10.1808876458)
 
   2 primitive cells build up your supercell.
 

 Routine SETGRP: Setting up the symmetry group for a 
 simple monoclinic supercell.


 Subroutine GETGRP returns: Found  2 space group operations
 (whereof  1 operations were pure point group operations)
 out of a pool of  4 trial point group operations.


The (compounded) configuration has the point symmetry C_1 .
 The point group associated with its full space group is C_2 .


 Subroutine INISYM returns: Found  2 space group operations
 (whereof  1 operations are pure point group operations),
 and found     2 'primitive' translations

 
 
 KPOINTS: Automatic mesh                          

Automatic generation of k-mesh.
Space group operators:
 irot       det(A)        alpha          n_x          n_y          n_z        tau_x        tau_y        tau_z
    1     1.000000     0.000000     1.000000     0.000000     0.000000     0.000000     0.000000     0.000000
    2     1.000000   180.000000     0.000000     1.000000     0.000000    -0.500000     0.000000    -0.250000
 
 Subroutine IBZKPT returns following result:
 ===========================================
 
 Found     60 irreducible k-points:
 
 Following reciprocal coordinates:
            Coordinates               Weight
  0.000000  0.000000  0.000000      1.000000
  0.166667  0.000000 -0.000000      2.000000
  0.333333  0.000000  0.000000      2.000000
  0.500000  0.000000 -0.000000      1.000000
  0.000000  0.166667  0.000000      1.000000
  0.166667  0.166667 -0.000000      2.000000
  0.333333  0.166667  0.000000      2.000000
  0.500000  0.166667 -0.000000      1.000000
  0.000000  0.333333  0.000000      1.000000
  0.166667  0.333333 -0.000000      2.000000
  0.333333  0.333333  0.000000      2.000000
  0.500000  0.333333 -0.000000      1.000000
  0.000000  0.500000  0.000000      1.000000
  0.166667  0.500000 -0.000000      2.000000
  0.333333  0.500000  0.000000      2.000000
  0.500000  0.500000 -0.000000      1.000000
  0.000000 -0.333333  0.000000      1.000000
  0.166667 -0.333333 -0.000000      2.000000
  0.333333 -0.333333  0.000000      2.000000
  0.500000 -0.333333 -0.000000      1.000000
  0.000000 -0.166667  0.000000      1.000000
  0.166667 -0.166667 -0.000000      2.000000
  0.333333 -0.166667  0.000000      2.000000
  0.500000 -0.166667 -0.000000      1.000000
  0.000000  0.000000  0.333333      2.000000
  0.166667  0.000000  0.333333      2.000000
  0.333333  0.000000  0.333333      2.000000
  0.500000  0.000000  0.333333      2.000000
 -0.333333  0.000000  0.333333      2.000000
 -0.166667  0.000000  0.333333      2.000000
  0.000000  0.166667  0.333333      2.000000
  0.166667  0.166667  0.333333      2.000000
  0.333333  0.166667  0.333333      2.000000
  0.500000  0.166667  0.333333      2.000000
 -0.333333  0.166667  0.333333      2.000000
 -0.166667  0.166667  0.333333      2.000000
  0.000000  0.333333  0.333333      2.000000
  0.166667  0.333333  0.333333      2.000000
  0.333333  0.333333  0.333333      2.000000
  0.500000  0.333333  0.333333      2.000000
 -0.333333  0.333333  0.333333      2.000000
 -0.166667  0.333333  0.333333      2.000000
  0.000000  0.500000  0.333333      2.000000
  0.166667  0.500000  0.333333      2.000000
  0.333333  0.500000  0.333333      2.000000
  0.500000  0.500000  0.333333      2.000000
 -0.333333  0.500000  0.333333      2.000000
 -0.166667  0.500000  0.333333      2.000000
  0.000000 -0.333333  0.333333      2.000000
  0.166667 -0.333333  0.333333      2.000000
  0.333333 -0.333333  0.333333      2.000000
  0.500000 -0.333333  0.333333      2.000000
 -0.333333 -0.333333  0.333333      2.000000
 -0.166667 -0.333333  0.333333      2.000000
  0.000000 -0.166667  0.333333      2.000000
  0.166667 -0.166667  0.333333      2.000000
  0.333333 -0.166667  0.333333      2.000000
  0.500000 -0.166667  0.333333      2.000000
 -0.333333 -0.166667  0.333333      2.000000
 -0.166667 -0.166667  0.333333      2.000000
 
 Following cartesian coordinates:
            Coordinates               Weight
  0.000000  0.000000  0.000000      1.000000
  0.031693  0.000000 -0.006737      2.000000
  0.063386  0.000000 -0.013473      2.000000
  0.095079  0.000000 -0.020210      1.000000
  0.000000  0.031511  0.000000      1.000000
  0.031693  0.031511 -0.006737      2.000000
  0.063386  0.031511 -0.013473      2.000000
  0.095079  0.031511 -0.020210      1.000000
  0.000000  0.063021  0.000000      1.000000
  0.031693  0.063021 -0.006737      2.000000
  0.063386  0.063021 -0.013473      2.000000
  0.095079  0.063021 -0.020210      1.000000
  0.000000  0.094532  0.000000      1.000000
  0.031693  0.094532 -0.006737      2.000000
  0.063386  0.094532 -0.013473      2.000000
  0.095079  0.094532 -0.020210      1.000000
  0.000000 -0.063021  0.000000      1.000000
  0.031693 -0.063021 -0.006737      2.000000
  0.063386 -0.063021 -0.013473      2.000000
  0.095079 -0.063021 -0.020210      1.000000
  0.000000 -0.031511  0.000000      1.000000
  0.031693 -0.031511 -0.006737      2.000000
  0.063386 -0.031511 -0.013473      2.000000
  0.095079 -0.031511 -0.020210      1.000000
  0.000000  0.000000  0.032741      2.000000
  0.031693  0.000000  0.026005      2.000000
  0.063386  0.000000  0.019268      2.000000
  0.095079  0.000000  0.012531      2.000000
 -0.063386  0.000000  0.046214      2.000000
 -0.031693  0.000000  0.039478      2.000000
  0.000000  0.031511  0.032741      2.000000
  0.031693  0.031511  0.026005      2.000000
  0.063386  0.031511  0.019268      2.000000
  0.095079  0.031511  0.012531      2.000000
 -0.063386  0.031511  0.046214      2.000000
 -0.031693  0.031511  0.039478      2.000000
  0.000000  0.063021  0.032741      2.000000
  0.031693  0.063021  0.026005      2.000000
  0.063386  0.063021  0.019268      2.000000
  0.095079  0.063021  0.012531      2.000000
 -0.063386  0.063021  0.046214      2.000000
 -0.031693  0.063021  0.039478      2.000000
  0.000000  0.094532  0.032741      2.000000
  0.031693  0.094532  0.026005      2.000000
  0.063386  0.094532  0.019268      2.000000
  0.095079  0.094532  0.012531      2.000000
 -0.063386  0.094532  0.046214      2.000000
 -0.031693  0.094532  0.039478      2.000000
  0.000000 -0.063021  0.032741      2.000000
  0.031693 -0.063021  0.026005      2.000000
  0.063386 -0.063021  0.019268      2.000000
  0.095079 -0.063021  0.012531      2.000000
 -0.063386 -0.063021  0.046214      2.000000
 -0.031693 -0.063021  0.039478      2.000000
  0.000000 -0.031511  0.032741      2.000000
  0.031693 -0.031511  0.026005      2.000000
  0.063386 -0.031511  0.019268      2.000000
  0.095079 -0.031511  0.012531      2.000000
 -0.063386 -0.031511  0.046214      2.000000
 -0.031693 -0.031511  0.039478      2.000000
 
 TETIRR: Found    648 inequivalent tetrahedra from      648
 
 Subroutine IBZKPT_HF returns following result:
 ==============================================
 
 Found    108 k-points in 1st BZ
 the following    108 k-points will be used (e.g. in the exchange kernel)
 Following reciprocal coordinates:   # in IRBZ
  0.000000  0.000000  0.000000    0.00925926   1 t-inv F
  0.166667  0.000000 -0.000000    0.00925926   2 t-inv F
  0.333333  0.000000  0.000000    0.00925926   3 t-inv F
  0.500000  0.000000 -0.000000    0.00925926   4 t-inv F
  0.000000  0.166667  0.000000    0.00925926   5 t-inv F
  0.166667  0.166667 -0.000000    0.00925926   6 t-inv F
  0.333333  0.166667  0.000000    0.00925926   7 t-inv F
  0.500000  0.166667 -0.000000    0.00925926   8 t-inv F
  0.000000  0.333333  0.000000    0.00925926   9 t-inv F
  0.166667  0.333333 -0.000000    0.00925926  10 t-inv F
  0.333333  0.333333  0.000000    0.00925926  11 t-inv F
  0.500000  0.333333 -0.000000    0.00925926  12 t-inv F
  0.000000  0.500000  0.000000    0.00925926  13 t-inv F
  0.166667  0.500000 -0.000000    0.00925926  14 t-inv F
  0.333333  0.500000  0.000000    0.00925926  15 t-inv F
  0.500000  0.500000 -0.000000    0.00925926  16 t-inv F
  0.000000 -0.333333  0.000000    0.00925926  17 t-inv F
  0.166667 -0.333333 -0.000000    0.00925926  18 t-inv F
  0.333333 -0.333333  0.000000    0.00925926  19 t-inv F
  0.500000 -0.333333 -0.000000    0.00925926  20 t-inv F
  0.000000 -0.166667  0.000000    0.00925926  21 t-inv F
  0.166667 -0.166667 -0.000000    0.00925926  22 t-inv F
  0.333333 -0.166667  0.000000    0.00925926  23 t-inv F
  0.500000 -0.166667 -0.000000    0.00925926  24 t-inv F
  0.000000  0.000000  0.333333    0.00925926  25 t-inv F
  0.166667  0.000000  0.333333    0.00925926  26 t-inv F
  0.333333  0.000000  0.333333    0.00925926  27 t-inv F
  0.500000  0.000000  0.333333    0.00925926  28 t-inv F
 -0.333333  0.000000  0.333333    0.00925926  29 t-inv F
 -0.166667  0.000000  0.333333    0.00925926  30 t-inv F
  0.000000  0.166667  0.333333    0.00925926  31 t-inv F
  0.166667  0.166667  0.333333    0.00925926  32 t-inv F
  0.333333  0.166667  0.333333    0.00925926  33 t-inv F
  0.500000  0.166667  0.333333    0.00925926  34 t-inv F
 -0.333333  0.166667  0.333333    0.00925926  35 t-inv F
 -0.166667  0.166667  0.333333    0.00925926  36 t-inv F
  0.000000  0.333333  0.333333    0.00925926  37 t-inv F
  0.166667  0.333333  0.333333    0.00925926  38 t-inv F
  0.333333  0.333333  0.333333    0.00925926  39 t-inv F
  0.500000  0.333333  0.333333    0.00925926  40 t-inv F
 -0.333333  0.333333  0.333333    0.00925926  41 t-inv F
 -0.166667  0.333333  0.333333    0.00925926  42 t-inv F
  0.000000  0.500000  0.333333    0.00925926  43 t-inv F
  0.166667  0.500000  0.333333    0.00925926  44 t-inv F
  0.333333  0.500000  0.333333    0.00925926  45 t-inv F
  0.500000  0.500000  0.333333    0.00925926  46 t-inv F
 -0.333333  0.500000  0.333333    0.00925926  47 t-inv F
 -0.166667  0.500000  0.333333    0.00925926  48 t-inv F
  0.000000 -0.333333  0.333333    0.00925926  49 t-inv F
  0.166667 -0.333333  0.333333    0.00925926  50 t-inv F
  0.333333 -0.333333  0.333333    0.00925926  51 t-inv F
  0.500000 -0.333333  0.333333    0.00925926  52 t-inv F
 -0.333333 -0.333333  0.333333    0.00925926  53 t-inv F
 -0.166667 -0.333333  0.333333    0.00925926  54 t-inv F
  0.000000 -0.166667  0.333333    0.00925926  55 t-inv F
  0.166667 -0.166667  0.333333    0.00925926  56 t-inv F
  0.333333 -0.166667  0.333333    0.00925926  57 t-inv F
  0.500000 -0.166667  0.333333    0.00925926  58 t-inv F
 -0.333333 -0.166667  0.333333    0.00925926  59 t-inv F
 -0.166667 -0.166667  0.333333    0.00925926  60 t-inv F
 -0.166667  0.000000  0.000000    0.00925926   2 t-inv F
 -0.333333  0.000000  0.000000    0.00925926   3 t-inv F
 -0.166667  0.166667  0.000000    0.00925926   6 t-inv F
 -0.333333  0.166667  0.000000    0.00925926   7 t-inv F
 -0.166667  0.333333  0.000000    0.00925926  10 t-inv F
 -0.333333  0.333333  0.000000    0.00925926  11 t-inv F
 -0.166667  0.500000  0.000000    0.00925926  14 t-inv F
 -0.333333  0.500000  0.000000    0.00925926  15 t-inv F
 -0.166667 -0.333333  0.000000    0.00925926  18 t-inv F
 -0.333333 -0.333333  0.000000    0.00925926  19 t-inv F
 -0.166667 -0.166667  0.000000    0.00925926  22 t-inv F
 -0.333333 -0.166667  0.000000    0.00925926  23 t-inv F
  0.000000  0.000000 -0.333333    0.00925926  25 t-inv F
 -0.166667  0.000000 -0.333333    0.00925926  26 t-inv F
 -0.333333  0.000000 -0.333333    0.00925926  27 t-inv F
 -0.500000  0.000000 -0.333333    0.00925926  28 t-inv F
  0.333333  0.000000 -0.333333    0.00925926  29 t-inv F
  0.166667  0.000000 -0.333333    0.00925926  30 t-inv F
  0.000000  0.166667 -0.333333    0.00925926  31 t-inv F
 -0.166667  0.166667 -0.333333    0.00925926  32 t-inv F
 -0.333333  0.166667 -0.333333    0.00925926  33 t-inv F
 -0.500000  0.166667 -0.333333    0.00925926  34 t-inv F
  0.333333  0.166667 -0.333333    0.00925926  35 t-inv F
  0.166667  0.166667 -0.333333    0.00925926  36 t-inv F
  0.000000  0.333333 -0.333333    0.00925926  37 t-inv F
 -0.166667  0.333333 -0.333333    0.00925926  38 t-inv F
 -0.333333  0.333333 -0.333333    0.00925926  39 t-inv F
 -0.500000  0.333333 -0.333333    0.00925926  40 t-inv F
  0.333333  0.333333 -0.333333    0.00925926  41 t-inv F
  0.166667  0.333333 -0.333333    0.00925926  42 t-inv F
  0.000000  0.500000 -0.333333    0.00925926  43 t-inv F
 -0.166667  0.500000 -0.333333    0.00925926  44 t-inv F
 -0.333333  0.500000 -0.333333    0.00925926  45 t-inv F
 -0.500000  0.500000 -0.333333    0.00925926  46 t-inv F
  0.333333  0.500000 -0.333333    0.00925926  47 t-inv F
  0.166667  0.500000 -0.333333    0.00925926  48 t-inv F
  0.000000 -0.333333 -0.333333    0.00925926  49 t-inv F
 -0.166667 -0.333333 -0.333333    0.00925926  50 t-inv F
 -0.333333 -0.333333 -0.333333    0.00925926  51 t-inv F
 -0.500000 -0.333333 -0.333333    0.00925926  52 t-inv F
  0.333333 -0.333333 -0.333333    0.00925926  53 t-inv F
  0.166667 -0.333333 -0.333333    0.00925926  54 t-inv F
  0.000000 -0.166667 -0.333333    0.00925926  55 t-inv F
 -0.166667 -0.166667 -0.333333    0.00925926  56 t-inv F
 -0.333333 -0.166667 -0.333333    0.00925926  57 t-inv F
 -0.500000 -0.166667 -0.333333    0.00925926  58 t-inv F
  0.333333 -0.166667 -0.333333    0.00925926  59 t-inv F
  0.166667 -0.166667 -0.333333    0.00925926  60 t-inv F


--------------------------------------------------------------------------------------------------------




 Dimension of arrays:
   k-points           NKPTS =     60   k-points in BZ     NKDIM =     60   number of bands    NBANDS=    256
   number of dos      NEDOS =    301   number of ions     NIONS =     16
   non local maximal  LDIM  =      6   non local SUM 2l+1 LMDIM =     18
   total plane-waves  NPLWV = 207360
   max r-space proj   IRMAX =      1   max aug-charges    IRDMAX=  23266
   dimension x,y,z NGX =    48 NGY =   48 NGZ =   90
   dimension x,y,z NGXF=    96 NGYF=   96 NGZF=  180
   support grid    NGXF=    96 NGYF=   96 NGZF=  180
   ions per type =               8   4   4
   NGX,Y,Z   is equivalent  to a cutoff of  15.17, 15.09, 14.38 a.u.
   NGXF,Y,Z  is equivalent  to a cutoff of  30.35, 30.17, 28.75 a.u.

 SYSTEM =  CuFeS2                                  
 POSCAR =  Fe4 Cu4 S8                              

 Startparameter for this run:
   NWRITE =      2    write-flag & timer
   PREC   = accura    normal or accurate (medium, high low for compatibility)
   ISTART =      1    job   : 0-new  1-cont  2-samecut
   ICHARG =      1    charge: 1-file 2-atom 10-const
   ISPIN  =      1    spin polarized calculation?
   LNONCOLLINEAR =      T non collinear calculations
   LSORBIT =      T    spin-orbit coupling
   INIWAV =      1    electr: 0-lowe 1-rand  2-diag
   LASPH  =      T    aspherical Exc in radial PAW
   METAGGA=      F    non-selfconsistent MetaGGA calc.

 Electronic Relaxation 1
   ENCUT  =  700.0 eV  51.45 Ry    7.17 a.u.  11.34 11.41 22.45*2*pi/ulx,y,z
   ENINI  =  700.0     initial cutoff
   ENAUG  =  758.2 eV  augmentation charge cutoff
   NELM   =    200;   NELMIN=  2; NELMDL=  0     # of ELM steps 
   EDIFF  = 0.1E-07   stopping-criterion for ELM
   LREAL  =      F    real-space projection
   NLSPLINE    = F    spline interpolate recip. space projectors
   LCOMPAT=      F    compatible to vasp.4.4
   GGA_COMPAT  = T    GGA compatible to vasp.4.4-vasp.4.6
   LMAXPAW     = -100 max onsite density
   LMAXMIX     =    4 max onsite mixed and CHGCAR
   VOSKOWN=      0    Vosko Wilk Nusair interpolation
   ROPT   =    0.00000   0.00000   0.00000
 Ionic relaxation
   EDIFFG = -.1E-04   stopping-criterion for IOM
   NSW    =      0    number of steps for IOM
   NBLOCK =      1;   KBLOCK =      1    inner block; outer block 
   IBRION =     -1    ionic relax: 0-MD 1-quasi-New 2-CG
   NFREE  =      0    steps in history (QN), initial steepest desc. (CG)
   ISIF   =      2    stress and relaxation
   IWAVPR =     10    prediction:  0-non 1-charg 2-wave 3-comb
   ISYM   =      2    0-nonsym 1-usesym 2-fastsym
   LCORR  =      T    Harris-Foulkes like correction to forces

   POTIM  = 0.5000    time-step for ionic-motion
   TEIN   =    0.0    initial temperature
   TEBEG  =    0.0;   TEEND  =   0.0 temperature during run
   SMASS  =  -3.00    Nose mass-parameter (am)
   estimated Nose-frequenzy (Omega)   =  0.10E-29 period in steps =****** mass=  -0.632E-27a.u.
   SCALEE = 1.0000    scale energy and forces
   NPACO  =    256;   APACO  = 16.0  distance and # of slots for P.C.
   PSTRESS=    0.0 pullay stress

  Mass of Ions in am
   POMASS =  32.07 63.55 55.85
  Ionic Valenz
   ZVAL   =   6.00 17.00 14.00
  Atomic Wigner-Seitz radii
   RWIGS  =  -1.00 -1.00 -1.00
  virtual crystal weights 
   VCA    =   1.00  1.00  1.00
   NELECT =     172.0000    total number of electrons
   NUPDOWN=      -1.0000    fix difference up-down

 DOS related values:
   EMIN   =  10.00;   EMAX   =-10.00  energy-range for DOS
   EFERMI =   0.00
   ISMEAR =    -5;   SIGMA  =   0.03  broadening in eV -4-tet -1-fermi 0-gaus

 Electronic relaxation 2 (details)
   IALGO  =     38    algorithm
   LDIAG  =      T    sub-space diagonalisation (order eigenvalues)
   LSUBROT=      F    optimize rotation matrix (better conditioning)
   TURBO    =      0    0=normal 1=particle mesh
   IRESTART =      0    0=no restart 2=restart with 2 vectors
   NREBOOT  =      0    no. of reboots
   NMIN     =      0    reboot dimension
   EREF     =   0.00    reference energy to select bands
   IMIX   =      4    mixing-type and parameters
     AMIX     =   0.40;   BMIX     =  1.00
     AMIX_MAG =   1.60;   BMIX_MAG =  1.00
     AMIN     =   0.10
     WC   =   100.;   INIMIX=   1;  MIXPRE=   1;  MAXMIX= -45

 Intra band minimization:
   WEIMIN = 0.0000     energy-eigenvalue tresh-hold
   EBREAK =  0.98E-11  absolut break condition
   DEPER  =   0.30     relativ break condition  

   TIME   =   0.40     timestep for ELM

  volume/ion in A,a.u.               =      17.70       119.44
  Fermi-wavevector in a.u.,A,eV,Ry     =   1.386427  2.619967 26.152851  1.922180
  Thomas-Fermi vector in A             =   2.510744
 
 Write flags
   LWAVE        =      T    write WAVECAR
   LDOWNSAMPLE  =      F    k-point downsampling of WAVECAR
   LCHARG       =      T    write CHGCAR
   LVTOT        =      F    write LOCPOT, total local potential
   LVHAR        =      F    write LOCPOT, Hartree potential only
   LELF         =      F    write electronic localiz. function (ELF)
   LORBIT       =     11    0 simple, 1 ext, 2 COOP (PROOUT), +10 PAW based schemes


 Dipole corrections
   LMONO  =      F    monopole corrections only (constant potential shift)
   LDIPOL =      F    correct potential (dipole corrections)
   IDIPOL =      0    1-x, 2-y, 3-z, 4-all directions 
   EPSILON=  1.0000000 bulk dielectric constant

 LDA+U is selected, type is set to LDAUTYPE =  2
   angular momentum for each species LDAUL =     2    2    2
   U (eV)           for each species LDAUU =   0.0  0.1  4.7
   J (eV)           for each species LDAUJ =   0.0  0.0  0.0
 Exchange correlation treatment:
   GGA     =    PS    GGA type
   LEXCH   =    14    internal setting for exchange type
   VOSKOWN=      0    Vosko Wilk Nusair interpolation
   LHFCALC =     F    Hartree Fock is set to
   LHFONE  =     F    Hartree Fock one center treatment
   AEXX    =    0.0000 exact exchange contribution

 Linear response parameters
   LEPSILON=     F    determine dielectric tensor
   LRPA    =     F    only Hartree local field effects (RPA)
   LNABLA  =     F    use nabla operator in PAW spheres
   LVEL    =     F    velocity operator in full k-point grid
   LINTERFAST=   F  fast interpolation
   KINTER  =     0    interpolate to denser k-point grid
   CSHIFT  =0.1000    complex shift for real part using Kramers Kronig
   OMEGAMAX=  -1.0    maximum frequency
   DEG_THRESHOLD= 0.2000000E-02 threshold for treating states as degnerate
   RTIME   =   -0.100 relaxation time in fs
  (WPLASMAI=    0.000 imaginary part of plasma frequency in eV, 0.658/RTIME)
   DFIELD  = 0.0000000 0.0000000 0.0000000 field for delta impulse in time
 
 Orbital magnetization related:
   ORBITALMAG=     F  switch on orbital magnetization
   LCHIMAG   =     F  perturbation theory with respect to B field
   DQ        =  0.001000  dq finite difference perturbation B field
   LLRAUG    =     F  two centre corrections for induced B field

 PEAD related settings:
   LPEAD      =     T    switch on PEAD
   IPEAD      =     4    finite difference order for dpsi/dk
   LCALCPOL   =     T    calculate macroscopic polarization
   LCALCEPS   =     F    calculate dielectric tensor
   EFIELD_PEAD=    0.0000    0.0000    0.0000
   SKIP_EDOTP =     F
   LRPA       =     F
   SKIP_SCF   =     F


--------------------------------------------------------------------------------------------------------


 Static calculation
 charge density and potential will be updated during run
 non collinear spin polarized calculation
 Variant of blocked Davidson
 Davidson routine will perform the subspace rotation
 perform sub-space diagonalisation
    after iterative eigenvector-optimisation
 modified Broyden-mixing scheme, WC =      100.0
 initial mixing is a Kerker type mixing with AMIX =  0.4000 and BMIX =      1.0000
 Hartree-type preconditioning will be used
 using additional bands          170
 reciprocal scheme for non local part
 use partial core corrections
 calculate Harris-corrections to forces 
   (improved forces if not selfconsistent)
 use gradient corrections 
 use of overlap-Matrix (Vanderbilt PP)
 Fermi weights with tetrahedron method with Bloechl corrections


--------------------------------------------------------------------------------------------------------


  energy-cutoff  :      700.00
  volume of cell :      283.18
      direct lattice vectors                 reciprocal lattice vectors
     5.258785248  0.000000000  0.000000000     0.190157984  0.000000000 -0.040419327
     0.000000000  5.289208246  0.000000000     0.000000000  0.189064214  0.000000000
     2.164014473  0.000000000 10.180887646     0.000000000  0.000000000  0.098223263

  length of vectors
     5.258785248  5.289208246 10.408334732     0.194406226  0.189064214  0.098223263


 
 old parameters found on file WAVECAR:
  energy-cutoff  :      700.00
  volume of cell :      281.55
      direct lattice vectors                 reciprocal lattice vectors
     5.258785248  0.000000000  0.000000000     0.190157984  0.000000000 -0.040419327
     0.000000000  5.258786202  0.000000000     0.000000000  0.190157949  0.000000000
     2.164014473  0.000000000 10.180887646     0.000000000  0.000000000  0.098223263

  length of vectors

 
 k-points in units of 2pi/SCALE and weight: Automatic mesh                          
   0.00000000  0.00000000  0.00000000       0.009
   0.03169300  0.00000000 -0.00673655       0.019
   0.06338599  0.00000000 -0.01347311       0.019
   0.09507899  0.00000000 -0.02020966       0.009
   0.00000000  0.03151070  0.00000000       0.009
   0.03169300  0.03151070 -0.00673655       0.019
   0.06338599  0.03151070 -0.01347311       0.019
   0.09507899  0.03151070 -0.02020966       0.009
   0.00000000  0.06302140  0.00000000       0.009
   0.03169300  0.06302140 -0.00673655       0.019
   0.06338599  0.06302140 -0.01347311       0.019
   0.09507899  0.06302140 -0.02020966       0.009
   0.00000000  0.09453211  0.00000000       0.009
   0.03169300  0.09453211 -0.00673655       0.019
   0.06338599  0.09453211 -0.01347311       0.019
   0.09507899  0.09453211 -0.02020966       0.009
   0.00000000 -0.06302140  0.00000000       0.009
   0.03169300 -0.06302140 -0.00673655       0.019
   0.06338599 -0.06302140 -0.01347311       0.019
   0.09507899 -0.06302140 -0.02020966       0.009
   0.00000000 -0.03151070  0.00000000       0.009
   0.03169300 -0.03151070 -0.00673655       0.019
   0.06338599 -0.03151070 -0.01347311       0.019
   0.09507899 -0.03151070 -0.02020966       0.009
   0.00000000  0.00000000  0.03274109       0.019
   0.03169300  0.00000000  0.02600453       0.019
   0.06338599  0.00000000  0.01926798       0.019
   0.09507899  0.00000000  0.01253142       0.019
  -0.06338599  0.00000000  0.04621420       0.019
  -0.03169300  0.00000000  0.03947764       0.019
   0.00000000  0.03151070  0.03274109       0.019
   0.03169300  0.03151070  0.02600453       0.019
   0.06338599  0.03151070  0.01926798       0.019
   0.09507899  0.03151070  0.01253142       0.019
  -0.06338599  0.03151070  0.04621420       0.019
  -0.03169300  0.03151070  0.03947764       0.019
   0.00000000  0.06302140  0.03274109       0.019
   0.03169300  0.06302140  0.02600453       0.019
   0.06338599  0.06302140  0.01926798       0.019
   0.09507899  0.06302140  0.01253142       0.019
  -0.06338599  0.06302140  0.04621420       0.019
  -0.03169300  0.06302140  0.03947764       0.019
   0.00000000  0.09453211  0.03274109       0.019
   0.03169300  0.09453211  0.02600453       0.019
   0.06338599  0.09453211  0.01926798       0.019
   0.09507899  0.09453211  0.01253142       0.019
  -0.06338599  0.09453211  0.04621420       0.019
  -0.03169300  0.09453211  0.03947764       0.019
   0.00000000 -0.06302140  0.03274109       0.019
   0.03169300 -0.06302140  0.02600453       0.019
   0.06338599 -0.06302140  0.01926798       0.019
   0.09507899 -0.06302140  0.01253142       0.019
  -0.06338599 -0.06302140  0.04621420       0.019
  -0.03169300 -0.06302140  0.03947764       0.019
   0.00000000 -0.03151070  0.03274109       0.019
   0.03169300 -0.03151070  0.02600453       0.019
   0.06338599 -0.03151070  0.01926798       0.019
   0.09507899 -0.03151070  0.01253142       0.019
  -0.06338599 -0.03151070  0.04621420       0.019
  -0.03169300 -0.03151070  0.03947764       0.019
 
 k-points in reciprocal lattice and weights: Automatic mesh                          
   0.00000000  0.00000000  0.00000000       0.009
   0.16666667  0.00000000 -0.00000000       0.019
   0.33333333  0.00000000  0.00000000       0.019
   0.50000000  0.00000000 -0.00000000       0.009
   0.00000000  0.16666667  0.00000000       0.009
   0.16666667  0.16666667 -0.00000000       0.019
   0.33333333  0.16666667  0.00000000       0.019
   0.50000000  0.16666667 -0.00000000       0.009
   0.00000000  0.33333333  0.00000000       0.009
   0.16666667  0.33333333 -0.00000000       0.019
   0.33333333  0.33333333  0.00000000       0.019
   0.50000000  0.33333333 -0.00000000       0.009
   0.00000000  0.50000000  0.00000000       0.009
   0.16666667  0.50000000 -0.00000000       0.019
   0.33333333  0.50000000  0.00000000       0.019
   0.50000000  0.50000000 -0.00000000       0.009
   0.00000000 -0.33333333  0.00000000       0.009
   0.16666667 -0.33333333 -0.00000000       0.019
   0.33333333 -0.33333333  0.00000000       0.019
   0.50000000 -0.33333333 -0.00000000       0.009
   0.00000000 -0.16666667  0.00000000       0.009
   0.16666667 -0.16666667 -0.00000000       0.019
   0.33333333 -0.16666667  0.00000000       0.019
   0.50000000 -0.16666667 -0.00000000       0.009
   0.00000000  0.00000000  0.33333333       0.019
   0.16666667  0.00000000  0.33333333       0.019
   0.33333333  0.00000000  0.33333333       0.019
   0.50000000  0.00000000  0.33333333       0.019
  -0.33333333  0.00000000  0.33333333       0.019
  -0.16666667  0.00000000  0.33333333       0.019
   0.00000000  0.16666667  0.33333333       0.019
   0.16666667  0.16666667  0.33333333       0.019
   0.33333333  0.16666667  0.33333333       0.019
   0.50000000  0.16666667  0.33333333       0.019
  -0.33333333  0.16666667  0.33333333       0.019
  -0.16666667  0.16666667  0.33333333       0.019
   0.00000000  0.33333333  0.33333333       0.019
   0.16666667  0.33333333  0.33333333       0.019
   0.33333333  0.33333333  0.33333333       0.019
   0.50000000  0.33333333  0.33333333       0.019
  -0.33333333  0.33333333  0.33333333       0.019
  -0.16666667  0.33333333  0.33333333       0.019
   0.00000000  0.50000000  0.33333333       0.019
   0.16666667  0.50000000  0.33333333       0.019
   0.33333333  0.50000000  0.33333333       0.019
   0.50000000  0.50000000  0.33333333       0.019
  -0.33333333  0.50000000  0.33333333       0.019
  -0.16666667  0.50000000  0.33333333       0.019
   0.00000000 -0.33333333  0.33333333       0.019
   0.16666667 -0.33333333  0.33333333       0.019
   0.33333333 -0.33333333  0.33333333       0.019
   0.50000000 -0.33333333  0.33333333       0.019
  -0.33333333 -0.33333333  0.33333333       0.019
  -0.16666667 -0.33333333  0.33333333       0.019
   0.00000000 -0.16666667  0.33333333       0.019
   0.16666667 -0.16666667  0.33333333       0.019
   0.33333333 -0.16666667  0.33333333       0.019
   0.50000000 -0.16666667  0.33333333       0.019
  -0.33333333 -0.16666667  0.33333333       0.019
  -0.16666667 -0.16666667  0.33333333       0.019
 
 position of ions in fractional coordinates (direct lattice) 
   0.25503862  0.22184780  0.12712373
   0.74496141  0.72184780  0.12287627
   0.25000000  0.73572088  0.87500000
   0.75000000  0.23613798  0.87500000
   0.24496140  0.22184780  0.62287627
   0.75503859  0.72184780  0.62712373
   0.75000000  0.23572086  0.37500000
   0.25000000  0.73613795  0.37500000
   0.98619601  0.02050792  0.50038683
   0.51380399  0.02050792  0.24961317
   0.48619601  0.52050792  0.00038683
   0.01380399  0.52050792  0.74961317
   0.99106772  0.02171487  0.00353760
   0.50893228  0.02171487  0.74646240
   0.49106772  0.52171487  0.50353760
   0.00893228  0.52171487  0.24646240
 
 position of ions in cartesian coordinates  (Angst):
   1.61629092  1.17339923  1.29423241
   4.18349811  3.81800335  1.25098950
   3.20820898  3.89138093  8.90827669
   5.83760160  1.24898296  8.90827669
   2.63611264  1.17339923  6.34143332
   5.32769062  3.81800335  6.38467624
   4.75559436  1.24677673  3.81783287
   2.12620174  3.89358692  3.81783287
   6.26903735  0.10847064  5.09438210
   3.24215138  0.10847064  2.54128364
   2.55763749  2.75307476  0.00393827
   1.69476599  2.75307476  7.63172746
   5.21946774  0.11485445  0.03601593
   4.29172098  0.11485445  7.59964981
   3.67208236  2.75945857  5.12645975
   0.58032112  2.75945857  2.50920598
 
 Euler angles ALPHA=     0.0000000  BETA=     0.0000000

 transformation matrix from SAXIS to cartesian coordinates
 ---------------------------------------------------------
     1.0000000 m_x     0.0000000 m_y     0.0000000 m_z
     0.0000000 m_x     1.0000000 m_y     0.0000000 m_z
     0.0000000 m_x     0.0000000 m_y     1.0000000 m_z

 transformation matrix from cartesian coordinates to SAXIS
 ---------------------------------------------------------
     1.0000000 m_x     0.0000000 m_y     0.0000000 m_z
     0.0000000 m_x     1.0000000 m_y     0.0000000 m_z
     0.0000000 m_x     0.0000000 m_y     1.0000000 m_z




--------------------------------------------------------------------------------------------------------


 k-point  1 :   0.0000 0.0000 0.0000  plane waves:   23830
 k-point  2 :   0.1667 0.0000-0.0000  plane waves:   23840
 k-point  3 :   0.3333 0.0000 0.0000  plane waves:   23790
 k-point  4 :   0.5000 0.0000-0.0000  plane waves:   23812
 k-point  5 :   0.0000 0.1667 0.0000  plane waves:   23862
 k-point  6 :   0.1667 0.1667-0.0000  plane waves:   23820
 k-point  7 :   0.3333 0.1667 0.0000  plane waves:   23832
 k-point  8 :   0.5000 0.1667-0.0000  plane waves:   23844
 k-point  9 :   0.0000 0.3333 0.0000  plane waves:   23838
 k-point 10 :   0.1667 0.3333-0.0000  plane waves:   23812
 k-point 11 :   0.3333 0.3333 0.0000  plane waves:   23822
 k-point 12 :   0.5000 0.3333-0.0000  plane waves:   23804
 k-point 13 :   0.0000 0.5000 0.0000  plane waves:   23828
 k-point 14 :   0.1667 0.5000-0.0000  plane waves:   23816
 k-point 15 :   0.3333 0.5000 0.0000  plane waves:   23788
 k-point 16 :   0.5000 0.5000-0.0000  plane waves:   23760
 k-point 17 :   0.0000-0.3333 0.0000  plane waves:   23838
 k-point 18 :   0.1667-0.3333-0.0000  plane waves:   23812
 k-point 19 :   0.3333-0.3333 0.0000  plane waves:   23822
 k-point 20 :   0.5000-0.3333-0.0000  plane waves:   23804
 k-point 21 :   0.0000-0.1667 0.0000  plane waves:   23862
 k-point 22 :   0.1667-0.1667-0.0000  plane waves:   23820
 k-point 23 :   0.3333-0.1667 0.0000  plane waves:   23832
 k-point 24 :   0.5000-0.1667-0.0000  plane waves:   23844
 k-point 25 :   0.0000 0.0000 0.3333  plane waves:   23828
 k-point 26 :   0.1667 0.0000 0.3333  plane waves:   23836
 k-point 27 :   0.3333 0.0000 0.3333  plane waves:   23814
 k-point 28 :   0.5000 0.0000 0.3333  plane waves:   23864
 k-point 29 :  -0.3333 0.0000 0.3333  plane waves:   23862
 k-point 30 :  -0.1667 0.0000 0.3333  plane waves:   23844
 k-point 31 :   0.0000 0.1667 0.3333  plane waves:   23840
 k-point 32 :   0.1667 0.1667 0.3333  plane waves:   23836
 k-point 33 :   0.3333 0.1667 0.3333  plane waves:   23812
 k-point 34 :   0.5000 0.1667 0.3333  plane waves:   23850
 k-point 35 :  -0.3333 0.1667 0.3333  plane waves:   23810
 k-point 36 :  -0.1667 0.1667 0.3333  plane waves:   23830
 k-point 37 :   0.0000 0.3333 0.3333  plane waves:   23824
 k-point 38 :   0.1667 0.3333 0.3333  plane waves:   23850
 k-point 39 :   0.3333 0.3333 0.3333  plane waves:   23778
 k-point 40 :   0.5000 0.3333 0.3333  plane waves:   23762
 k-point 41 :  -0.3333 0.3333 0.3333  plane waves:   23796
 k-point 42 :  -0.1667 0.3333 0.3333  plane waves:   23812
 k-point 43 :   0.0000 0.5000 0.3333  plane waves:   23848
 k-point 44 :   0.1667 0.5000 0.3333  plane waves:   23828
 k-point 45 :   0.3333 0.5000 0.3333  plane waves:   23760
 k-point 46 :   0.5000 0.5000 0.3333  plane waves:   23736
 k-point 47 :  -0.3333 0.5000 0.3333  plane waves:   23760
 k-point 48 :  -0.1667 0.5000 0.3333  plane waves:   23840
 k-point 49 :   0.0000-0.3333 0.3333  plane waves:   23824
 k-point 50 :   0.1667-0.3333 0.3333  plane waves:   23850
 k-point 51 :   0.3333-0.3333 0.3333  plane waves:   23778
 k-point 52 :   0.5000-0.3333 0.3333  plane waves:   23762
 k-point 53 :  -0.3333-0.3333 0.3333  plane waves:   23796
 k-point 54 :  -0.1667-0.3333 0.3333  plane waves:   23812
 k-point 55 :   0.0000-0.1667 0.3333  plane waves:   23840
 k-point 56 :   0.1667-0.1667 0.3333  plane waves:   23836
 k-point 57 :   0.3333-0.1667 0.3333  plane waves:   23812
 k-point 58 :   0.5000-0.1667 0.3333  plane waves:   23850
 k-point 59 :  -0.3333-0.1667 0.3333  plane waves:   23810
 k-point 60 :  -0.1667-0.1667 0.3333  plane waves:   23830

 maximum and minimum number of plane-waves per node :     23864    23736

 maximum number of plane-waves:     23864
 maximum index in each direction: 
   IXMAX=   11   IYMAX=   11   IZMAX=   22
   IXMIN=  -11   IYMIN=  -11   IZMIN=  -22


 serial   3D FFT for wavefunctions
 parallel 3D FFT for charge:
    minimum data exchange during FFTs selected (reduces bandwidth)


 total amount of memory used by VASP MPI-rank0   403236. kBytes
=======================================================================

   base      :      30000. kBytes
   nonl-proj :     314949. kBytes
   fftplans  :       2735. kBytes
   grid      :      30965. kBytes
   one-center:        995. kBytes
   wavefun   :      23592. kBytes
 
     INWAV:  cpu time   15.3846: real time   15.5082
 Broyden mixing: mesh for mixing (old mesh)
   NGX = 23   NGY = 23   NGZ = 45
  (NGX  = 96   NGY  = 96   NGZ  =180)
  gives a total of  23805 points

 initial charge density was supplied:
 number of electron     172.0000000 magnetization       0.0000000     -0.0000192     -0.0000000
 keeping initial charge density in first step


--------------------------------------------------------------------------------------------------------


 Maximum index for augmentation-charges          887 (set IRDMAX)


--------------------------------------------------------------------------------------------------------


 First call to EWALD:  gamma=   0.270
 Maximum number of real-space cells 3x 3x 2
 Maximum number of reciprocal cells 2x 2x 4

    FEWALD:  cpu time    0.0018: real time    0.0018


--------------------------------------- Iteration      1(   1)  ---------------------------------------


    POTLOK:  cpu time    0.2526: real time    0.3006
    SETDIJ:  cpu time    0.5941: real time    0.5959
     EDDAV:  cpu time   76.8675: real time   77.3296
 BZINTS: Fermi energy:  5.214102;172.000000 electrons
         Band energy:***********;  BLOECHL correction:  0.000000
       DOS:  cpu time    0.0408: real time    0.0411
    CHARGE:  cpu time    1.4704: real time    1.4818
    MIXING:  cpu time    0.0028: real time    0.0028
    --------------------------------------------
      LOOP:  cpu time   79.2282: real time   79.7518

 eigenvalue-minimisations  : 30720
 total energy-change (2. order) :-0.8109184E+02  (-0.1940414E+00)
 number of electron     172.0000000 magnetization       0.0000000      0.0013231     -0.0000000
 augmentation part       70.5873206 magnetization       0.0000000     -0.0018534     -0.0000000

 Broyden mixing:
  rms(total) = 0.78845E-01    rms(broyden)= 0.78844E-01
  rms(prec ) = 0.78901E-01
  weight for this iteration     100.00

 Free energy of the ion-electron system (eV)
  ---------------------------------------------------
  alpha Z        PSCENC =       598.37288323
  Ewald energy   TEWEN  =    -15733.27316759
  -Hartree energ DENC   =    -10671.30997340
  -exchange      EXHF   =         0.00000000
  -V(xc)+E(xc)   XCENC  =       821.59041244
  PAW double counting   =     27966.48820627   -28888.03063340
  entropy T*S    EENTRO =         0.00000000
  eigenvalues    EBANDS =     -2679.94583993
  atomic energy  EATOM  =     28505.01627691
  Solvation  Ediel_sol  =         0.00000000
  ---------------------------------------------------
  free energy    TOTEN  =       -81.09183548 eV

  energy without entropy =      -81.09183548  energy(sigma->0) =      -81.09183548


--------------------------------------------------------------------------------------------------------




--------------------------------------- Iteration      1(   2)  ---------------------------------------


    POTLOK:  cpu time    0.1248: real time    0.1277
    SETDIJ:  cpu time    0.5930: real time    0.5948
     EDDAV:  cpu time   80.6641: real time   81.0966
 BZINTS: Fermi energy:  5.307880;172.000000 electrons
         Band energy:***********;  BLOECHL correction:  0.000000
       DOS:  cpu time    0.0408: real time    0.0410
    CHARGE:  cpu time    1.4630: real time    1.4749
    MIXING:  cpu time    0.0020: real time    0.0091
    --------------------------------------------
      LOOP:  cpu time   82.8877: real time   83.3440

 eigenvalue-minimisations  : 30720
 total energy-change (2. order) :-0.9485344E-02  (-0.7030616E-02)
 number of electron     172.0000000 magnetization       0.0000000      0.0014332     -0.0000000
 augmentation part       70.5890832 magnetization       0.0000000     -0.0018404     -0.0000000

 Broyden mixing:
  rms(total) = 0.46936E-01    rms(broyden)= 0.46936E-01
  rms(prec ) = 0.47163E-01
  weight for this iteration     100.00

 eigenvalues of (default mixing * dielectric matrix)
  average eigenvalue GAMMA=   0.6362
  0.6362

 Free energy of the ion-electron system (eV)
  ---------------------------------------------------
  alpha Z        PSCENC =       598.37288323
  Ewald energy   TEWEN  =    -15733.27316759
  -Hartree energ DENC   =    -10671.01877404
  -exchange      EXHF   =         0.00000000
  -V(xc)+E(xc)   XCENC  =       821.57690299
  PAW double counting   =     27966.99478727   -28888.50766588
  entropy T*S    EENTRO =         0.00000000
  eigenvalues    EBANDS =     -2680.26256370
  atomic energy  EATOM  =     28505.01627691
  Solvation  Ediel_sol  =         0.00000000
  ---------------------------------------------------
  free energy    TOTEN  =       -81.10132082 eV

  energy without entropy =      -81.10132082  energy(sigma->0) =      -81.10132082


--------------------------------------------------------------------------------------------------------




--------------------------------------- Iteration      1(   3)  ---------------------------------------


    POTLOK:  cpu time    0.1257: real time    0.1281
    SETDIJ:  cpu time    0.5905: real time    0.5923
     EDDAV:  cpu time  355.6066: real time  357.3217
 BZINTS: Fermi energy:  5.253060;172.000000 electrons
         Band energy:***********;  BLOECHL correction:  0.000000
       DOS:  cpu time    0.0416: real time    0.0418
    CHARGE:  cpu time    1.4612: real time    1.4730
    MIXING:  cpu time    0.0015: real time    0.0015
    --------------------------------------------
      LOOP:  cpu time  357.8273: real time  359.5586

 eigenvalue-minimisations  : 59392
 total energy-change (2. order) :-0.1289037E-02  (-0.1763815E-02)
 number of electron     172.0000000 magnetization      -0.0000000      0.0008393     -0.0000000
 augmentation part       70.5894056 magnetization      -0.0000000     -0.0008119     -0.0000000

 Broyden mixing:
  rms(total) = 0.13498E-01    rms(broyden)= 0.13497E-01
  rms(prec ) = 0.14301E-01
  weight for this iteration     100.00

 eigenvalues of (default mixing * dielectric matrix)
  average eigenvalue GAMMA=   0.5972
  0.6676  0.5267

 Free energy of the ion-electron system (eV)
  ---------------------------------------------------
  alpha Z        PSCENC =       598.37288323
  Ewald energy   TEWEN  =    -15733.27316759
  -Hartree energ DENC   =    -10671.19822237
  -exchange      EXHF   =         0.00000000
  -V(xc)+E(xc)   XCENC  =       821.58439150
  PAW double counting   =     27967.85624565   -28889.39263745
  entropy T*S    EENTRO =         0.00000000
  eigenvalues    EBANDS =     -2680.06837974
  atomic energy  EATOM  =     28505.01627691
  Solvation  Ediel_sol  =         0.00000000
  ---------------------------------------------------
  free energy    TOTEN  =       -81.10260986 eV

  energy without entropy =      -81.10260986  energy(sigma->0) =      -81.10260986


--------------------------------------------------------------------------------------------------------




--------------------------------------- Iteration      1(   4)  ---------------------------------------


    POTLOK:  cpu time    0.1238: real time    0.1270
    SETDIJ:  cpu time    0.5929: real time    0.5948
     EDDAV:  cpu time   81.2777: real time   81.7109
 BZINTS: Fermi energy:  5.240607;172.000000 electrons
         Band energy:***********;  BLOECHL correction:  0.000000
       DOS:  cpu time    0.0352: real time    0.0353
    CHARGE:  cpu time    1.4593: real time    1.4710
    MIXING:  cpu time    0.0017: real time    0.0017
    --------------------------------------------
      LOOP:  cpu time   83.4904: real time   83.9406

 eigenvalue-minimisations  : 30720
 total energy-change (2. order) :-0.2365315E-03  (-0.3054686E-02)
 number of electron     172.0000000 magnetization       0.0000000     -0.0007876     -0.0000000
 augmentation part       70.5888248 magnetization       0.0000000     -0.0020205     -0.0000000

 Broyden mixing:
  rms(total) = 0.14543E-01    rms(broyden)= 0.14543E-01
  rms(prec ) = 0.15014E-01
  weight for this iteration     100.00

 eigenvalues of (default mixing * dielectric matrix)
  average eigenvalue GAMMA=   0.7591
  1.3647  0.6276  0.2849

 Free energy of the ion-electron system (eV)
  ---------------------------------------------------
  alpha Z        PSCENC =       598.37288323
  Ewald energy   TEWEN  =    -15733.27316759
  -Hartree energ DENC   =    -10671.04985492
  -exchange      EXHF   =         0.00000000
  -V(xc)+E(xc)   XCENC  =       821.57507356
  PAW double counting   =     27968.49669232   -28890.03757077
  entropy T*S    EENTRO =         0.00000000
  eigenvalues    EBANDS =     -2680.20317912
  atomic energy  EATOM  =     28505.01627691
  Solvation  Ediel_sol  =         0.00000000
  ---------------------------------------------------
  free energy    TOTEN  =       -81.10284639 eV

  energy without entropy =      -81.10284639  energy(sigma->0) =      -81.10284639


--------------------------------------------------------------------------------------------------------




--------------------------------------- Iteration      1(   5)  ---------------------------------------


    POTLOK:  cpu time    0.1230: real time    0.1274
    SETDIJ:  cpu time    0.5911: real time    0.5929
     EDDAV:  cpu time  378.9225: real time  380.7301
 BZINTS: Fermi energy:  5.226015;172.000000 electrons
         Band energy:***********;  BLOECHL correction:  0.000000
       DOS:  cpu time    0.0352: real time    0.0353
 


 total charge     
 
# of ion       s       p       d       tot
------------------------------------------
    1        1.320   2.392   0.000   3.712
    2        1.320   2.392   0.000   3.712
    3        1.322   2.381   0.000   3.703
    4        1.315   2.404   0.000   3.719
    5        1.320   2.392   0.000   3.712
    6        1.320   2.392   0.000   3.712
    7        1.322   2.381   0.000   3.703
    8        1.315   2.404   0.000   3.719
    9        0.255   6.197   8.917  15.370
   10        0.255   6.197   8.917  15.370
   11        0.255   6.197   8.917  15.370
   12        0.255   6.197   8.917  15.370
   13        0.338   6.336   5.838  12.512
   14        0.338   6.336   5.838  12.512
   15        0.338   6.336   5.838  12.512
   16        0.338   6.336   5.838  12.512
--------------------------------------------------
tot         12.927  69.268  59.022 141.217
 


 magnetization (x)
 
# of ion       s       p       d       tot
------------------------------------------
    1       -0.000   0.000   0.000  -0.000
    2        0.000  -0.000   0.000  -0.000
    3       -0.000  -0.000   0.000  -0.000
    4        0.000  -0.000   0.000  -0.000
    5        0.000  -0.000   0.000  -0.000
    6       -0.000   0.000   0.000  -0.000
    7       -0.000  -0.000   0.000  -0.000
    8        0.000  -0.000   0.000  -0.000
    9        0.000   0.000   0.000   0.000
   10        0.000  -0.000  -0.000  -0.000
   11        0.000   0.000   0.000   0.000
   12        0.000  -0.000  -0.000  -0.000
   13        0.000   0.000   0.001   0.001
   14       -0.000  -0.000  -0.001  -0.001
   15        0.000   0.000   0.001   0.001
   16       -0.000  -0.000  -0.001  -0.001
--------------------------------------------------
tot         -0.000  -0.000  -0.000  -0.001
 


 magnetization (y)
 
# of ion       s       p       d       tot
------------------------------------------
    1       -0.000  -0.000   0.000  -0.000
    2       -0.000  -0.000   0.000  -0.000
    3       -0.000   0.000   0.000   0.000
    4       -0.000   0.000   0.000   0.000
    5       -0.000  -0.000   0.000  -0.000
    6       -0.000  -0.000   0.000  -0.000
    7       -0.000   0.000   0.000   0.000
    8       -0.000   0.000   0.000   0.000
    9       -0.000   0.000   0.000   0.000
   10       -0.000   0.000   0.000   0.000
   11       -0.000   0.000   0.000   0.000
   12       -0.000   0.000   0.000   0.000
   13        0.000   0.000  -0.002  -0.002
   14        0.000   0.000  -0.002  -0.002
   15        0.000   0.000  -0.002  -0.002
   16        0.000   0.000  -0.002  -0.002
--------------------------------------------------
tot          0.000   0.001  -0.007  -0.007
 


 magnetization (z)
 
# of ion       s       p       d       tot
------------------------------------------
    1       -0.001  -0.058   0.000  -0.059
    2        0.001   0.058   0.000   0.059
    3        0.000   0.000   0.000   0.000
    4       -0.000  -0.000   0.000  -0.000
    5        0.001   0.058   0.000   0.059
    6       -0.001  -0.058   0.000  -0.059
    7        0.000   0.000   0.000   0.000
    8       -0.000  -0.000   0.000  -0.000
    9        0.001   0.002  -0.015  -0.012
   10       -0.001  -0.002   0.016   0.013
   11        0.001   0.002  -0.015  -0.012
   12       -0.001  -0.002   0.016   0.013
   13        0.022   0.053   3.638   3.713
   14       -0.022  -0.053  -3.638  -3.713
   15        0.022   0.053   3.638   3.713
   16       -0.022  -0.053  -3.638  -3.713
--------------------------------------------------
tot         -0.000  -0.000   0.001   0.000
 
    CHARGE:  cpu time    1.6439: real time    1.6560
    MIXING:  cpu time    0.0018: real time    0.0018
    --------------------------------------------
      LOOP:  cpu time  381.3176: real time  383.1435

 eigenvalue-minimisations  : 60928
 total energy-change (2. order) :-0.1896784E-03  (-0.2277249E-02)
 number of electron     172.0000000 magnetization       0.0000000     -0.0019274     -0.0000000
 augmentation part       70.5892778 magnetization       0.0000000     -0.0021260     -0.0000000

 Broyden mixing:
  rms(total) = 0.74463E-02    rms(broyden)= 0.74460E-02
  rms(prec ) = 0.77496E-02
  weight for this iteration     100.00

 eigenvalues of (default mixing * dielectric matrix)
  average eigenvalue GAMMA=   0.7306
  1.6117  0.6310  0.3955  0.2842

 Free energy of the ion-electron system (eV)
  ---------------------------------------------------
  alpha Z        PSCENC =       598.37288323
  Ewald energy   TEWEN  =    -15733.27316759
  -Hartree energ DENC   =    -10671.07954957
  -exchange      EXHF   =         0.00000000
  -V(xc)+E(xc)   XCENC  =       821.57286971
  PAW double counting   =     27969.78662122   -28891.33763848
  entropy T*S    EENTRO =         0.00000000
  eigenvalues    EBANDS =     -2680.16133150
  atomic energy  EATOM  =     28505.01627691
  Solvation  Ediel_sol  =         0.00000000
  ---------------------------------------------------
  free energy    TOTEN  =       -81.10303607 eV

  energy without entropy =      -81.10303607  energy(sigma->0) =      -81.10303607


--------------------------------------------------------------------------------------------------------




--------------------------------------- Iteration      1(   6)  ---------------------------------------


    POTLOK:  cpu time    0.1265: real time    0.1274
    SETDIJ:  cpu time    0.5891: real time    0.5911
     EDDAV:  cpu time   80.9190: real time   81.3517
 BZINTS: Fermi energy:  5.224498;172.000000 electrons
         Band energy:***********;  BLOECHL correction:  0.000000
       DOS:  cpu time    0.0355: real time    0.0356
    CHARGE:  cpu time    1.4571: real time    1.4685
    MIXING:  cpu time    0.0019: real time    0.0019
    --------------------------------------------
      LOOP:  cpu time   83.1291: real time   83.5762

 eigenvalue-minimisations  : 30720
 total energy-change (2. order) :-0.4265709E-04  (-0.1536006E-02)
 number of electron     172.0000000 magnetization       0.0000000     -0.0036256     -0.0000000
 augmentation part       70.5891200 magnetization       0.0000000     -0.0020850     -0.0000000

 Broyden mixing:
  rms(total) = 0.55467E-02    rms(broyden)= 0.55466E-02
  rms(prec ) = 0.55556E-02
  weight for this iteration     100.00

 eigenvalues of (default mixing * dielectric matrix)
  average eigenvalue GAMMA=   0.7303
  1.8088  0.6941  0.6146  0.3155  0.2185

 Free energy of the ion-electron system (eV)
  ---------------------------------------------------
  alpha Z        PSCENC =       598.37288323
  Ewald energy   TEWEN  =    -15733.27316759
  -Hartree energ DENC   =    -10671.13637164
  -exchange      EXHF   =         0.00000000
  -V(xc)+E(xc)   XCENC  =       821.57566150
  PAW double counting   =     27970.18601892   -28891.74125315
  entropy T*S    EENTRO =         0.00000000
  eigenvalues    EBANDS =     -2680.10312690
  atomic energy  EATOM  =     28505.01627691
  Solvation  Ediel_sol  =         0.00000000
  ---------------------------------------------------
  free energy    TOTEN  =       -81.10307872 eV

  energy without entropy =      -81.10307872  energy(sigma->0) =      -81.10307872


--------------------------------------------------------------------------------------------------------




--------------------------------------- Iteration      1(   7)  ---------------------------------------


    POTLOK:  cpu time    0.1268: real time    0.1278
    SETDIJ:  cpu time    0.5924: real time    0.5943
     EDDAV:  cpu time  267.8301: real time  269.1158
 BZINTS: Fermi energy:  5.222362;172.000000 electrons
         Band energy:***********;  BLOECHL correction:  0.000000
       DOS:  cpu time    0.0353: real time    0.0354
    CHARGE:  cpu time    1.4641: real time    1.4763
    MIXING:  cpu time    0.0019: real time    0.0019
    --------------------------------------------
      LOOP:  cpu time  270.0504: real time  271.3514

 eigenvalue-minimisations  : 49664
 total energy-change (2. order) :-0.4443950E-04  (-0.9421030E-03)
 number of electron     172.0000000 magnetization       0.0000000     -0.0050185     -0.0000000
 augmentation part       70.5888304 magnetization       0.0000000     -0.0035273     -0.0000000

 Broyden mixing:
  rms(total) = 0.37528E-02    rms(broyden)= 0.37527E-02
  rms(prec ) = 0.37661E-02
  weight for this iteration     100.00

 eigenvalues of (default mixing * dielectric matrix)
  average eigenvalue GAMMA=   0.7021
  1.9082  0.8598  0.6237  0.3510  0.2688  0.2011

 Free energy of the ion-electron system (eV)
  ---------------------------------------------------
  alpha Z        PSCENC =       598.37288323
  Ewald energy   TEWEN  =    -15733.27316759
  -Hartree energ DENC   =    -10671.14575290
  -exchange      EXHF   =         0.00000000
  -V(xc)+E(xc)   XCENC  =       821.57578757
  PAW double counting   =     27970.39489482   -28891.95112112
  entropy T*S    EENTRO =         0.00000000
  eigenvalues    EBANDS =     -2680.09292408
  atomic energy  EATOM  =     28505.01627691
  Solvation  Ediel_sol  =         0.00000000
  ---------------------------------------------------
  free energy    TOTEN  =       -81.10312316 eV

  energy without entropy =      -81.10312316  energy(sigma->0) =      -81.10312316


--------------------------------------------------------------------------------------------------------




--------------------------------------- Iteration      1(   8)  ---------------------------------------


    POTLOK:  cpu time    0.1260: real time    0.1269
    SETDIJ:  cpu time    0.5913: real time    0.5932
     EDDAV:  cpu time  101.2313: real time  101.7512
 BZINTS: Fermi energy:  5.222186;172.000000 electrons
         Band energy:***********;  BLOECHL correction:  0.000000
       DOS:  cpu time    0.0352: real time    0.0353
    CHARGE:  cpu time    1.4617: real time    1.4750
    MIXING:  cpu time    0.0020: real time    0.0020
    --------------------------------------------
      LOOP:  cpu time  103.4476: real time  103.9837

 eigenvalue-minimisations  : 33024
 total energy-change (2. order) :-0.8288158E-04  (-0.6309592E-03)
 number of electron     172.0000000 magnetization       0.0000000     -0.0062657     -0.0000000
 augmentation part       70.5889580 magnetization       0.0000000     -0.0040911     -0.0000000

 Broyden mixing:
  rms(total) = 0.27871E-02    rms(broyden)= 0.27870E-02
  rms(prec ) = 0.27919E-02
  weight for this iteration     100.00

 eigenvalues of (default mixing * dielectric matrix)
  average eigenvalue GAMMA=   0.6836
  1.9916  1.0125  0.6238  0.4640  0.3078  0.2240  0.1617

 Free energy of the ion-electron system (eV)
  ---------------------------------------------------
  alpha Z        PSCENC =       598.37288323
  Ewald energy   TEWEN  =    -15733.27316759
  -Hartree energ DENC   =    -10671.13583412
  -exchange      EXHF   =         0.00000000
  -V(xc)+E(xc)   XCENC  =       821.57516321
  PAW double counting   =     27970.42870647   -28891.98383214
  entropy T*S    EENTRO =         0.00000000
  eigenvalues    EBANDS =     -2680.10340200
  atomic energy  EATOM  =     28505.01627691
  Solvation  Ediel_sol  =         0.00000000
  ---------------------------------------------------
  free energy    TOTEN  =       -81.10320605 eV

  energy without entropy =      -81.10320605  energy(sigma->0) =      -81.10320605


--------------------------------------------------------------------------------------------------------




--------------------------------------- Iteration      1(   9)  ---------------------------------------


    POTLOK:  cpu time    0.1251: real time    0.1260
    SETDIJ:  cpu time    0.5903: real time    0.5922
     EDDAV:  cpu time  217.1095: real time  218.1595
 BZINTS: Fermi energy:  5.222151;172.000000 electrons
         Band energy:***********;  BLOECHL correction:  0.000000
       DOS:  cpu time    0.0355: real time    0.0356
    CHARGE:  cpu time    1.4589: real time    1.4714
    MIXING:  cpu time    0.0022: real time    0.0022
    --------------------------------------------
      LOOP:  cpu time  219.3214: real time  220.3868

 eigenvalue-minimisations  : 44800
 total energy-change (2. order) : 0.1847087E-04  (-0.3235485E-03)
 number of electron     172.0000000 magnetization       0.0000000     -0.0077100     -0.0000000
 augmentation part       70.5890801 magnetization       0.0000000     -0.0053376     -0.0000000

 Broyden mixing:
  rms(total) = 0.18266E-02    rms(broyden)= 0.18265E-02
  rms(prec ) = 0.18357E-02
  weight for this iteration     100.00

 eigenvalues of (default mixing * dielectric matrix)
  average eigenvalue GAMMA=   0.6805
  2.0976  1.2016  0.6168  0.5980  0.2988  0.2401  0.2401  0.1506

 Free energy of the ion-electron system (eV)
  ---------------------------------------------------
  alpha Z        PSCENC =       598.37288323
  Ewald energy   TEWEN  =    -15733.27316759
  -Hartree energ DENC   =    -10671.13088925
  -exchange      EXHF   =         0.00000000
  -V(xc)+E(xc)   XCENC  =       821.57498882
  PAW double counting   =     27970.42385415   -28891.97813543
  entropy T*S    EENTRO =         0.00000000
  eigenvalues    EBANDS =     -2680.10899841
  atomic energy  EATOM  =     28505.01627691
  Solvation  Ediel_sol  =         0.00000000
  ---------------------------------------------------
  free energy    TOTEN  =       -81.10318757 eV

  energy without entropy =      -81.10318757  energy(sigma->0) =      -81.10318757


--------------------------------------------------------------------------------------------------------




--------------------------------------- Iteration      1(  10)  ---------------------------------------


    POTLOK:  cpu time    0.1253: real time    0.1261
    SETDIJ:  cpu time    0.5898: real time    0.5916
     EDDAV:  cpu time   82.5144: real time   82.9485
 BZINTS: Fermi energy:  5.221920;172.000000 electrons
         Band energy:***********;  BLOECHL correction:  0.000000
       DOS:  cpu time    0.0352: real time    0.0353
 


 total charge     
 
# of ion       s       p       d       tot
------------------------------------------
    1        1.320   2.392   0.000   3.712
    2        1.320   2.392   0.000   3.712
    3        1.322   2.381   0.000   3.703
    4        1.315   2.404   0.000   3.718
    5        1.320   2.392   0.000   3.712
    6        1.320   2.392   0.000   3.712
    7        1.322   2.381   0.000   3.703
    8        1.315   2.404   0.000   3.718
    9        0.255   6.197   8.917  15.369
   10        0.255   6.197   8.917  15.369
[...]
     0.0000000     0.0000000     0.0000000     0.0000000     0.0000000     0.0000000     0.0000000

 Ion:    5  E_soc:     -0.0017626
 l=   1
     0.0000000    -0.0002569    -0.0003591
    -0.0002569     0.0000000    -0.0002653
    -0.0003591    -0.0002653     0.0000000
 l=   2
     0.0000000     0.0000000     0.0000000     0.0000000     0.0000000
     0.0000000     0.0000000     0.0000000     0.0000000     0.0000000
     0.0000000     0.0000000     0.0000000     0.0000000     0.0000000
     0.0000000     0.0000000     0.0000000     0.0000000     0.0000000
     0.0000000     0.0000000     0.0000000     0.0000000     0.0000000
 l=   3
     0.0000000     0.0000000     0.0000000     0.0000000     0.0000000     0.0000000     0.0000000
     0.0000000     0.0000000     0.0000000     0.0000000     0.0000000     0.0000000     0.0000000
     0.0000000     0.0000000     0.0000000     0.0000000     0.0000000     0.0000000     0.0000000
     0.0000000     0.0000000     0.0000000     0.0000000     0.0000000     0.0000000     0.0000000
     0.0000000     0.0000000     0.0000000     0.0000000     0.0000000     0.0000000     0.0000000
     0.0000000     0.0000000     0.0000000     0.0000000     0.0000000     0.0000000     0.0000000
     0.0000000     0.0000000     0.0000000     0.0000000     0.0000000     0.0000000     0.0000000

 Ion:    6  E_soc:     -0.0017626
 l=   1
     0.0000000    -0.0002569    -0.0003591
    -0.0002569     0.0000000    -0.0002653
    -0.0003591    -0.0002653     0.0000000
 l=   2
     0.0000000     0.0000000     0.0000000     0.0000000     0.0000000
     0.0000000     0.0000000     0.0000000     0.0000000     0.0000000
     0.0000000     0.0000000     0.0000000     0.0000000     0.0000000
     0.0000000     0.0000000     0.0000000     0.0000000     0.0000000
     0.0000000     0.0000000     0.0000000     0.0000000     0.0000000
 l=   3
     0.0000000     0.0000000     0.0000000     0.0000000     0.0000000     0.0000000     0.0000000
     0.0000000     0.0000000     0.0000000     0.0000000     0.0000000     0.0000000     0.0000000
     0.0000000     0.0000000     0.0000000     0.0000000     0.0000000     0.0000000     0.0000000
     0.0000000     0.0000000     0.0000000     0.0000000     0.0000000     0.0000000     0.0000000
     0.0000000     0.0000000     0.0000000     0.0000000     0.0000000     0.0000000     0.0000000
     0.0000000     0.0000000     0.0000000     0.0000000     0.0000000     0.0000000     0.0000000
     0.0000000     0.0000000     0.0000000     0.0000000     0.0000000     0.0000000     0.0000000

 Ion:    7  E_soc:     -0.0017926
 l=   1
     0.0000000    -0.0002599    -0.0003838
    -0.0002599     0.0000000    -0.0002527
    -0.0003838    -0.0002527     0.0000000
 l=   2
     0.0000000     0.0000000     0.0000000     0.0000000     0.0000000
     0.0000000     0.0000000     0.0000000     0.0000000     0.0000000
     0.0000000     0.0000000     0.0000000     0.0000000     0.0000000
     0.0000000     0.0000000     0.0000000     0.0000000     0.0000000
     0.0000000     0.0000000     0.0000000     0.0000000     0.0000000
 l=   3
     0.0000000     0.0000000     0.0000000     0.0000000     0.0000000     0.0000000     0.0000000
     0.0000000     0.0000000     0.0000000     0.0000000     0.0000000     0.0000000     0.0000000
     0.0000000     0.0000000     0.0000000     0.0000000     0.0000000     0.0000000     0.0000000
     0.0000000     0.0000000     0.0000000     0.0000000     0.0000000     0.0000000     0.0000000
     0.0000000     0.0000000     0.0000000     0.0000000     0.0000000     0.0000000     0.0000000
     0.0000000     0.0000000     0.0000000     0.0000000     0.0000000     0.0000000     0.0000000
     0.0000000     0.0000000     0.0000000     0.0000000     0.0000000     0.0000000     0.0000000

 Ion:    8  E_soc:     -0.0016792
 l=   1
     0.0000000    -0.0002639    -0.0003219
    -0.0002639     0.0000000    -0.0002538
    -0.0003219    -0.0002538     0.0000000
 l=   2
     0.0000000     0.0000000     0.0000000     0.0000000     0.0000000
     0.0000000     0.0000000     0.0000000     0.0000000     0.0000000
     0.0000000     0.0000000     0.0000000     0.0000000     0.0000000
     0.0000000     0.0000000     0.0000000     0.0000000     0.0000000
     0.0000000     0.0000000     0.0000000     0.0000000     0.0000000
 l=   3
     0.0000000     0.0000000     0.0000000     0.0000000     0.0000000     0.0000000     0.0000000
     0.0000000     0.0000000     0.0000000     0.0000000     0.0000000     0.0000000     0.0000000
     0.0000000     0.0000000     0.0000000     0.0000000     0.0000000     0.0000000     0.0000000
     0.0000000     0.0000000     0.0000000     0.0000000     0.0000000     0.0000000     0.0000000
     0.0000000     0.0000000     0.0000000     0.0000000     0.0000000     0.0000000     0.0000000
     0.0000000     0.0000000     0.0000000     0.0000000     0.0000000     0.0000000     0.0000000
     0.0000000     0.0000000     0.0000000     0.0000000     0.0000000     0.0000000     0.0000000

 Ion:    9  E_soc:     -0.0619354
 l=   1
     0.0000000    -0.0085691    -0.0085628
    -0.0085691     0.0000000    -0.0085677
    -0.0085628    -0.0085677     0.0000000
 l=   2
     0.0000000    -0.0004001     0.0000000    -0.0003786    -0.0013629
    -0.0004001     0.0000000    -0.0010938    -0.0003155    -0.0003524
     0.0000000    -0.0010938     0.0000000    -0.0010279     0.0000000
    -0.0003786    -0.0003155    -0.0010279     0.0000000    -0.0003369
    -0.0013629    -0.0003524     0.0000000    -0.0003369     0.0000000
 l=   3
     0.0000000     0.0000000     0.0000000     0.0000000     0.0000000     0.0000000     0.0000000
     0.0000000     0.0000000     0.0000000     0.0000000     0.0000000     0.0000000     0.0000000
     0.0000000     0.0000000     0.0000000     0.0000000     0.0000000     0.0000000     0.0000000
     0.0000000     0.0000000     0.0000000     0.0000000     0.0000000     0.0000000     0.0000000
     0.0000000     0.0000000     0.0000000     0.0000000     0.0000000     0.0000000     0.0000000
     0.0000000     0.0000000     0.0000000     0.0000000     0.0000000     0.0000000     0.0000000
     0.0000000     0.0000000     0.0000000     0.0000000     0.0000000     0.0000000     0.0000000

 Ion:   10  E_soc:     -0.0619354
 l=   1
     0.0000000    -0.0085691    -0.0085628
    -0.0085691     0.0000000    -0.0085677
    -0.0085628    -0.0085677     0.0000000
 l=   2
     0.0000000    -0.0004001     0.0000000    -0.0003786    -0.0013629
    -0.0004001     0.0000000    -0.0010938    -0.0003155    -0.0003524
     0.0000000    -0.0010938     0.0000000    -0.0010279     0.0000000
    -0.0003786    -0.0003155    -0.0010279     0.0000000    -0.0003369
    -0.0013629    -0.0003524     0.0000000    -0.0003369     0.0000000
 l=   3
     0.0000000     0.0000000     0.0000000     0.0000000     0.0000000     0.0000000     0.0000000
     0.0000000     0.0000000     0.0000000     0.0000000     0.0000000     0.0000000     0.0000000
     0.0000000     0.0000000     0.0000000     0.0000000     0.0000000     0.0000000     0.0000000
     0.0000000     0.0000000     0.0000000     0.0000000     0.0000000     0.0000000     0.0000000
     0.0000000     0.0000000     0.0000000     0.0000000     0.0000000     0.0000000     0.0000000
     0.0000000     0.0000000     0.0000000     0.0000000     0.0000000     0.0000000     0.0000000
     0.0000000     0.0000000     0.0000000     0.0000000     0.0000000     0.0000000     0.0000000

 Ion:   11  E_soc:     -0.0619354
 l=   1
     0.0000000    -0.0085691    -0.0085628
    -0.0085691     0.0000000    -0.0085677
    -0.0085628    -0.0085677     0.0000000
 l=   2
     0.0000000    -0.0004001     0.0000000    -0.0003786    -0.0013629
    -0.0004001     0.0000000    -0.0010938    -0.0003155    -0.0003524
     0.0000000    -0.0010938     0.0000000    -0.0010279     0.0000000
    -0.0003786    -0.0003155    -0.0010279     0.0000000    -0.0003369
    -0.0013629    -0.0003524     0.0000000    -0.0003369     0.0000000
 l=   3
     0.0000000     0.0000000     0.0000000     0.0000000     0.0000000     0.0000000     0.0000000
     0.0000000     0.0000000     0.0000000     0.0000000     0.0000000     0.0000000     0.0000000
     0.0000000     0.0000000     0.0000000     0.0000000     0.0000000     0.0000000     0.0000000
     0.0000000     0.0000000     0.0000000     0.0000000     0.0000000     0.0000000     0.0000000
     0.0000000     0.0000000     0.0000000     0.0000000     0.0000000     0.0000000     0.0000000
     0.0000000     0.0000000     0.0000000     0.0000000     0.0000000     0.0000000     0.0000000
     0.0000000     0.0000000     0.0000000     0.0000000     0.0000000     0.0000000     0.0000000

 Ion:   12  E_soc:     -0.0619354
 l=   1
     0.0000000    -0.0085691    -0.0085628
    -0.0085691     0.0000000    -0.0085677
    -0.0085628    -0.0085677     0.0000000
 l=   2
     0.0000000    -0.0004001     0.0000000    -0.0003786    -0.0013629
    -0.0004001     0.0000000    -0.0010938    -0.0003155    -0.0003524
     0.0000000    -0.0010938     0.0000000    -0.0010279     0.0000000
    -0.0003786    -0.0003155    -0.0010279     0.0000000    -0.0003369
    -0.0013629    -0.0003524     0.0000000    -0.0003369     0.0000000
 l=   3
     0.0000000     0.0000000     0.0000000     0.0000000     0.0000000     0.0000000     0.0000000
     0.0000000     0.0000000     0.0000000     0.0000000     0.0000000     0.0000000     0.0000000
     0.0000000     0.0000000     0.0000000     0.0000000     0.0000000     0.0000000     0.0000000
     0.0000000     0.0000000     0.0000000     0.0000000     0.0000000     0.0000000     0.0000000
     0.0000000     0.0000000     0.0000000     0.0000000     0.0000000     0.0000000     0.0000000
     0.0000000     0.0000000     0.0000000     0.0000000     0.0000000     0.0000000     0.0000000
     0.0000000     0.0000000     0.0000000     0.0000000     0.0000000     0.0000000     0.0000000

 Ion:   13  E_soc:     -0.0368346
 l=   1
     0.0000000    -0.0042987    -0.0043123
    -0.0042987     0.0000000    -0.0042870
    -0.0043123    -0.0042870     0.0000000
 l=   2
     0.0000000    -0.0003598     0.0000000    -0.0003664    -0.0009925
    -0.0003598     0.0000000    -0.0012878    -0.0003185    -0.0004205
     0.0000000    -0.0012878     0.0000000    -0.0013376     0.0000000
    -0.0003664    -0.0003185    -0.0013376     0.0000000    -0.0004362
    -0.0009925    -0.0004205     0.0000000    -0.0004362     0.0000000
 l=   3
     0.0000000     0.0000000     0.0000000     0.0000000     0.0000000     0.0000000     0.0000000
     0.0000000     0.0000000     0.0000000     0.0000000     0.0000000     0.0000000     0.0000000
     0.0000000     0.0000000     0.0000000     0.0000000     0.0000000     0.0000000     0.0000000
     0.0000000     0.0000000     0.0000000     0.0000000     0.0000000     0.0000000     0.0000000
     0.0000000     0.0000000     0.0000000     0.0000000     0.0000000     0.0000000     0.0000000
     0.0000000     0.0000000     0.0000000     0.0000000     0.0000000     0.0000000     0.0000000
     0.0000000     0.0000000     0.0000000     0.0000000     0.0000000     0.0000000     0.0000000

 Ion:   14  E_soc:     -0.0368346
 l=   1
     0.0000000    -0.0042987    -0.0043123
    -0.0042987     0.0000000    -0.0042870
    -0.0043123    -0.0042870     0.0000000
 l=   2
     0.0000000    -0.0003598     0.0000000    -0.0003664    -0.0009925
    -0.0003598     0.0000000    -0.0012878    -0.0003185    -0.0004205
     0.0000000    -0.0012878     0.0000000    -0.0013376     0.0000000
    -0.0003664    -0.0003185    -0.0013376     0.0000000    -0.0004362
    -0.0009925    -0.0004205     0.0000000    -0.0004362     0.0000000
 l=   3
     0.0000000     0.0000000     0.0000000     0.0000000     0.0000000     0.0000000     0.0000000
     0.0000000     0.0000000     0.0000000     0.0000000     0.0000000     0.0000000     0.0000000
     0.0000000     0.0000000     0.0000000     0.0000000     0.0000000     0.0000000     0.0000000
     0.0000000     0.0000000     0.0000000     0.0000000     0.0000000     0.0000000     0.0000000
     0.0000000     0.0000000     0.0000000     0.0000000     0.0000000     0.0000000     0.0000000
     0.0000000     0.0000000     0.0000000     0.0000000     0.0000000     0.0000000     0.0000000
     0.0000000     0.0000000     0.0000000     0.0000000     0.0000000     0.0000000     0.0000000

 Ion:   15  E_soc:     -0.0368346
 l=   1
     0.0000000    -0.0042987    -0.0043123
    -0.0042987     0.0000000    -0.0042870
    -0.0043123    -0.0042870     0.0000000
 l=   2
     0.0000000    -0.0003598     0.0000000    -0.0003664    -0.0009925
    -0.0003598     0.0000000    -0.0012878    -0.0003185    -0.0004205
     0.0000000    -0.0012878     0.0000000    -0.0013376     0.0000000
    -0.0003664    -0.0003185    -0.0013376     0.0000000    -0.0004362
    -0.0009925    -0.0004205     0.0000000    -0.0004362     0.0000000
 l=   3
     0.0000000     0.0000000     0.0000000     0.0000000     0.0000000     0.0000000     0.0000000
     0.0000000     0.0000000     0.0000000     0.0000000     0.0000000     0.0000000     0.0000000
     0.0000000     0.0000000     0.0000000     0.0000000     0.0000000     0.0000000     0.0000000
     0.0000000     0.0000000     0.0000000     0.0000000     0.0000000     0.0000000     0.0000000
     0.0000000     0.0000000     0.0000000     0.0000000     0.0000000     0.0000000     0.0000000
     0.0000000     0.0000000     0.0000000     0.0000000     0.0000000     0.0000000     0.0000000
     0.0000000     0.0000000     0.0000000     0.0000000     0.0000000     0.0000000     0.0000000

 Ion:   16  E_soc:     -0.0368346
 l=   1
     0.0000000    -0.0042987    -0.0043123
    -0.0042987     0.0000000    -0.0042870
    -0.0043123    -0.0042870     0.0000000
 l=   2
     0.0000000    -0.0003598     0.0000000    -0.0003664    -0.0009925
    -0.0003598     0.0000000    -0.0012878    -0.0003185    -0.0004205
     0.0000000    -0.0012878     0.0000000    -0.0013376     0.0000000
    -0.0003664    -0.0003185    -0.0013376     0.0000000    -0.0004362
    -0.0009925    -0.0004205     0.0000000    -0.0004362     0.0000000
 l=   3
     0.0000000     0.0000000     0.0000000     0.0000000     0.0000000     0.0000000     0.0000000
     0.0000000     0.0000000     0.0000000     0.0000000     0.0000000     0.0000000     0.0000000
     0.0000000     0.0000000     0.0000000     0.0000000     0.0000000     0.0000000     0.0000000
     0.0000000     0.0000000     0.0000000     0.0000000     0.0000000     0.0000000     0.0000000
     0.0000000     0.0000000     0.0000000     0.0000000     0.0000000     0.0000000     0.0000000
     0.0000000     0.0000000     0.0000000     0.0000000     0.0000000     0.0000000     0.0000000
     0.0000000     0.0000000     0.0000000     0.0000000     0.0000000     0.0000000     0.0000000
 


 total charge     
 
# of ion       s       p       d       tot
------------------------------------------
    1        1.320   2.392   0.000   3.712
    2        1.320   2.391   0.000   3.712
    3        1.322   2.381   0.000   3.703
    4        1.315   2.404   0.000   3.718
    5        1.320   2.391   0.000   3.712
    6        1.320   2.392   0.000   3.712
    7        1.322   2.381   0.000   3.703
    8        1.315   2.404   0.000   3.718
    9        0.255   6.197   8.917  15.369
   10        0.255   6.197   8.917  15.369
   11        0.255   6.197   8.917  15.369
   12        0.255   6.197   8.917  15.369
   13        0.338   6.336   5.839  12.512
   14        0.338   6.336   5.839  12.513
   15        0.338   6.336   5.839  12.512
   16        0.338   6.336   5.839  12.513
--------------------------------------------------
tot         12.927  69.267  59.022 141.217
 


 magnetization (x)
 
# of ion       s       p       d       tot
------------------------------------------
    1       -0.000  -0.000   0.000  -0.000
    2        0.000   0.000   0.000   0.000
    3       -0.000  -0.000   0.000  -0.000
    4        0.000  -0.000   0.000  -0.000
    5        0.000   0.000   0.000   0.000
    6       -0.000  -0.000   0.000  -0.000
    7       -0.000  -0.000   0.000  -0.000
    8        0.000  -0.000   0.000  -0.000
    9       -0.000  -0.000  -0.000  -0.000
   10        0.000   0.000  -0.000  -0.000
   11       -0.000  -0.000  -0.000  -0.000
   12        0.000   0.000  -0.000  -0.000
   13       -0.000   0.000   0.005   0.005
   14       -0.000  -0.000  -0.005  -0.005
   15       -0.000   0.000   0.005   0.005
   16       -0.000  -0.000  -0.005  -0.005
--------------------------------------------------
tot         -0.000  -0.000  -0.000  -0.001
 


 magnetization (y)
 
# of ion       s       p       d       tot
------------------------------------------
    1       -0.000  -0.000   0.000  -0.000
    2       -0.000  -0.000   0.000  -0.000
    3       -0.000  -0.000   0.000  -0.000
    4       -0.000   0.000   0.000   0.000
    5       -0.000  -0.000   0.000  -0.000
    6       -0.000  -0.000   0.000  -0.000
    7       -0.000  -0.000   0.000  -0.000
    8       -0.000   0.000   0.000   0.000
    9       -0.000   0.000  -0.000  -0.000
   10       -0.000   0.000  -0.000  -0.000
   11       -0.000   0.000  -0.000  -0.000
   12       -0.000   0.000  -0.000  -0.000
   13       -0.000  -0.000  -0.012  -0.012
   14       -0.000  -0.000  -0.012  -0.012
   15       -0.000  -0.000  -0.012  -0.012
   16       -0.000  -0.000  -0.012  -0.012
--------------------------------------------------
tot         -0.001  -0.002  -0.047  -0.050
 


 magnetization (z)
 
# of ion       s       p       d       tot
------------------------------------------
    1       -0.001  -0.059   0.000  -0.059
    2        0.001   0.058   0.000   0.059
    3        0.000   0.000   0.000   0.000
    4       -0.000  -0.000   0.000  -0.000
    5        0.001   0.058   0.000   0.059
    6       -0.001  -0.059   0.000  -0.059
    7        0.000   0.000   0.000   0.000
    8       -0.000  -0.000   0.000  -0.000
    9        0.001   0.002  -0.016  -0.013
   10       -0.001  -0.002   0.016   0.013
   11        0.001   0.002  -0.016  -0.013
   12       -0.001  -0.002   0.016   0.013
   13        0.022   0.053   3.638   3.713
   14       -0.022  -0.053  -3.637  -3.712
   15        0.022   0.053   3.638   3.713
   16       -0.022  -0.053  -3.637  -3.712
--------------------------------------------------
tot         -0.000  -0.001   0.001   0.001
 
 BZINTS: Fermi energy:  5.222437;172.000000 electrons
         Band energy:***********;  BLOECHL correction:  0.000000
 BZINTS: Fermi energy:  5.222437;172.000000 electrons
         Band energy:***********;  BLOECHL correction:  0.000000
 BZINTS: Fermi energy:  5.222437;172.000000 electrons
         Band energy:***********;  BLOECHL correction:  0.000000
 BZINTS: Fermi energy:  5.222437;172.000000 electrons
         Band energy:***********;  BLOECHL correction:  0.000000

 total amount of memory used by VASP MPI-rank0   403236. kBytes
=======================================================================

   base      :      30000. kBytes
   nonl-proj :     314949. kBytes
   fftplans  :       2735. kBytes
   grid      :      30965. kBytes
   one-center:        995. kBytes
   wavefun   :      23592. kBytes
 
  
  
 General timing and accounting informations for this job:
 ========================================================
  
                  Total CPU time used (sec):    10597.819
                            User time (sec):    10586.309
                          System time (sec):       11.510
                         Elapsed time (sec):    10813.482
  
                   Maximum memory used (kb):      866860.
                   Average memory used (kb):           0.
  
                          Minor page faults:       601878
                          Major page faults:         5583
                 Voluntary context switches:         7046
