 vasp.5.4.4.18Apr17-6-g9f103f2a35 (build Oct 30 2023 17:30:16) complex          
  
 executed on             LinuxIFC date 2024.06.29  18:26:02
 running on  256 total cores
 distrk:  each k-point on  256 cores,    1 groups
 distr:  one band on NCORES_PER_BAND=   1 cores,  256 groups


--------------------------------------------------------------------------------------------------------


 INCAR:
 POTCAR:    PAW_PBE S 06Sep2000                   
 POTCAR:     PAW_PBE Cu_pv 06Sep2000              
 POTCAR:     PAW_PBE Fe_pv 02Aug2007              

 ----------------------------------------------------------------------------- 
|                                                                             |
|           W    W    AA    RRRRR   N    N  II  N    N   GGGG   !!!           |
|           W    W   A  A   R    R  NN   N  II  NN   N  G    G  !!!           |
|           W    W  A    A  R    R  N N  N  II  N N  N  G       !!!           |
|           W WW W  AAAAAA  RRRRR   N  N N  II  N  N N  G  GGG   !            |
|           WW  WW  A    A  R   R   N   NN  II  N   NN  G    G                |
|           W    W  A    A  R    R  N    N  II  N    N   GGGG   !!!           |
|                                                                             |
|      For optimal performance we recommend to set                            |
|        NCORE= 4 - approx SQRT( number of cores)                             |
|      NCORE specifies how many cores store one orbital (NPAR=cpu/NCORE).     |
|      This setting can  greatly improve the performance of VASP for DFT.     |
|      The default,   NCORE=1            might be grossly inefficient         |
|      on modern multi-core architectures or massively parallel machines.     |
|      Do your own testing !!!!                                               |
|      Unfortunately you need to use the default for GW and RPA calculations. |
|      (for HF NCORE is supported but not extensively tested yet)             |
|                                                                             |
 ----------------------------------------------------------------------------- 

 POTCAR:    PAW_PBE S 06Sep2000                   
   SHA256 =  0fc7481fb0695f01bdc6462160264c5c84044ae9ec85a907d398b887a2bc3132 S/
   COPYR  = (c) Copyright 06Sep2000 Georg Kresse                                
   COPYR  = This file is part of the software VASP. Any use, copying, and all ot
   COPYR  = If you do not have a valid VASP license, you may not use, copy or di
   VRHFIN =S : s2p4                                                             
   LEXCH  = PE                                                                  
   EATOM  =   276.8230 eV,   20.3459 Ry                                         
                                                                                
   TITEL  = PAW_PBE S 06Sep2000                                                 
   LULTRA =        F    use ultrasoft PP ?                                      
   IUNSCR =        1    unscreen: 0-lin 1-nonlin 2-no                           
   RPACOR =    1.500    partial core radius                                     
   POMASS =   32.066; ZVAL   =    6.000    mass and valenz                      
   RCORE  =    1.900    outmost cutoff radius                                   
   RWIGS  =    2.200; RWIGS  =    1.164    wigner-seitz radius (au A)           
   ENMAX  =  258.689; ENMIN  =  194.016 eV                                      
   ICORE  =        2    local potential                                         
   LCOR   =        T    correct aug charges                                     
   LPAW   =        T    paw PP                                                  
   EAUG   =  335.092                                                            
   DEXC   =    0.000                                                            
   RMAX   =    1.942    core radius for proj-oper                               
   RAUG   =    1.300    factor for augmentation sphere                          
   RDEP   =    1.954    radius for radial grids                                 
   RDEPT  =    1.744    core radius for aug-charge                              
                                                                                
   Atomic configuration                                                         
    6 entries                                                                   
     n  l   j            E        occ.                                          
     1  0  0.50     -2405.8406   2.0000                                         
     2  0  0.50      -211.7007   2.0000                                         
     2  1  1.50      -156.4958   6.0000                                         
     3  0  0.50       -17.2562   2.0000                                         
     3  1  0.50        -7.0085   4.0000                                         
     3  2  1.50        -6.8029   0.0000                                         
   Description                                                                  
     l       E           TYP  RCUT    TYP  RCUT                                 
     0    -17.2561641     23  1.900                                             
     0    -15.8743224     23  1.900                                             
     1     -7.0085400     23  1.900                                             
     1     -2.7779785     23  1.900                                             
     2     -6.8029130     23  1.900                                             
  local pseudopotential read in
  partial core-charges read in
  partial kinetic energy density read in
  atomic valenz-charges read in
  non local Contribution for L=           0  read in
    real space projection operators read in
  non local Contribution for L=           0  read in
    real space projection operators read in
  non local Contribution for L=           1  read in
    real space projection operators read in
  non local Contribution for L=           1  read in
    real space projection operators read in
    PAW grid and wavefunctions read in
 
   number of l-projection  operators is LMAX  =           4
   number of lm-projection operators is LMMAX =           8
 
 POTCAR:     PAW_PBE Cu_pv 06Sep2000              
   SHA256 =  cb7b504e2ea725fe1f25c85a9ac77d4012ce94cd394135b722c4e25ec297f1cb Cu
   COPYR  = (c) Copyright 06Sep2000 Georg Kresse                                
   COPYR  = This file is part of the software VASP. Any use, copying, and all ot
   COPYR  = If you do not have a valid VASP license, you may not use, copy or di
   VRHFIN =Cu: d10 p1                                                           
   LEXCH  = PE                                                                  
   EATOM  =  4120.1201 eV,  302.8203 Ry                                         
                                                                                
   TITEL  = PAW_PBE Cu_pv 06Sep2000                                             
   LULTRA =        F    use ultrasoft PP ?                                      
   IUNSCR =        1    unscreen: 0-lin 1-nonlin 2-no                           
   RPACOR =    1.500    partial core radius                                     
   POMASS =   63.546; ZVAL   =   17.000    mass and valenz                      
   RCORE  =    2.000    outmost cutoff radius                                   
   RWIGS  =    2.000; RWIGS  =    1.058    wigner-seitz radius (au A)           
   ENMAX  =  368.648; ENMIN  =  276.486 eV                                      
   RCLOC  =    1.304    cutoff for local pot                                    
   LCOR   =        T    correct aug charges                                     
   LPAW   =        T    paw PP                                                  
   EAUG   =  758.233                                                            
   DEXC   =    0.000                                                            
   RMAX   =    2.046    core radius for proj-oper                               
   RAUG   =    1.300    factor for augmentation sphere                          
   RDEP   =    2.025    radius for radial grids                                 
   RDEPT  =    1.558    core radius for aug-charge                              
                                                                                
   Atomic configuration                                                         
    8 entries                                                                   
     n  l   j            E        occ.                                          
     1  0  0.50     -8850.2467   2.0000                                         
     2  0  0.50     -1062.3498   2.0000                                         
     2  1  1.50      -916.8226   6.0000                                         
     3  0  0.50      -114.6929   2.0000                                         
     3  1  1.50       -72.1325   6.0000                                         
     3  2  2.50        -5.0394  10.0000                                         
     4  0  0.50        -4.6097   1.0000                                         
     4  3  2.50        -1.3606   0.0000                                         
   Description                                                                  
     l       E           TYP  RCUT    TYP  RCUT                                 
     1    -72.1324777     23  1.700                                             
     1     -1.3605826     23  1.700                                             
     2     -5.0393776     23  2.000                                             
     2     -6.3999602     23  2.000                                             
     0     -4.6097062     23  1.800                                             
     0     14.1620818     23  1.800                                             
  local pseudopotential read in
  partial core-charges read in
  partial kinetic energy density read in
  atomic valenz-charges read in
  non local Contribution for L=           1  read in
    real space projection operators read in
  non local Contribution for L=           1  read in
    real space projection operators read in
  non local Contribution for L=           2  read in
    real space projection operators read in
  non local Contribution for L=           2  read in
    real space projection operators read in
  non local Contribution for L=           0  read in
    real space projection operators read in
  non local Contribution for L=           0  read in
    real space projection operators read in
    PAW grid and wavefunctions read in
 
   number of l-projection  operators is LMAX  =           6
   number of lm-projection operators is LMMAX =          18
 
 POTCAR:     PAW_PBE Fe_pv 02Aug2007              
   SHA256 =  5d22e414b1f82158bf2c7ecb8b97b28fd0923e48cadc1c3bf74d524558f5dd32 Fe
   COPYR  = (c) Copyright 02Aug2007 Georg Kresse                                
   COPYR  = This file is part of the software VASP. Any use, copying, and all ot
   COPYR  = If you do not have a valid VASP license, you may not use, copy or di
   VRHFIN =Fe:  3pd7s1                                                          
   LEXCH  = PE                                                                  
   EATOM  =  2457.4239 eV,  180.6156 Ry                                         
                                                                                
   TITEL  = PAW_PBE Fe_pv 02Aug2007                                             
   LULTRA =        F    use ultrasoft PP ?                                      
   IUNSCR =        1    unscreen: 0-lin 1-nonlin 2-no                           
   RPACOR =    1.750    partial core radius                                     
   POMASS =   55.847; ZVAL   =   14.000    mass and valenz                      
   RCORE  =    2.200    outmost cutoff radius                                   
   RWIGS  =    2.200; RWIGS  =    1.164    wigner-seitz radius (au A)           
   ENMAX  =  293.238; ENMIN  =  219.928 eV                                      
   ICORE  =        3    local potential                                         
   LCOR   =        T    correct aug charges                                     
   LPAW   =        T    paw PP                                                  
   EAUG   =  578.342                                                            
   DEXC   =    0.000                                                            
   RMAX   =    2.249    core radius for proj-oper                               
   RAUG   =    1.300    factor for augmentation sphere                          
   RDEP   =    2.296    radius for radial grids                                 
   RDEPT  =    1.766    core radius for aug-charge                              
                                                                                
   Atomic configuration                                                         
    8 entries                                                                   
     n  l   j            E        occ.                                          
     1  0  0.50     -6993.8440   2.0000                                         
     2  0  0.50      -814.6047   2.0000                                         
     2  1  1.50      -693.3689   6.0000                                         
     3  0  0.50       -89.4732   2.0000                                         
     3  1  1.50       -55.6373   6.0000                                         
     3  2  2.50        -3.8151   7.0000                                         
     4  0  0.50        -4.2551   1.0000                                         
     4  3  2.50        -1.3606   0.0000                                         
   Description                                                                  
     l       E           TYP  RCUT    TYP  RCUT                                 
     1    -55.6372668     23  2.000                                             
     1     -5.4423304     23  2.000                                             
     2     -3.8151096     23  2.200                                             
     2     -5.1756922     23  2.200                                             
     0     -4.2550951     23  2.200                                             
     0     27.2116520     23  2.200                                             
     3     -1.3605826     23  2.200                                             
  local pseudopotential read in
  partial core-charges read in
  partial kinetic energy density read in
  atomic valenz-charges read in
  non local Contribution for L=           1  read in
    real space projection operators read in
  non local Contribution for L=           1  read in
    real space projection operators read in
  non local Contribution for L=           2  read in
    real space projection operators read in
  non local Contribution for L=           2  read in
    real space projection operators read in
  non local Contribution for L=           0  read in
    real space projection operators read in
  non local Contribution for L=           0  read in
    real space projection operators read in
    PAW grid and wavefunctions read in
 
   number of l-projection  operators is LMAX  =           6
   number of lm-projection operators is LMMAX =          18
 

 ----------------------------------------------------------------------------- 
|                                                                             |
|  ADVICE TO THIS USER RUNNING 'VASP/VAMP'   (HEAR YOUR MASTER'S VOICE ...):  |
|                                                                             |
|      You have a (more or less) 'large supercell' and for larger cells       |
|      it might be more efficient to use real space projection opertators     |
|      So try LREAL= Auto  in the INCAR   file.                               |
|      Mind:          For very  accurate calculation you might also keep the  |
|      reciprocal projection scheme          (i.e. LREAL=.FALSE.)             |
|                                                                             |
 ----------------------------------------------------------------------------- 


 ----------------------------------------------------------------------------- 
|                                                                             |
|  ADVICE TO THIS USER RUNNING 'VASP/VAMP'   (HEAR YOUR MASTER'S VOICE ...):  |
|                                                                             |
|      You enforced a specific xc-type in the INCAR file,                     |
|      a different type was found on the POTCAR file                          |
|          I HOPE YOU KNOW, WHAT YOU ARE  DOING                               |
|                                                                             |
 ----------------------------------------------------------------------------- 

  PAW_PBE S 06Sep2000                   :
 energy of atom  1       EATOM= -276.8230
 kinetic energy error for atom=    0.0007 (will be added to EATOM!!)
   PAW_PBE Cu_pv 06Sep2000              :
 energy of atom  2       EATOM=-4120.1201
 kinetic energy error for atom=    0.0094 (will be added to EATOM!!)
   PAW_PBE Fe_pv 02Aug2007              :
 energy of atom  3       EATOM=-2457.4239
 kinetic energy error for atom=    0.0025 (will be added to EATOM!!)
 
 
 POSCAR: Fe16 Cu16 S32                           
  positions in direct lattice
  No initial velocities read in
 exchange correlation table for  LEXCH =       14
   RHO(1)=    0.500       N(1)  =     2000
   RHO(2)=  100.500       N(2)  =     4000
 


--------------------------------------------------------------------------------------------------------


 ion  position               nearest neighbor table
   1  0.126  0.125  0.120-  37 2.25  61 2.27  41 2.27  49 2.29
   2  0.626  0.125  0.120-  38 2.25  62 2.27  42 2.27  50 2.29
   3  0.126  0.625  0.120-  39 2.25  63 2.27  43 2.27  51 2.29
   4  0.626  0.625  0.120-  40 2.25  64 2.27  44 2.27  52 2.29
   5  0.374  0.375  0.120-  39 2.25  62 2.27  41 2.27  52 2.29
   6  0.874  0.375  0.120-  40 2.25  61 2.27  42 2.27  51 2.29
   7  0.374  0.875  0.120-  37 2.25  64 2.27  43 2.27  50 2.29
   8  0.874  0.875  0.120-  38 2.25  63 2.27  44 2.27  49 2.29
   9  0.125  0.374  0.870-  41 2.25  51 2.27  45 2.27  55 2.29
  10  0.625  0.374  0.870-  42 2.25  52 2.27  46 2.27  56 2.29
  11  0.125  0.874  0.870-  43 2.25  49 2.27  47 2.27  53 2.29
  12  0.625  0.874  0.870-  44 2.25  50 2.27  48 2.27  54 2.29
  13  0.375  0.126  0.870-  41 2.25  50 2.27  46 2.27  53 2.29
  14  0.875  0.126  0.870-  42 2.25  49 2.27  45 2.27  54 2.29
  15  0.375  0.626  0.870-  43 2.25  52 2.27  48 2.27  55 2.29
  16  0.875  0.626  0.870-  44 2.25  51 2.27  47 2.27  56 2.29
  17  0.124  0.125  0.620-  45 2.25  53 2.27  33 2.27  57 2.29
  18  0.624  0.125  0.620-  46 2.25  54 2.27  34 2.27  58 2.29
  19  0.124  0.625  0.620-  47 2.25  55 2.27  35 2.27  59 2.29
  20  0.624  0.625  0.620-  48 2.25  56 2.27  36 2.27  60 2.29
  21  0.376  0.375  0.620-  46 2.25  55 2.27  36 2.27  57 2.29
  22  0.876  0.375  0.620-  45 2.25  56 2.27  35 2.27  58 2.29
  23  0.376  0.875  0.620-  48 2.25  53 2.27  34 2.27  59 2.29
  24  0.876  0.875  0.620-  47 2.25  54 2.27  33 2.27  60 2.29
  25  0.375  0.124  0.370-  34 2.25  57 2.27  37 2.27  62 2.29
  26  0.875  0.124  0.370-  33 2.25  58 2.27  38 2.27  61 2.29
  27  0.375  0.624  0.370-  36 2.25  59 2.27  39 2.27  64 2.29
  28  0.875  0.624  0.370-  35 2.25  60 2.27  40 2.27  63 2.29
  29  0.125  0.376  0.370-  35 2.25  57 2.27  39 2.27  61 2.29
  30  0.625  0.376  0.370-  36 2.25  58 2.27  40 2.27  62 2.29
  31  0.125  0.876  0.370-  33 2.25  59 2.27  37 2.27  63 2.29
  32  0.625  0.876  0.370-  34 2.25  60 2.27  38 2.27  64 2.29
  33  0.000  0.000  0.504-  26 2.25  31 2.25  17 2.27  24 2.27
  34  0.500  0.000  0.504-  25 2.25  32 2.25  18 2.27  23 2.27
  35  0.000  0.500  0.504-  28 2.25  29 2.25  19 2.27  22 2.27
  36  0.500  0.500  0.504-  27 2.25  30 2.25  20 2.27  21 2.27
  37  0.250  0.000  0.254-   1 2.25   7 2.25  25 2.27  31 2.27
  38  0.750  0.000  0.254-   2 2.25   8 2.25  26 2.27  32 2.27
  39  0.250  0.500  0.254-   3 2.25   5 2.25  27 2.27  29 2.27
  40  0.750  0.500  0.254-   4 2.25   6 2.25  28 2.27  30 2.27
  41  0.250  0.250  0.004-   9 2.25  13 2.25   1 2.27   5 2.27
  42  0.750  0.250  0.004-  10 2.25  14 2.25   2 2.27   6 2.27
  43  0.250  0.750  0.004-  11 2.25  15 2.25   3 2.27   7 2.27
  44  0.750  0.750  0.004-  12 2.25  16 2.25   4 2.27   8 2.27
  45  0.000  0.250  0.754-  17 2.25  22 2.25   9 2.27  14 2.27
  46  0.500  0.250  0.754-  18 2.25  21 2.25  10 2.27  13 2.27
  47  0.000  0.750  0.754-  19 2.25  24 2.25  11 2.27  16 2.27
  48  0.500  0.750  0.754-  20 2.25  23 2.25  12 2.27  15 2.27
  49  0.000  0.000  0.005-  11 2.27  14 2.27   1 2.29   8 2.29
  50  0.500  0.000  0.005-  12 2.27  13 2.27   2 2.29   7 2.29
  51  0.000  0.500  0.005-   9 2.27  16 2.27   3 2.29   6 2.29
  52  0.500  0.500  0.005-  10 2.27  15 2.27   4 2.29   5 2.29
  53  0.250  0.000  0.755-  17 2.27  23 2.27  11 2.29  13 2.29
  54  0.750  0.000  0.755-  18 2.27  24 2.27  12 2.29  14 2.29
  55  0.250  0.500  0.755-  19 2.27  21 2.27   9 2.29  15 2.29
  56  0.750  0.500  0.755-  20 2.27  22 2.27  10 2.29  16 2.29
  57  0.250  0.250  0.505-  25 2.27  29 2.27  17 2.29  21 2.29
  58  0.750  0.250  0.505-  26 2.27  30 2.27  18 2.29  22 2.29
  59  0.250  0.750  0.505-  27 2.27  31 2.27  19 2.29  23 2.29
  60  0.750  0.750  0.505-  28 2.27  32 2.27  20 2.29  24 2.29
  61  0.000  0.250  0.255-   1 2.27   6 2.27  26 2.29  29 2.29
  62  0.500  0.250  0.255-   2 2.27   5 2.27  25 2.29  30 2.29
  63  0.000  0.750  0.255-   3 2.27   8 2.27  28 2.29  31 2.29
  64  0.500  0.750  0.255-   4 2.27   7 2.27  27 2.29  32 2.29
 
  LATTYP: Found a base centered orthorhombic cell.
 ALAT       =    14.1954019776
 B/A-ratio  =     1.0913084866
 C/A-ratio  =     0.7348077227
  
  Lattice vectors:
  
 A1 = (  10.4959270000,   0.4582620000,   0.0000000000)
 A2 = (  -0.4582620000, -10.4959270000,   0.0000000000)
 A3 = (   0.0000000000,   0.0000000000, -10.4308910000)


Analysis of symmetry for initial positions (statically):
=====================================================================
 Subroutine PRICEL returns following result:
 
  LATTYP: Found a face centered orthorhombic cell.
 ALAT       =     7.0977009888
 B/A-ratio  =     1.0913084866
 C/A-ratio  =     1.4696154454
  
  Lattice vectors:
  
 A1 = (  -2.7385472500,  -2.7385472500,   5.2154455000)
 A2 = (  -2.5094162500,   2.5094162500,   5.2154455000)
 A3 = (  -5.2479635000,  -0.2291310000,  -0.0000000000)
 
   8 primitive cells build up your supercell.
 

 Routine SETGRP: Setting up the symmetry group for a 
 base centered orthorhombic supercell.


 Subroutine GETGRP returns: Found  4 space group operations
 (whereof  2 operations were pure point group operations)
 out of a pool of  8 trial point group operations.


The static configuration has the point symmetry C_2 .
 The point group associated with its full space group is C_2v.


Analysis of symmetry for dynamics (positions and initial velocities):
=====================================================================
 Subroutine PRICEL returns following result:
 
  LATTYP: Found a face centered orthorhombic cell.
 ALAT       =     7.0977009888
 B/A-ratio  =     1.0913084866
 C/A-ratio  =     1.4696154454
  
  Lattice vectors:
  
 A1 = (  -2.7385472500,  -2.7385472500,   5.2154455000)
 A2 = (  -2.5094162500,   2.5094162500,   5.2154455000)
 A3 = (  -5.2479635000,  -0.2291310000,  -0.0000000000)
 
   8 primitive cells build up your supercell.
 

 Routine SETGRP: Setting up the symmetry group for a 
 base centered orthorhombic supercell.


 Subroutine GETGRP returns: Found  4 space group operations
 (whereof  2 operations were pure point group operations)
 out of a pool of  8 trial point group operations.


The dynamic configuration has the point symmetry C_2 .
 The point group associated with its full space group is C_2v.


Analysis of structural, dynamic, and magnetic symmetry:
=====================================================================
 Subroutine PRICEL returns following result:
 
  LATTYP: Found a face centered orthorhombic cell.
 ALAT       =     7.0977009888
 B/A-ratio  =     1.0913084866
 C/A-ratio  =     1.4696154454
  
  Lattice vectors:
  
 A1 = (  -2.7385472500,  -2.7385472500,   5.2154455000)
 A2 = (  -2.5094162500,   2.5094162500,   5.2154455000)
 A3 = (  -5.2479635000,  -0.2291310000,  -0.0000000000)
 
   8 primitive cells build up your supercell.
 

 Routine SETGRP: Setting up the symmetry group for a 
 base centered orthorhombic supercell.


 Subroutine GETGRP returns: Found  4 space group operations
 (whereof  2 operations were pure point group operations)
 out of a pool of  8 trial point group operations.


The magnetic configuration has the point symmetry C_2 .
 The point group associated with its full space group is C_2v.


 Subroutine INISYM returns: Found  4 space group operations
 (whereof  2 operations are pure point group operations),
 and found     8 'primitive' translations

 
 
 KPOINTS: Automatic mesh                          

Automatic generation of k-mesh.
Space group operators:
 irot       det(A)        alpha          n_x          n_y          n_z        tau_x        tau_y        tau_z
    1     1.000000     0.000000     1.000000     0.000000     0.000000     0.000000     0.000000     0.000000
    2     1.000000   180.000000     0.000000     0.000000     1.000000     0.000000     0.000000     0.000000
    3    -1.000000   180.000000     0.707107     0.707107     0.000000    -0.750000     0.000000     0.750000
    4    -1.000000   180.000000     0.707107    -0.707107     0.000000    -0.750000     0.000000     0.750000
 
 Subroutine IBZKPT returns following result:
 ===========================================
 
 Found      6 irreducible k-points:
 
 Following reciprocal coordinates:
            Coordinates               Weight
  0.000000  0.000000  0.000000      1.000000
  0.500000 -0.000000  0.000000      2.000000
  0.500000  0.500000  0.000000      1.000000
  0.000000  0.000000  0.500000      1.000000
  0.500000 -0.000000  0.500000      2.000000
  0.500000  0.500000  0.500000      1.000000
 
 Following cartesian coordinates:
            Coordinates               Weight
  0.000000  0.000000  0.000000      1.000000
  0.047729 -0.002084  0.000000      2.000000
  0.045645  0.045645  0.000000      1.000000
  0.000000  0.000000  0.047935      1.000000
  0.047729 -0.002084  0.047935      2.000000
  0.045645  0.045645  0.047935      1.000000
 
 TETIRR: Found     12 inequivalent tetrahedra from       48
 
 Subroutine IBZKPT_HF returns following result:
 ==============================================
 
 Found      8 k-points in 1st BZ
 the following      8 k-points will be used (e.g. in the exchange kernel)
 Following reciprocal coordinates:   # in IRBZ
  0.000000  0.000000  0.000000    0.12500000   1 t-inv F
  0.500000 -0.000000  0.000000    0.12500000   2 t-inv F
  0.500000  0.500000  0.000000    0.12500000   3 t-inv F
  0.000000  0.000000  0.500000    0.12500000   4 t-inv F
  0.500000 -0.000000  0.500000    0.12500000   5 t-inv F
  0.500000  0.500000  0.500000    0.12500000   6 t-inv F
  0.000000 -0.500000  0.000000    0.12500000   2 t-inv F spinflp
  0.000000 -0.500000  0.500000    0.12500000   5 t-inv F spinflp


--------------------------------------------------------------------------------------------------------




 Dimension of arrays:
   k-points           NKPTS =      6   k-points in BZ     NKDIM =      6   number of bands    NBANDS=    512
   number of dos      NEDOS =    301   number of ions     NIONS =     64
   non local maximal  LDIM  =      6   non local SUM 2l+1 LMDIM =     18
   total plane-waves  NPLWV = 829440
   max r-space proj   IRMAX =      1   max aug-charges    IRDMAX=  22981
   dimension x,y,z NGX =    96 NGY =   96 NGZ =   90
   dimension x,y,z NGXF=   192 NGYF=  192 NGZF=  180
   support grid    NGXF=   192 NGYF=  192 NGZF=  180
   ions per type =              32  16  16
   NGX,Y,Z   is equivalent  to a cutoff of  15.19, 15.19, 14.34 a.u.
   NGXF,Y,Z  is equivalent  to a cutoff of  30.38, 30.38, 28.69 a.u.

 SYSTEM =  CuFeS2                                  
 POSCAR =  Fe16 Cu16 S32                           

 Startparameter for this run:
   NWRITE =      2    write-flag & timer
   PREC   = accura    normal or accurate (medium, high low for compatibility)
   ISTART =      1    job   : 0-new  1-cont  2-samecut
   ICHARG =      1    charge: 1-file 2-atom 10-const
   ISPIN  =      2    spin polarized calculation?
   LNONCOLLINEAR =      F non collinear calculations
   LSORBIT =      F    spin-orbit coupling
   INIWAV =      1    electr: 0-lowe 1-rand  2-diag
   LASPH  =      F    aspherical Exc in radial PAW
   METAGGA=      F    non-selfconsistent MetaGGA calc.

 Electronic Relaxation 1
   ENCUT  =  700.0 eV  51.45 Ry    7.17 a.u.  22.66 22.66 22.50*2*pi/ulx,y,z
   ENINI  =  700.0     initial cutoff
   ENAUG  =  758.2 eV  augmentation charge cutoff
   NELM   =    500;   NELMIN=  2; NELMDL=  0     # of ELM steps 
   EDIFF  = 0.1E-07   stopping-criterion for ELM
   LREAL  =      F    real-space projection
   NLSPLINE    = F    spline interpolate recip. space projectors
   LCOMPAT=      F    compatible to vasp.4.4
   GGA_COMPAT  = T    GGA compatible to vasp.4.4-vasp.4.6
   LMAXPAW     = -100 max onsite density
   LMAXMIX     =    4 max onsite mixed and CHGCAR
   VOSKOWN=      0    Vosko Wilk Nusair interpolation
   ROPT   =    0.00000   0.00000   0.00000
 Ionic relaxation
   EDIFFG = -.1E-04   stopping-criterion for IOM
   NSW    =      0    number of steps for IOM
   NBLOCK =      1;   KBLOCK =      1    inner block; outer block 
   IBRION =     -1    ionic relax: 0-MD 1-quasi-New 2-CG
   NFREE  =      0    steps in history (QN), initial steepest desc. (CG)
   ISIF   =      2    stress and relaxation
   IWAVPR =     10    prediction:  0-non 1-charg 2-wave 3-comb
   ISYM   =      2    0-nonsym 1-usesym 2-fastsym
   LCORR  =      T    Harris-Foulkes like correction to forces

   POTIM  = 0.5000    time-step for ionic-motion
   TEIN   =    0.0    initial temperature
   TEBEG  =    0.0;   TEEND  =   0.0 temperature during run
   SMASS  =  -3.00    Nose mass-parameter (am)
   estimated Nose-frequenzy (Omega)   =  0.10E-29 period in steps =****** mass=  -0.252E-26a.u.
   SCALEE = 1.0000    scale energy and forces
   NPACO  =    256;   APACO  = 16.0  distance and # of slots for P.C.
   PSTRESS=    0.0 pullay stress

  Mass of Ions in am
   POMASS =  32.07 63.55 55.85
  Ionic Valenz
   ZVAL   =   6.00 17.00 14.00
  Atomic Wigner-Seitz radii
   RWIGS  =  -1.00 -1.00 -1.00
  virtual crystal weights 
   VCA    =   1.00  1.00  1.00
   NELECT =     688.0000    total number of electrons
   NUPDOWN=      -1.0000    fix difference up-down

 DOS related values:
   EMIN   =  10.00;   EMAX   =-10.00  energy-range for DOS
   EFERMI =   0.00
   ISMEAR =    -5;   SIGMA  =   0.03  broadening in eV -4-tet -1-fermi 0-gaus

 Electronic relaxation 2 (details)
   IALGO  =     38    algorithm
   LDIAG  =      T    sub-space diagonalisation (order eigenvalues)
   LSUBROT=      F    optimize rotation matrix (better conditioning)
   TURBO    =      0    0=normal 1=particle mesh
   IRESTART =      0    0=no restart 2=restart with 2 vectors
   NREBOOT  =      0    no. of reboots
   NMIN     =      0    reboot dimension
   EREF     =   0.00    reference energy to select bands
   IMIX   =      4    mixing-type and parameters
     AMIX     =   0.40;   BMIX     =  1.00
     AMIX_MAG =   1.60;   BMIX_MAG =  1.00
     AMIN     =   0.10
     WC   =   100.;   INIMIX=   1;  MIXPRE=   1;  MAXMIX= -45

 Intra band minimization:
   WEIMIN = 0.0000     energy-eigenvalue tresh-hold
   EBREAK =  0.49E-11  absolut break condition
   DEPER  =   0.30     relativ break condition  

   TIME   =   0.40     timestep for ELM

  volume/ion in A,a.u.               =      17.92       120.93
  Fermi-wavevector in a.u.,A,eV,Ry     =   1.380679  2.609106 25.936457  1.906276
  Thomas-Fermi vector in A             =   2.505534
 
 Write flags
   LWAVE        =      T    write WAVECAR
   LDOWNSAMPLE  =      F    k-point downsampling of WAVECAR
   LCHARG       =      T    write CHGCAR
   LVTOT        =      F    write LOCPOT, total local potential
   LVHAR        =      F    write LOCPOT, Hartree potential only
   LELF         =      F    write electronic localiz. function (ELF)
   LORBIT       =     11    0 simple, 1 ext, 2 COOP (PROOUT), +10 PAW based schemes


 Dipole corrections
   LMONO  =      F    monopole corrections only (constant potential shift)
   LDIPOL =      F    correct potential (dipole corrections)
   IDIPOL =      0    1-x, 2-y, 3-z, 4-all directions 
   EPSILON=  1.0000000 bulk dielectric constant

 LDA+U is selected, type is set to LDAUTYPE =  2
   angular momentum for each species LDAUL =     2    2    2
   U (eV)           for each species LDAUU =   0.0  0.1  4.7
   J (eV)           for each species LDAUJ =   0.0  0.0  0.0
 Exchange correlation treatment:
   GGA     =    PS    GGA type
   LEXCH   =    14    internal setting for exchange type
   VOSKOWN=      0    Vosko Wilk Nusair interpolation
   LHFCALC =     F    Hartree Fock is set to
   LHFONE  =     F    Hartree Fock one center treatment
   AEXX    =    0.0000 exact exchange contribution

 Linear response parameters
   LEPSILON=     F    determine dielectric tensor
   LRPA    =     F    only Hartree local field effects (RPA)
   LNABLA  =     F    use nabla operator in PAW spheres
   LVEL    =     F    velocity operator in full k-point grid
   LINTERFAST=   F  fast interpolation
   KINTER  =     0    interpolate to denser k-point grid
   CSHIFT  =0.1000    complex shift for real part using Kramers Kronig
   OMEGAMAX=  -1.0    maximum frequency
   DEG_THRESHOLD= 0.2000000E-02 threshold for treating states as degnerate
   RTIME   =   -0.100 relaxation time in fs
  (WPLASMAI=    0.000 imaginary part of plasma frequency in eV, 0.658/RTIME)
   DFIELD  = 0.0000000 0.0000000 0.0000000 field for delta impulse in time
 
 Orbital magnetization related:
   ORBITALMAG=     F  switch on orbital magnetization
   LCHIMAG   =     F  perturbation theory with respect to B field
   DQ        =  0.001000  dq finite difference perturbation B field
   LLRAUG    =     F  two centre corrections for induced B field

 PEAD related settings:
   LPEAD      =     T    switch on PEAD
   IPEAD      =     4    finite difference order for dpsi/dk
   LCALCPOL   =     T    calculate macroscopic polarization
   LCALCEPS   =     F    calculate dielectric tensor
   EFIELD_PEAD=    0.0000    0.0000    0.0000
   SKIP_EDOTP =     F
   LRPA       =     F
   SKIP_SCF   =     F


--------------------------------------------------------------------------------------------------------


 Static calculation
 charge density and potential will be updated during run
 spin polarized calculation
 Variant of blocked Davidson
 Davidson routine will perform the subspace rotation
 perform sub-space diagonalisation
    after iterative eigenvector-optimisation
 modified Broyden-mixing scheme, WC =      100.0
 initial mixing is a Kerker type mixing with AMIX =  0.4000 and BMIX =      1.0000
 Hartree-type preconditioning will be used
 using additional bands          168
 reciprocal scheme for non local part
 use partial core corrections
 calculate Harris-corrections to forces 
   (improved forces if not selfconsistent)
 use gradient corrections 
 use of overlap-Matrix (Vanderbilt PP)
 Fermi weights with tetrahedron method with Bloechl corrections


--------------------------------------------------------------------------------------------------------


  energy-cutoff  :      700.00
  volume of cell :     1146.92
      direct lattice vectors                 reciprocal lattice vectors
    10.495927000  0.458262000  0.000000000     0.095457020 -0.004167743  0.000000000
     0.458262000 10.495927000  0.000000000    -0.004167743  0.095457020  0.000000000
     0.000000000  0.000000000 10.430891000     0.000000000  0.000000000  0.095869087

  length of vectors
    10.505926311 10.505926311 10.430891000     0.095547961  0.095547961  0.095869087


 
 old parameters found on file WAVECAR:
  energy-cutoff  :      700.00
  volume of cell :     1146.92
      direct lattice vectors                 reciprocal lattice vectors
    10.495927000  0.458262000  0.000000000     0.095457020 -0.004167743  0.000000000
     0.458262000 10.495927000  0.000000000    -0.004167743  0.095457020  0.000000000
     0.000000000  0.000000000 10.430891000     0.000000000  0.000000000  0.095869087

  length of vectors

 
 k-points in units of 2pi/SCALE and weight: Automatic mesh                          
   0.00000000  0.00000000  0.00000000       0.125
   0.04772851 -0.00208387  0.00000000       0.250
   0.04564464  0.04564464  0.00000000       0.125
   0.00000000  0.00000000  0.04793454       0.125
   0.04772851 -0.00208387  0.04793454       0.250
   0.04564464  0.04564464  0.04793454       0.125
 
 k-points in reciprocal lattice and weights: Automatic mesh                          
   0.00000000  0.00000000  0.00000000       0.125
   0.50000000 -0.00000000  0.00000000       0.250
   0.50000000  0.50000000  0.00000000       0.125
   0.00000000  0.00000000  0.50000000       0.125
   0.50000000 -0.00000000  0.50000000       0.250
   0.50000000  0.50000000  0.50000000       0.125
 
 position of ions in fractional coordinates (direct lattice) 
   0.12606800  0.12545100  0.12031400
   0.62606800  0.12545100  0.12031400
   0.12606800  0.62545100  0.12031400
   0.62606800  0.62545100  0.12031400
   0.37393200  0.37454900  0.12031400
   0.87393200  0.37454900  0.12031400
   0.37393200  0.87454900  0.12031400
   0.87393200  0.87454900  0.12031400
   0.12454900  0.37393200  0.87031400
   0.62454900  0.37393200  0.87031400
   0.12454900  0.87393200  0.87031400
   0.62454900  0.87393200  0.87031400
   0.37545100  0.12606800  0.87031400
   0.87545100  0.12606800  0.87031400
   0.37545100  0.62606800  0.87031400
   0.87545100  0.62606800  0.87031400
   0.12393200  0.12454900  0.62031400
   0.62393200  0.12454900  0.62031400
   0.12393200  0.62454900  0.62031400
   0.62393200  0.62454900  0.62031400
   0.37606800  0.37545100  0.62031400
   0.87606800  0.37545100  0.62031400
   0.37606800  0.87545100  0.62031400
   0.87606800  0.87545100  0.62031400
   0.37454900  0.12393200  0.37031400
   0.87454900  0.12393200  0.37031400
   0.37454900  0.62393200  0.37031400
   0.87454900  0.62393200  0.37031400
   0.12545100  0.37606800  0.37031400
   0.62545100  0.37606800  0.37031400
   0.12545100  0.87606800  0.37031400
   0.62545100  0.87606800  0.37031400
   0.00000000  0.00000000  0.50409900
   0.50000000  0.00000000  0.50409900
   0.00000000  0.50000000  0.50409900
   0.50000000  0.50000000  0.50409900
   0.25000000  0.00000000  0.25409900
   0.75000000  0.00000000  0.25409900
   0.25000000  0.50000000  0.25409900
   0.75000000  0.50000000  0.25409900
   0.25000000  0.25000000  0.00409900
   0.75000000  0.25000000  0.00409900
   0.25000000  0.75000000  0.00409900
   0.75000000  0.75000000  0.00409900
   0.00000000  0.25000000  0.75409900
   0.50000000  0.25000000  0.75409900
   0.00000000  0.75000000  0.75409900
   0.50000000  0.75000000  0.75409900
   0.00000000  0.00000000  0.00527200
   0.50000000  0.00000000  0.00527200
   0.00000000  0.50000000  0.00527200
   0.50000000  0.50000000  0.00527200
   0.25000000  0.00000000  0.75527200
   0.75000000  0.00000000  0.75527200
   0.25000000  0.50000000  0.75527200
   0.75000000  0.50000000  0.75527200
   0.25000000  0.25000000  0.50527200
   0.75000000  0.25000000  0.50527200
   0.25000000  0.75000000  0.50527200
   0.75000000  0.75000000  0.50527200
   0.00000000  0.25000000  0.25527200
   0.50000000  0.25000000  0.25527200
   0.00000000  0.75000000  0.25527200
   0.50000000  0.75000000  0.25527200
 
 position of ions in cartesian coordinates  (Angst):
   1.38068995  1.37449671  1.25498222
   6.62865345  1.60362771  1.25498222
   1.60982095  6.62246021  1.25498222
   6.85778445  6.85159121  1.25498222
   4.09640455  4.10259779  1.25498222
   9.34436805  4.33172879  1.25498222
   4.32553555  9.35056129  1.25498222
   9.57349905  9.57969229  1.25498222
   1.47861604  3.98183905  9.07815047
   6.72657954  4.21097005  9.07815047
   1.70774704  9.22980255  9.07815047
   6.95571054  9.45893355  9.07815047
   3.99847846  1.49525545  9.07815047
   9.24644196  1.72438645  9.07815047
   4.22760946  6.74321895  9.07815047
   9.47557296  6.97234995  9.07815047
   1.35785730  1.36405054  6.47042772
   6.60582080  1.59318154  6.47042772
   1.58698830  6.61201404  6.47042772
   6.83495180  6.84114504  6.47042772
   4.11923720  4.11304396  6.47042772
   9.36720070  4.34217496  6.47042772
   4.34836820  9.36100746  6.47042772
   9.59633170  9.59013846  6.47042772
   3.98803229  1.47242280  3.86270497
   9.23599579  1.70155380  3.86270497
   4.21716329  6.72038630  3.86270497
   9.46512679  6.94951730  3.86270497
   1.48906221  4.00467170  3.86270497
   6.73702571  4.23380270  3.86270497
   1.71819321  9.25263520  3.86270497
   6.96615671  9.48176620  3.86270497
   0.00000000  0.00000000  5.25820172
   5.24796350  0.22913100  5.25820172
   0.22913100  5.24796350  5.25820172
   5.47709450  5.47709450  5.25820172
   2.62398175  0.11456550  2.65047897
   7.87194525  0.34369650  2.65047897
   2.85311275  5.36252900  2.65047897
   8.10107625  5.59166000  2.65047897
   2.73854725  2.73854725  0.04275622
   7.98651075  2.96767825  0.04275622
   2.96767825  7.98651075  0.04275622
   8.21564175  8.21564175  0.04275622
   0.11456550  2.62398175  7.86592447
   5.36252900  2.85311275  7.86592447
   0.34369650  7.87194525  7.86592447
   5.59166000  8.10107625  7.86592447
   0.00000000  0.00000000  0.05499166
   5.24796350  0.22913100  0.05499166
   0.22913100  5.24796350  0.05499166
   5.47709450  5.47709450  0.05499166
   2.62398175  0.11456550  7.87815991
   7.87194525  0.34369650  7.87815991
   2.85311275  5.36252900  7.87815991
   8.10107625  5.59166000  7.87815991
   2.73854725  2.73854725  5.27043716
   7.98651075  2.96767825  5.27043716
   2.96767825  7.98651075  5.27043716
   8.21564175  8.21564175  5.27043716
   0.11456550  2.62398175  2.66271441
   5.36252900  2.85311275  2.66271441
   0.34369650  7.87194525  2.66271441
   5.59166000  8.10107625  2.66271441
 


--------------------------------------------------------------------------------------------------------


 k-point  1 :   0.0000 0.0000 0.0000  plane waves:   48243
 k-point  2 :   0.5000-0.0000 0.0000  plane waves:   48252
 k-point  3 :   0.5000 0.5000 0.0000  plane waves:   48240
 k-point  4 :   0.0000 0.0000 0.5000  plane waves:   48238
 k-point  5 :   0.5000-0.0000 0.5000  plane waves:   48208
 k-point  6 :   0.5000 0.5000 0.5000  plane waves:   48148

 maximum and minimum number of plane-waves per node :     48252    48148

 maximum number of plane-waves:     48252
 maximum index in each direction: 
   IXMAX=   22   IYMAX=   22   IZMAX=   22
   IXMIN=  -23   IYMIN=  -23   IZMIN=  -23


 serial   3D FFT for wavefunctions
 parallel 3D FFT for charge:
    minimum data exchange during FFTs selected (reduces bandwidth)


 total amount of memory used by VASP MPI-rank0   300225. kBytes
=======================================================================

   base      :      30000. kBytes
   nonl-proj :     174956. kBytes
   fftplans  :       4588. kBytes
   grid      :      69719. kBytes
   one-center:       1990. kBytes
   wavefun   :      18972. kBytes
 
     INWAV:  cpu time   11.4592: real time   11.6027
 Broyden mixing: mesh for mixing (old mesh)
   NGX = 45   NGY = 45   NGZ = 45
  (NGX  =192   NGY  =192   NGZ  =180)
  gives a total of  91125 points

 initial charge density was supplied:
 number of electron     688.0000394 magnetization       0.0000000
 keeping initial charge density in first step


--------------------------------------------------------------------------------------------------------


 Maximum index for augmentation-charges          897 (set IRDMAX)


--------------------------------------------------------------------------------------------------------


 First call to EWALD:  gamma=   0.169
 Maximum number of real-space cells 3x 3x 3
 Maximum number of reciprocal cells 3x 3x 3

    FEWALD:  cpu time    0.0028: real time    0.0028


--------------------------------------- Iteration      1(   1)  ---------------------------------------


    POTLOK:  cpu time    0.3534: real time    0.3995
    SETDIJ:  cpu time    0.0145: real time    0.0147
     EDDAV:  cpu time  140.5600: real time  141.5392
 BZINTS: Fermi energy:  5.103077;688.000000 electrons
         Band energy:***********;  BLOECHL correction:  0.000000
       DOS:  cpu time    0.0034: real time    0.0035
    CHARGE:  cpu time    1.1799: real time    1.1869
    MIXING:  cpu time    0.0024: real time    0.0025
    --------------------------------------------
      LOOP:  cpu time  142.1137: real time  143.1462

 eigenvalue-minimisations  : 18944
 total energy-change (2. order) :-0.3048281E+03  (-0.1311322E+03)
 number of electron     688.0000395 magnetization       0.0000000
 augmentation part      282.9097414 magnetization       0.0000000

 Broyden mixing:
  rms(total) = 0.30684E+01    rms(broyden)= 0.30684E+01
  rms(prec ) = 0.30691E+01
  weight for this iteration     100.00

 Free energy of the ion-electron system (eV)
  ---------------------------------------------------
  alpha Z        PSCENC =      2363.84665194
  Ewald energy   TEWEN  =    -62569.43202698
  -Hartree energ DENC   =    -42888.30958227
  -exchange      EXHF   =         0.00000000
  -V(xc)+E(xc)   XCENC  =      3286.54459053
  PAW double counting   =    112238.21177940  -115931.21757163
  entropy T*S    EENTRO =         0.00000000
  eigenvalues    EBANDS =    -10824.53707470
  atomic energy  EATOM  =    114020.06510763
  Solvation  Ediel_sol  =         0.00000000
  ---------------------------------------------------
  free energy    TOTEN  =      -304.82812610 eV

  energy without entropy =     -304.82812610  energy(sigma->0) =     -304.82812610


--------------------------------------------------------------------------------------------------------




--------------------------------------- Iteration      1(   2)  ---------------------------------------


    POTLOK:  cpu time    0.1286: real time    0.1324
    SETDIJ:  cpu time    0.0130: real time    0.0131
     EDDAV:  cpu time   69.1453: real time   69.6752
 BZINTS: Fermi energy:  5.068460;688.000000 electrons
         Band energy:***********;  BLOECHL correction:  0.000000
       DOS:  cpu time    0.0031: real time    0.0031
    CHARGE:  cpu time    1.1773: real time    1.1852
    MIXING:  cpu time    0.0027: real time    0.0104
    --------------------------------------------
      LOOP:  cpu time   70.4699: real time   71.0194

 eigenvalue-minimisations  : 12800
 total energy-change (2. order) :-0.2220131E+02  (-0.2223150E+02)
 number of electron     688.0000394 magnetization       0.0000000
 augmentation part      281.7392377 magnetization       0.0000000

 Broyden mixing:
  rms(total) = 0.12499E+01    rms(broyden)= 0.12499E+01
  rms(prec ) = 0.12556E+01
  weight for this iteration     100.00

 eigenvalues of (default mixing * dielectric matrix)
  average eigenvalue GAMMA=   0.7019
  0.7019

 Free energy of the ion-electron system (eV)
  ---------------------------------------------------
  alpha Z        PSCENC =      2363.84665194
  Ewald energy   TEWEN  =    -62569.43202698
  -Hartree energ DENC   =    -42902.60924618
  -exchange      EXHF   =         0.00000000
  -V(xc)+E(xc)   XCENC  =      3287.15887430
  PAW double counting   =    114864.34249813  -118569.75083237
  entropy T*S    EENTRO =         0.00000000
  eigenvalues    EBANDS =    -10820.65046034
  atomic energy  EATOM  =    114020.06510763
  Solvation  Ediel_sol  =         0.00000000
  ---------------------------------------------------
  free energy    TOTEN  =      -327.02943388 eV

  energy without entropy =     -327.02943388  energy(sigma->0) =     -327.02943388


--------------------------------------------------------------------------------------------------------




--------------------------------------- Iteration      1(   3)  ---------------------------------------


    POTLOK:  cpu time    0.1285: real time    0.1294
    SETDIJ:  cpu time    0.0130: real time    0.0130
     EDDAV:  cpu time  144.3483: real time  145.3082
 BZINTS: Fermi energy:  5.051919;688.000000 electrons
         Band energy:***********;  BLOECHL correction:  0.000000
       DOS:  cpu time    0.0032: real time    0.0032
    CHARGE:  cpu time    1.1781: real time    1.1859
    MIXING:  cpu time    0.0015: real time    0.0025
    --------------------------------------------
      LOOP:  cpu time  145.6727: real time  146.6424

 eigenvalue-minimisations  : 19712
 total energy-change (2. order) :-0.2784740E+00  (-0.3402777E+00)
 number of electron     688.0000394 magnetization       0.0000000
 augmentation part      282.2882956 magnetization       0.0000000

 Broyden mixing:
  rms(total) = 0.91340E+00    rms(broyden)= 0.91339E+00
  rms(prec ) = 0.91700E+00
  weight for this iteration     100.00

 eigenvalues of (default mixing * dielectric matrix)
  average eigenvalue GAMMA=   0.5211
  0.5211  0.5211

 Free energy of the ion-electron system (eV)
  ---------------------------------------------------
  alpha Z        PSCENC =      2363.84665194
  Ewald energy   TEWEN  =    -62569.43202698
  -Hartree energ DENC   =    -42876.10984294
  -exchange      EXHF   =         0.00000000
  -V(xc)+E(xc)   XCENC  =      3286.52226316
  PAW double counting   =    114143.14081219  -117841.74866688
  entropy T*S    EENTRO =         0.00000000
  eigenvalues    EBANDS =    -10853.59220598
  atomic energy  EATOM  =    114020.06510763
  Solvation  Ediel_sol  =         0.00000000
  ---------------------------------------------------
  free energy    TOTEN  =      -327.30790787 eV

  energy without entropy =     -327.30790787  energy(sigma->0) =     -327.30790787


--------------------------------------------------------------------------------------------------------




--------------------------------------- Iteration      1(   4)  ---------------------------------------


    POTLOK:  cpu time    0.1264: real time    0.1315
    SETDIJ:  cpu time    0.0128: real time    0.0129
     EDDAV:  cpu time   71.9599: real time   72.5009
 BZINTS: Fermi energy:  4.996052;688.000000 electrons
         Band energy:***********;  BLOECHL correction:  0.000000
       DOS:  cpu time    0.0027: real time    0.0028
    CHARGE:  cpu time    1.1796: real time    1.1866
    MIXING:  cpu time    0.0016: real time    0.0164
    --------------------------------------------
      LOOP:  cpu time   73.2830: real time   73.8510

 eigenvalue-minimisations  : 13056
 total energy-change (2. order) :-0.1713568E-02  (-0.1465607E-01)
 number of electron     688.0000394 magnetization       0.0000000
 augmentation part      282.1931820 magnetization       0.0000000

 Broyden mixing:
  rms(total) = 0.78946E+00    rms(broyden)= 0.78946E+00
  rms(prec ) = 0.78984E+00
  weight for this iteration     100.00

 eigenvalues of (default mixing * dielectric matrix)
  average eigenvalue GAMMA=   0.5414
  0.6311  0.6311  0.3620

 Free energy of the ion-electron system (eV)
  ---------------------------------------------------
  alpha Z        PSCENC =      2363.84665194
  Ewald energy   TEWEN  =    -62569.43202698
  -Hartree energ DENC   =    -42879.59877594
  -exchange      EXHF   =         0.00000000
  -V(xc)+E(xc)   XCENC  =      3286.43120307
  PAW double counting   =    113908.72631975  -117607.60013871
  entropy T*S    EENTRO =         0.00000000
  eigenvalues    EBANDS =    -10849.74796218
  atomic energy  EATOM  =    114020.06510763
  Solvation  Ediel_sol  =         0.00000000
  ---------------------------------------------------
  free energy    TOTEN  =      -327.30962143 eV

  energy without entropy =     -327.30962143  energy(sigma->0) =     -327.30962143


--------------------------------------------------------------------------------------------------------




--------------------------------------- Iteration      1(   5)  ---------------------------------------


    POTLOK:  cpu time    0.1302: real time    0.1312
    SETDIJ:  cpu time    0.0129: real time    0.0130
     EDDAV:  cpu time  123.7031: real time  124.5378
 BZINTS: Fermi energy:  4.983549;688.000000 electrons
         Band energy:***********;  BLOECHL correction:  0.000000
       DOS:  cpu time    0.0028: real time    0.0028
    CHARGE:  cpu time    1.1756: real time    1.1837
    MIXING:  cpu time    0.0013: real time    0.0013
    --------------------------------------------
      LOOP:  cpu time  125.0258: real time  125.8697

 eigenvalue-minimisations  : 17152
 total energy-change (2. order) :-0.3501181E-04  (-0.1208859E-02)
 number of electron     688.0000394 magnetization       0.0000000
 augmentation part      282.1642646 magnetization       0.0000000

 Broyden mixing:
  rms(total) = 0.68715E+00    rms(broyden)= 0.68715E+00
  rms(prec ) = 0.68731E+00
  weight for this iteration     100.00

 eigenvalues of (default mixing * dielectric matrix)
  average eigenvalue GAMMA=   0.4505
  0.6480  0.6480  0.3555  0.1505

 Free energy of the ion-electron system (eV)
  ---------------------------------------------------
  alpha Z        PSCENC =      2363.84665194
  Ewald energy   TEWEN  =    -62569.43202698
  -Hartree energ DENC   =    -42884.03553174
  -exchange      EXHF   =         0.00000000
  -V(xc)+E(xc)   XCENC  =      3286.54184847
  PAW double counting   =    113677.48641858  -117375.86110612
  entropy T*S    EENTRO =         0.00000000
  eigenvalues    EBANDS =    -10845.92101821
  atomic energy  EATOM  =    114020.06510763
  Solvation  Ediel_sol  =         0.00000000
  ---------------------------------------------------
  free energy    TOTEN  =      -327.30965645 eV

  energy without entropy =     -327.30965645  energy(sigma->0) =     -327.30965645


--------------------------------------------------------------------------------------------------------




--------------------------------------- Iteration      1(   6)  ---------------------------------------


    POTLOK:  cpu time    0.1296: real time    0.1316
    SETDIJ:  cpu time    0.0128: real time    0.0129
     EDDAV:  cpu time   91.9493: real time   92.6042
 BZINTS: Fermi energy:  4.978512;688.000000 electrons
         Band energy:***********;  BLOECHL correction:  0.000000
       DOS:  cpu time    0.0028: real time    0.0028
    CHARGE:  cpu time    1.1797: real time    1.1867
    MIXING:  cpu time    0.0016: real time    0.0016
    --------------------------------------------
      LOOP:  cpu time   93.2757: real time   93.9398

 eigenvalue-minimisations  : 14592
 total energy-change (2. order) : 0.2408752E-03  (-0.5749217E-04)
 number of electron     688.0000394 magnetization       0.0000000
 augmentation part      282.1634172 magnetization       0.0000000

 Broyden mixing:
  rms(total) = 0.62959E+00    rms(broyden)= 0.62959E+00
  rms(prec ) = 0.62974E+00
  weight for this iteration     100.00

 eigenvalues of (default mixing * dielectric matrix)
  average eigenvalue GAMMA=   0.5886
  0.7997  0.7997  0.5019  0.5019  0.3401

 Free energy of the ion-electron system (eV)
  ---------------------------------------------------
  alpha Z        PSCENC =      2363.84665194
  Ewald energy   TEWEN  =    -62569.43202698
  -Hartree energ DENC   =    -42884.53394231
  -exchange      EXHF   =         0.00000000
  -V(xc)+E(xc)   XCENC  =      3286.53641325
  PAW double counting   =    113549.71530567  -117247.58300273
  entropy T*S    EENTRO =         0.00000000
  eigenvalues    EBANDS =    -10845.92392203
  atomic energy  EATOM  =    114020.06510763
  Solvation  Ediel_sol  =         0.00000000
  ---------------------------------------------------
  free energy    TOTEN  =      -327.30941557 eV

  energy without entropy =     -327.30941557  energy(sigma->0) =     -327.30941557


--------------------------------------------------------------------------------------------------------




--------------------------------------- Iteration      1(   7)  ---------------------------------------


    POTLOK:  cpu time    0.1311: real time    0.1321
    SETDIJ:  cpu time    0.0130: real time    0.0130
     EDDAV:  cpu time  125.6138: real time  126.4600
 BZINTS: Fermi energy:  4.976749;688.000000 electrons
         Band energy:***********;  BLOECHL correction:  0.000000
       DOS:  cpu time    0.0027: real time    0.0027
    CHARGE:  cpu time    1.1801: real time    1.1868
    MIXING:  cpu time    0.0016: real time    0.0016
    --------------------------------------------
      LOOP:  cpu time  126.9422: real time  127.7963

 eigenvalue-minimisations  : 17408
 total energy-change (2. order) : 0.7160158E-03  (-0.5095504E-04)
 number of electron     688.0000394 magnetization       0.0000000
 augmentation part      282.1892999 magnetization       0.0000000

 Broyden mixing:
  rms(total) = 0.48089E+00    rms(broyden)= 0.48089E+00
  rms(prec ) = 0.48098E+00
  weight for this iteration     100.00

 eigenvalues of (default mixing * dielectric matrix)
  average eigenvalue GAMMA=   0.7267
  1.1992  1.1992  0.5811  0.5811  0.4602  0.3396

 Free energy of the ion-electron system (eV)
  ---------------------------------------------------
  alpha Z        PSCENC =      2363.84665194
  Ewald energy   TEWEN  =    -62569.43202698
  -Hartree energ DENC   =    -42885.21955995
  -exchange      EXHF   =         0.00000000
  -V(xc)+E(xc)   XCENC  =      3286.52709683
  PAW double counting   =    113220.05762577  -116916.57096972
  entropy T*S    EENTRO =         0.00000000
  eigenvalues    EBANDS =    -10846.58262506
  atomic energy  EATOM  =    114020.06510763
  Solvation  Ediel_sol  =         0.00000000
  ---------------------------------------------------
  free energy    TOTEN  =      -327.30869955 eV

  energy without entropy =     -327.30869955  energy(sigma->0) =     -327.30869955


--------------------------------------------------------------------------------------------------------




--------------------------------------- Iteration      1(   8)  ---------------------------------------


    POTLOK:  cpu time    0.1302: real time    0.1311
    SETDIJ:  cpu time    0.0128: real time    0.0129
     EDDAV:  cpu time   71.2602: real time   71.7975
 BZINTS: Fermi energy:  4.976400;688.000000 electrons
         Band energy:***********;  BLOECHL correction:  0.000000
       DOS:  cpu time    0.0027: real time    0.0027
    CHARGE:  cpu time    1.1786: real time    1.1857
    MIXING:  cpu time    0.0016: real time    0.0016
    --------------------------------------------
      LOOP:  cpu time   72.5862: real time   73.1316

 eigenvalue-minimisations  : 12800
 total energy-change (2. order) : 0.4135561E-03  (-0.3892923E-04)
 number of electron     688.0000394 magnetization      -0.0000000
 augmentation part      282.2012666 magnetization      -0.0000000

 Broyden mixing:
  rms(total) = 0.29760E+00    rms(broyden)= 0.29760E+00
  rms(prec ) = 0.29770E+00
  weight for this iteration     100.00

 eigenvalues of (default mixing * dielectric matrix)
  average eigenvalue GAMMA=   0.7390
  1.3269  1.3269  0.6397  0.6397  0.4539  0.4539  0.3322

 Free energy of the ion-electron system (eV)
  ---------------------------------------------------
  alpha Z        PSCENC =      2363.84665194
  Ewald energy   TEWEN  =    -62569.43202698
  -Hartree energ DENC   =    -42886.84280236
  -exchange      EXHF   =         0.00000000
  -V(xc)+E(xc)   XCENC  =      3286.53663427
  PAW double counting   =    112825.59826325  -116520.62306810
  entropy T*S    EENTRO =         0.00000000
  eigenvalues    EBANDS =    -10846.45704563
  atomic energy  EATOM  =    114020.06510763
  Solvation  Ediel_sol  =         0.00000000
  ---------------------------------------------------
  free energy    TOTEN  =      -327.30828600 eV

  energy without entropy =     -327.30828600  energy(sigma->0) =     -327.30828600


--------------------------------------------------------------------------------------------------------




--------------------------------------- Iteration      1(   9)  ---------------------------------------


    POTLOK:  cpu time    0.1263: real time    0.1307
    SETDIJ:  cpu time    0.0129: real time    0.0130
     EDDAV:  cpu time  138.9158: real time  139.8363
 BZINTS: Fermi energy:  4.976127;688.000000 electrons
         Band energy:***********;  BLOECHL correction:  0.000000
       DOS:  cpu time    0.0028: real time    0.0028
    CHARGE:  cpu time    1.1808: real time    1.1885
    MIXING:  cpu time    0.0018: real time    0.0018
    --------------------------------------------
      LOOP:  cpu time  140.2403: real time  141.1730

 eigenvalue-minimisations  : 18176
 total energy-change (2. order) : 0.1161680E-03  (-0.7555294E-05)
 number of electron     688.0000394 magnetization      -0.0000000
 augmentation part      282.2092016 magnetization      -0.0000000

 Broyden mixing:
  rms(total) = 0.23531E+00    rms(broyden)= 0.23531E+00
  rms(prec ) = 0.23538E+00
  weight for this iteration     100.00

 eigenvalues of (default mixing * dielectric matrix)
  average eigenvalue GAMMA=   0.7170
  1.3950  1.3950  0.6657  0.6657  0.4497  0.4497  0.3492  0.3662

 Free energy of the ion-electron system (eV)
  ---------------------------------------------------
  alpha Z        PSCENC =      2363.84665194
  Ewald energy   TEWEN  =    -62569.43202698
  -Hartree energ DENC   =    -42887.15192597
  -exchange      EXHF   =         0.00000000
  -V(xc)+E(xc)   XCENC  =      3286.53928653
  PAW double counting   =    112701.03838880  -116395.60496269
  entropy T*S    EENTRO =         0.00000000
  eigenvalues    EBANDS =    -10846.60868908
  atomic energy  EATOM  =    114020.06510763
  Solvation  Ediel_sol  =         0.00000000
  ---------------------------------------------------
  free energy    TOTEN  =      -327.30816983 eV

  energy without entropy =     -327.30816983  energy(sigma->0) =     -327.30816983


--------------------------------------------------------------------------------------------------------




--------------------------------------- Iteration      1(  10)  ---------------------------------------


    POTLOK:  cpu time    0.1308: real time    0.1319
    SETDIJ:  cpu time    0.0129: real time    0.0129
     EDDAV:  cpu time   85.0638: real time   85.6717
 BZINTS: Fermi energy:  4.976058;688.000000 electrons
         Band energy:***********;  BLOECHL correction:  0.000000
       DOS:  cpu time    0.0027: real time    0.0027
    CHARGE:  cpu time    1.1782: real time    1.1854
    MIXING:  cpu time    0.0018: real time    0.0018
    --------------------------------------------
      LOOP:  cpu time   86.3902: real time   87.0065

 eigenvalue-minimisations  : 13824
 total energy-change (2. order) : 0.1436881E-03  (-0.1710710E-04)
 number of electron     688.0000394 magnetization      -0.0000000
 augmentation part      282.2232292 magnetization      -0.0000000

 Broyden mixing:
  rms(total) = 0.11140E+00    rms(broyden)= 0.11140E+00
  rms(prec ) = 0.11143E+00
  weight for this iteration     100.00

 eigenvalues of (default mixing * dielectric matrix)
  average eigenvalue GAMMA=   0.8826
  1.8096  1.8096  0.9149  0.9149  0.5900  0.5900  0.4900  0.4900  0.3348

 Free energy of the ion-electron system (eV)
  ---------------------------------------------------
  alpha Z        PSCENC =      2363.84665194
  Ewald energy   TEWEN  =    -62569.43202698
  -Hartree energ DENC   =    -42887.79444440
  -exchange      EXHF   =         0.00000000
  -V(xc)+E(xc)   XCENC  =      3286.54278885
  PAW double counting   =    112454.01090507  -116147.69245267
  entropy T*S    EENTRO =         0.00000000
  eigenvalues    EBANDS =    -10846.85455557
  atomic energy  EATOM  =    114020.06510763
  Solvation  Ediel_sol  =         0.00000000
  ---------------------------------------------------
  free energy    TOTEN  =      -327.30802614 eV

  energy without entropy =     -327.30802614  energy(sigma->0) =     -327.30802614


--------------------------------------------------------------------------------------------------------




--------------------------------------- Iteration      1(  11)  ---------------------------------------


    POTLOK:  cpu time    0.1300: real time    0.1310
    SETDIJ:  cpu time    0.0129: real time    0.0129
     EDDAV:  cpu time  116.8500: real time  117.6504
 BZINTS: Fermi energy:  4.976021;688.000000 electrons
         Band energy:***********;  BLOECHL correction:  0.000000
       DOS:  cpu time    0.0041: real time    0.0041
    CHARGE:  cpu time    1.4412: real time    1.4509
    MIXING:  cpu time    0.0021: real time    0.0021
    --------------------------------------------
      LOOP:  cpu time  118.4402: real time  119.2514

 eigenvalue-minimisations  : 16384
 total energy-change (2. order) : 0.3364112E-04  (-0.4624154E-05)
 number of electron     688.0000394 magnetization      -0.0000000
 augmentation part      282.2304162 magnetization      -0.0000000

 Broyden mixing:
  rms(total) = 0.49680E-01    rms(broyden)= 0.49680E-01
  rms(prec ) = 0.49696E-01
  weight for this iteration     100.00

 eigenvalues of (default mixing * dielectric matrix)
  average eigenvalue GAMMA=   0.9250
  2.0689  2.0689  0.9877  0.9877  0.6463  0.6463  0.3354  0.5127  0.5127  0.4835

 Free energy of the ion-electron system (eV)
  ---------------------------------------------------
  alpha Z        PSCENC =      2363.84665194
  Ewald energy   TEWEN  =    -62569.43202698
  -Hartree energ DENC   =    -42888.06407716
  -exchange      EXHF   =         0.00000000
  -V(xc)+E(xc)   XCENC  =      3286.54428183
  PAW double counting   =    112334.64464632  -116027.94003245
  entropy T*S    EENTRO =         0.00000000
  eigenvalues    EBANDS =    -10846.97254363
  atomic energy  EATOM  =    114020.06510763
  Solvation  Ediel_sol  =         0.00000000
  ---------------------------------------------------
  free energy    TOTEN  =      -327.30799250 eV

  energy without entropy =     -327.30799250  energy(sigma->0) =     -327.30799250


--------------------------------------------------------------------------------------------------------




--------------------------------------- Iteration      1(  12)  ---------------------------------------


    POTLOK:  cpu time    0.1508: real time    0.1519
    SETDIJ:  cpu time    0.0148: real time    0.0148
     EDDAV:  cpu time  104.9256: real time  105.6617
 BZINTS: Fermi energy:  4.976034;688.000000 electrons
         Band energy:***********;  BLOECHL correction:  0.000000
       DOS:  cpu time    0.0028: real time    0.0028
    CHARGE:  cpu time    1.1791: real time    1.1867
    MIXING:  cpu time    0.0022: real time    0.0029
    --------------------------------------------
      LOOP:  cpu time  106.2752: real time  107.0208

 eigenvalue-minimisations  : 15360
 total energy-change (2. order) : 0.8201474E-05  (-0.6447224E-06)
 number of electron     688.0000394 magnetization      -0.0000000
 augmentation part      282.2321078 magnetization      -0.0000000

 Broyden mixing:
  rms(total) = 0.24352E-01    rms(broyden)= 0.24352E-01
  rms(prec ) = 0.24361E-01
  weight for this iteration     100.00

 eigenvalues of (default mixing * dielectric matrix)
  average eigenvalue GAMMA=   1.0204
  2.4707  2.4707  1.1459  1.1459  0.7628  0.7628  0.5599  0.5599  0.3352  0.5055
  0.5055

 Free energy of the ion-electron system (eV)
  ---------------------------------------------------
  alpha Z        PSCENC =      2363.84665194
  Ewald energy   TEWEN  =    -62569.43202698
  -Hartree energ DENC   =    -42888.18934426
  -exchange      EXHF   =         0.00000000
  -V(xc)+E(xc)   XCENC  =      3286.54653713
  PAW double counting   =    112288.00716963  -115981.17761989
  entropy T*S    EENTRO =         0.00000000
  eigenvalues    EBANDS =    -10846.97445948
  atomic energy  EATOM  =    114020.06510763
  Solvation  Ediel_sol  =         0.00000000
  ---------------------------------------------------
  free energy    TOTEN  =      -327.30798430 eV

  energy without entropy =     -327.30798430  energy(sigma->0) =     -327.30798430


--------------------------------------------------------------------------------------------------------




--------------------------------------- Iteration      1(  13)  ---------------------------------------


    POTLOK:  cpu time    0.1269: real time    0.1303
    SETDIJ:  cpu time    0.0129: real time    0.0130
     EDDAV:  cpu time  110.4232: real time  111.1841
 BZINTS: Fermi energy:  4.976038;688.000000 electrons
         Band energy:***********;  BLOECHL correction:  0.000000
       DOS:  cpu time    0.0028: real time    0.0028
    CHARGE:  cpu time    1.1822: real time    1.1890
    MIXING:  cpu time    0.0020: real time    0.0020
    --------------------------------------------
      LOOP:  cpu time  111.7500: real time  112.5212

 eigenvalue-minimisations  : 16128
 total energy-change (2. order) : 0.4651869E-05  (-0.3664489E-06)
 number of electron     688.0000394 magnetization      -0.0000000
 augmentation part      282.2339861 magnetization      -0.0000000

 Broyden mixing:
  rms(total) = 0.56922E-02    rms(broyden)= 0.56922E-02
  rms(prec ) = 0.56957E-02
  weight for this iteration     100.00

 eigenvalues of (default mixing * dielectric matrix)
  average eigenvalue GAMMA=   1.1804
  3.0443  3.0443  1.4504  1.4504  0.9298  0.9298  0.3352  0.6468  0.6468  0.5623
  0.5623  0.5623

 Free energy of the ion-electron system (eV)
  ---------------------------------------------------
  alpha Z        PSCENC =      2363.84665194
  Ewald energy   TEWEN  =    -62569.43202698
  -Hartree energ DENC   =    -42888.29380372
  -exchange      EXHF   =         0.00000000
  -V(xc)+E(xc)   XCENC  =      3286.54731300
  PAW double counting   =    112250.42391175  -115943.47026020
  entropy T*S    EENTRO =         0.00000000
  eigenvalues    EBANDS =    -10846.99487306
  atomic energy  EATOM  =    114020.06510763
  Solvation  Ediel_sol  =         0.00000000
  ---------------------------------------------------
  free energy    TOTEN  =      -327.30797965 eV

  energy without entropy =     -327.30797965  energy(sigma->0) =     -327.30797965


--------------------------------------------------------------------------------------------------------




--------------------------------------- Iteration      1(  14)  ---------------------------------------


    POTLOK:  cpu time    0.1307: real time    0.1317
    SETDIJ:  cpu time    0.0127: real time    0.0128
     EDDAV:  cpu time   98.3733: real time   99.0665
 BZINTS: Fermi energy:  4.976035;688.000000 electrons
         Band energy:***********;  BLOECHL correction:  0.000000
       DOS:  cpu time    0.0027: real time    0.0028
    CHARGE:  cpu time    1.1802: real time    1.1881
    MIXING:  cpu time    0.0022: real time    0.0022
    --------------------------------------------
      LOOP:  cpu time   99.7018: real time  100.4040

 eigenvalue-minimisations  : 14848
 total energy-change (2. order) : 0.9253126E-06  (-0.7329385E-07)
 number of electron     688.0000394 magnetization       0.0000000
 augmentation part      282.2348357 magnetization       0.0000000

 Broyden mixing:
  rms(total) = 0.35819E-03    rms(broyden)= 0.35818E-03
  rms(prec ) = 0.35897E-03
  weight for this iteration     100.00

 eigenvalues of (default mixing * dielectric matrix)
  average eigenvalue GAMMA=   1.1895
  3.0283  3.0283  1.5853  1.5853  1.0350  1.0350  0.3352  0.7417  0.7417  0.5753
  0.5753  0.5985  0.5985

 Free energy of the ion-electron system (eV)
  ---------------------------------------------------
  alpha Z        PSCENC =      2363.84665194
  Ewald energy   TEWEN  =    -62569.43202698
  -Hartree energ DENC   =    -42888.32104276
  -exchange      EXHF   =         0.00000000
  -V(xc)+E(xc)   XCENC  =      3286.54717052
  PAW double counting   =    112238.83242396  -115931.83808909
  entropy T*S    EENTRO =         0.00000000
  eigenvalues    EBANDS =    -10847.00817393
  atomic energy  EATOM  =    114020.06510763
  Solvation  Ediel_sol  =         0.00000000
  ---------------------------------------------------
  free energy    TOTEN  =      -327.30797872 eV

  energy without entropy =     -327.30797872  energy(sigma->0) =     -327.30797872


--------------------------------------------------------------------------------------------------------




--------------------------------------- Iteration      1(  15)  ---------------------------------------


    POTLOK:  cpu time    0.1297: real time    0.1307
    SETDIJ:  cpu time    0.0128: real time    0.0129
     EDDAV:  cpu time   99.2877: real time   99.9745
 BZINTS: Fermi energy:  4.976035;688.000000 electrons
         Band energy:***********;  BLOECHL correction:  0.000000
       DOS:  cpu time    0.0028: real time    0.0028
    CHARGE:  cpu time    1.1795: real time    1.1868
    MIXING:  cpu time    0.0022: real time    0.0022
    --------------------------------------------
      LOOP:  cpu time  100.6146: real time  101.3097

 eigenvalue-minimisations  : 14848
 total energy-change (2. order) : 0.9559153E-07  (-0.5645084E-08)
 number of electron     688.0000394 magnetization      -0.0000000
 augmentation part      282.2349153 magnetization      -0.0000000

 Broyden mixing:
  rms(total) = 0.30177E-03    rms(broyden)= 0.30176E-03
  rms(prec ) = 0.30349E-03
  weight for this iteration     100.00

 eigenvalues of (default mixing * dielectric matrix)
  average eigenvalue GAMMA=   1.1587
  2.8331  2.8331  1.6342  1.6342  1.1233  1.1233  0.3352  0.7974  0.7974  0.5760
  0.5760  0.6769  0.6769  0.6043

 Free energy of the ion-electron system (eV)
  ---------------------------------------------------
  alpha Z        PSCENC =      2363.84665194
  Ewald energy   TEWEN  =    -62569.43202698
  -Hartree energ DENC   =    -42888.32456313
  -exchange      EXHF   =         0.00000000
  -V(xc)+E(xc)   XCENC  =      3286.54701348
  PAW double counting   =    112237.35010976  -115930.35236806
  entropy T*S    EENTRO =         0.00000000
  eigenvalues    EBANDS =    -10847.00790326
  atomic energy  EATOM  =    114020.06510763
  Solvation  Ediel_sol  =         0.00000000
  ---------------------------------------------------
  free energy    TOTEN  =      -327.30797863 eV

  energy without entropy =     -327.30797863  energy(sigma->0) =     -327.30797863


--------------------------------------------------------------------------------------------------------




--------------------------------------- Iteration      1(  16)  ---------------------------------------


    POTLOK:  cpu time    0.1304: real time    0.1314
    SETDIJ:  cpu time    0.0128: real time    0.0129
     EDDAV:  cpu time   71.3631: real time   71.8623
 BZINTS: Fermi energy:  4.976034;688.000000 electrons
         Band energy:***********;  BLOECHL correction:  0.000000
       DOS:  cpu time    0.0028: real time    0.0028
    CHARGE:  cpu time    1.1784: real time    1.1861
    MIXING:  cpu time    0.0023: real time    0.0023
    --------------------------------------------
      LOOP:  cpu time   72.6898: real time   73.1979

 eigenvalue-minimisations  : 10240
 total energy-change (2. order) :-0.1479930E-07  (-0.6092121E-09)
 number of electron     688.0000394 magnetization       0.0000000
 augmentation part      282.2348664 magnetization       0.0000000

 Broyden mixing:
  rms(total) = 0.49038E-04    rms(broyden)= 0.49038E-04
  rms(prec ) = 0.50954E-04
  weight for this iteration     100.00

 eigenvalues of (default mixing * dielectric matrix)
  average eigenvalue GAMMA=   1.2320
  3.7239  2.3661  2.3661  1.4843  1.4843  1.0467  1.0467  0.8005  0.8005  0.3352
  0.5768  0.5768  0.6384  0.6384  0.5952

 Free energy of the ion-electron system (eV)
  ---------------------------------------------------
  alpha Z        PSCENC =      2363.84665194
  Ewald energy   TEWEN  =    -62569.43202698
  -Hartree energ DENC   =    -42888.32289034
  -exchange      EXHF   =         0.00000000
  -V(xc)+E(xc)   XCENC  =      3286.54696137
  PAW double counting   =    112237.89853845  -115930.90268065
  entropy T*S    EENTRO =         0.00000000
  eigenvalues    EBANDS =    -10847.00764006
  atomic energy  EATOM  =    114020.06510763
  Solvation  Ediel_sol  =         0.00000000
  ---------------------------------------------------
  free energy    TOTEN  =      -327.30797864 eV

  energy without entropy =     -327.30797864  energy(sigma->0) =     -327.30797864


--------------------------------------------------------------------------------------------------------




--------------------------------------- Iteration      1(  17)  ---------------------------------------


    POTLOK:  cpu time    0.1309: real time    0.1320
    SETDIJ:  cpu time    0.0128: real time    0.0129
     EDDAV:  cpu time   77.6515: real time   78.1901
 BZINTS: Fermi energy:  4.976033;688.000000 electrons
         Band energy:***********;  BLOECHL correction:  0.000000
       DOS:  cpu time    0.0027: real time    0.0027
    --------------------------------------------
      LOOP:  cpu time   77.7979: real time   78.3377

 eigenvalue-minimisations  : 10752
 total energy-change (2. order) : 0.6388291E-08  (-0.1157651E-09)
 number of electron     688.0000394 magnetization       0.0000000
 augmentation part      282.2348664 magnetization       0.0000000

 Free energy of the ion-electron system (eV)
  ---------------------------------------------------
  alpha Z        PSCENC =      2363.84665194
  Ewald energy   TEWEN  =    -62569.43202698
  -Hartree energ DENC   =    -42888.32310188
  -exchange      EXHF   =         0.00000000
  -V(xc)+E(xc)   XCENC  =      3286.54697716
  PAW double counting   =    112238.12610059  -115931.13064921
  entropy T*S    EENTRO =         0.00000000
  eigenvalues    EBANDS =    -10847.00703787
  atomic energy  EATOM  =    114020.06510763
  Solvation  Ediel_sol  =         0.00000000
  ---------------------------------------------------
  free energy    TOTEN  =      -327.30797863 eV

  energy without entropy =     -327.30797863  energy(sigma->0) =     -327.30797863


--------------------------------------------------------------------------------------------------------




 average (electrostatic) potential at core
  the test charge radii are     0.9698  0.8297  0.9500
  (the norm of the test charge is              1.0000)
       1 -86.5819       2 -86.5819       3 -86.5819       4 -86.5819       5 -86.5819
       6 -86.5819       7 -86.5819       8 -86.5819       9 -86.5819      10 -86.5819
      11 -86.5819      12 -86.5819      13 -86.5819      14 -86.5819      15 -86.5819
      16 -86.5819      17 -86.5819      18 -86.5819      19 -86.5819      20 -86.5819
      21 -86.5819      22 -86.5819      23 -86.5819      24 -86.5819      25 -86.5819
      26 -86.5819      27 -86.5819      28 -86.5819      29 -86.5819      30 -86.5819
      31 -86.5819      32 -86.5819      33 -80.6694      34 -80.6694      35 -80.6694
      36 -80.6694      37 -80.6694      38 -80.6694      39 -80.6694      40 -80.6694
      41 -80.6694      42 -80.6694      43 -80.6694      44 -80.6694      45 -80.6694
      46 -80.6694      47 -80.6694      48 -80.6694      49 -80.1764      50 -80.1764
      51 -80.1764      52 -80.1764      53 -80.1764      54 -80.1764      55 -80.1764
[...]
   -.418E+02 0.713E+00 0.273E+02   0.426E+02 -.690E+00 -.275E+02   -.851E+00 -.207E-01 0.237E+00   -.264E-04 -.687E-06 0.171E-05
   -.418E+02 0.713E+00 0.273E+02   0.426E+02 -.690E+00 -.275E+02   -.851E+00 -.207E-01 0.237E+00   -.264E-04 -.687E-06 0.171E-05
   -.418E+02 0.713E+00 0.273E+02   0.426E+02 -.690E+00 -.275E+02   -.851E+00 -.207E-01 0.237E+00   -.264E-04 -.687E-06 0.171E-05
   -.418E+02 0.713E+00 0.273E+02   0.426E+02 -.690E+00 -.275E+02   -.851E+00 -.207E-01 0.237E+00   -.264E-04 -.687E-06 0.171E-05
   0.418E+02 -.713E+00 0.273E+02   -.426E+02 0.690E+00 -.275E+02   0.851E+00 0.207E-01 0.237E+00   0.264E-04 0.687E-06 0.171E-05
   0.418E+02 -.713E+00 0.273E+02   -.426E+02 0.690E+00 -.275E+02   0.851E+00 0.207E-01 0.237E+00   0.264E-04 0.687E-06 0.171E-05
   0.418E+02 -.713E+00 0.273E+02   -.426E+02 0.690E+00 -.275E+02   0.851E+00 0.207E-01 0.237E+00   0.264E-04 0.687E-06 0.171E-05
   0.418E+02 -.713E+00 0.273E+02   -.426E+02 0.690E+00 -.275E+02   0.851E+00 0.207E-01 0.237E+00   0.264E-04 0.687E-06 0.171E-05
   0.713E+00 -.418E+02 0.273E+02   -.690E+00 0.426E+02 -.275E+02   -.207E-01 -.851E+00 0.237E+00   -.687E-06 -.264E-04 0.171E-05
   0.713E+00 -.418E+02 0.273E+02   -.690E+00 0.426E+02 -.275E+02   -.207E-01 -.851E+00 0.237E+00   -.687E-06 -.264E-04 0.171E-05
   0.713E+00 -.418E+02 0.273E+02   -.690E+00 0.426E+02 -.275E+02   -.207E-01 -.851E+00 0.237E+00   -.687E-06 -.264E-04 0.171E-05
   0.713E+00 -.418E+02 0.273E+02   -.690E+00 0.426E+02 -.275E+02   -.207E-01 -.851E+00 0.237E+00   -.687E-06 -.264E-04 0.171E-05
   -.713E+00 0.418E+02 0.273E+02   0.690E+00 -.426E+02 -.275E+02   0.207E-01 0.851E+00 0.237E+00   0.687E-06 0.264E-04 0.171E-05
   -.713E+00 0.418E+02 0.273E+02   0.690E+00 -.426E+02 -.275E+02   0.207E-01 0.851E+00 0.237E+00   0.687E-06 0.264E-04 0.171E-05
   -.713E+00 0.418E+02 0.273E+02   0.690E+00 -.426E+02 -.275E+02   0.207E-01 0.851E+00 0.237E+00   0.687E-06 0.264E-04 0.171E-05
   -.713E+00 0.418E+02 0.273E+02   0.690E+00 -.426E+02 -.275E+02   0.207E-01 0.851E+00 0.237E+00   0.687E-06 0.264E-04 0.171E-05
   -.101E-06 -.773E-07 -.320E+02   -.250E-12 -.206E-12 0.307E+02   -.112E-24 0.646E-25 0.129E+01   0.278E-12 -.390E-12 -.167E-04
   -.101E-06 -.773E-07 -.320E+02   -.250E-12 -.199E-12 0.307E+02   0.171E-24 -.258E-24 0.129E+01   -.906E-12 -.395E-12 -.167E-04
   -.101E-06 -.773E-07 -.320E+02   -.250E-12 -.142E-12 0.307E+02   0.643E-25 0.113E-24 0.129E+01   -.253E-12 0.625E-12 -.167E-04
   -.101E-06 -.773E-07 -.320E+02   -.278E-12 -.256E-12 0.307E+02   -.128E-24 0.258E-25 0.129E+01   -.381E-12 0.616E-12 -.167E-04
   -.773E-07 -.101E-06 -.320E+02   -.284E-13 -.398E-12 0.307E+02   -.116E-24 0.152E-24 0.129E+01   -.533E-12 -.463E-12 -.167E-04
   -.773E-07 -.101E-06 -.320E+02   0.000E+00 -.398E-12 0.307E+02   -.913E-25 -.168E-24 0.129E+01   0.399E-12 -.914E-12 -.167E-04
   -.773E-07 -.101E-06 -.320E+02   0.000E+00 -.398E-12 0.307E+02   0.115E-24 -.517E-25 0.129E+01   -.707E-12 0.574E-12 -.167E-04
   -.773E-07 -.101E-06 -.320E+02   0.000E+00 -.341E-12 0.307E+02   0.132E-24 -.775E-25 0.129E+01   0.439E-12 0.111E-11 -.167E-04
   -.101E-06 -.773E-07 -.320E+02   -.171E-12 0.959E-13 0.307E+02   0.162E-25 0.388E-25 0.129E+01   -.941E-12 0.218E-12 -.167E-04
   -.101E-06 -.774E-07 -.320E+02   -.171E-12 0.959E-13 0.307E+02   0.565E-26 -.775E-25 0.129E+01   0.248E-12 0.290E-12 -.167E-04
   -.101E-06 -.773E-07 -.320E+02   -.171E-12 0.915E-13 0.307E+02   -.258E-25 0.258E-25 0.129E+01   -.102E-11 -.530E-13 -.167E-04
   -.101E-06 -.773E-07 -.320E+02   -.171E-12 0.417E-13 0.307E+02   -.372E-25 -.775E-25 0.129E+01   0.333E-12 -.671E-13 -.167E-04
   -.773E-07 -.101E-06 -.320E+02   0.678E-13 -.207E-12 0.307E+02   0.140E-24 -.517E-25 0.129E+01   0.589E-12 0.302E-12 -.167E-04
   -.773E-07 -.101E-06 -.320E+02   0.701E-13 -.938E-13 0.307E+02   -.108E-24 -.132E-24 0.129E+01   -.803E-12 0.507E-12 -.167E-04
   -.773E-07 -.101E-06 -.320E+02   0.606E-13 -.914E-13 0.307E+02   0.251E-25 -.179E-24 0.129E+01   0.463E-12 -.366E-12 -.167E-04
   -.773E-07 -.101E-06 -.320E+02   0.629E-13 -.915E-13 0.307E+02   0.366E-25 0.517E-25 0.129E+01   -.647E-12 -.287E-12 -.167E-04
   -.240E-07 0.535E-07 -.258E+02   0.622E-13 -.110E-12 0.243E+02   0.188E-25 -.129E-25 0.152E+01   0.405E-12 -.562E-12 -.219E-04
   -.240E-07 0.535E-07 -.258E+02   0.480E-13 -.568E-13 0.243E+02   -.525E-26 0.646E-26 0.152E+01   -.494E-12 -.366E-12 -.219E-04
   -.240E-07 0.535E-07 -.258E+02   0.551E-13 -.135E-12 0.243E+02   -.267E-25 0.646E-25 0.152E+01   0.273E-12 0.227E-12 -.219E-04
   -.240E-07 0.534E-07 -.258E+02   0.409E-13 -.853E-13 0.243E+02   0.384E-25 0.517E-25 0.152E+01   -.478E-12 0.294E-12 -.219E-04
   0.535E-07 -.240E-07 -.258E+02   -.568E-13 0.853E-13 0.243E+02   -.586E-26 0.194E-25 0.152E+01   -.530E-12 -.114E-12 -.219E-04
   0.535E-07 -.240E-07 -.258E+02   -.675E-13 0.213E-13 0.243E+02   0.118E-24 0.372E-25 0.152E+01   0.712E-13 -.269E-12 -.219E-04
   0.535E-07 -.240E-07 -.258E+02   -.675E-13 0.426E-13 0.243E+02   0.111E-25 0.388E-25 0.152E+01   -.542E-12 -.172E-13 -.219E-04
   0.535E-07 -.240E-07 -.258E+02   -.107E-12 0.639E-13 0.243E+02   -.242E-26 0.646E-25 0.152E+01   0.637E-13 0.146E-12 -.219E-04
   -.240E-07 0.535E-07 -.258E+02   0.711E-14 0.101E-12 0.243E+02   0.501E-25 0.323E-25 0.152E+01   -.282E-12 0.253E-12 -.219E-04
   -.240E-07 0.535E-07 -.258E+02   0.213E-13 0.105E-12 0.243E+02   0.707E-25 0.420E-25 0.152E+01   0.578E-13 0.609E-12 -.219E-04
   -.240E-07 0.534E-07 -.258E+02   0.426E-13 0.764E-13 0.243E+02   -.258E-25 0.501E-25 0.152E+01   -.209E-12 -.451E-12 -.219E-04
   -.240E-07 0.535E-07 -.258E+02   0.284E-13 0.112E-12 0.243E+02   0.693E-25 0.129E-25 0.152E+01   0.143E-12 -.862E-12 -.219E-04
   0.535E-07 -.240E-07 -.258E+02   -.847E-13 0.243E-12 0.243E+02   -.438E-25 0.420E-25 0.152E+01   0.829E-13 0.269E-12 -.219E-04
   0.535E-07 -.241E-07 -.258E+02   -.961E-13 0.250E-12 0.243E+02   0.261E-25 -.452E-25 0.152E+01   -.565E-12 0.313E-12 -.219E-04
   0.535E-07 -.240E-07 -.258E+02   -.672E-13 0.236E-12 0.243E+02   -.440E-25 0.129E-25 0.152E+01   -.229E-12 -.532E-12 -.219E-04
   0.535E-07 -.240E-07 -.258E+02   -.787E-13 0.215E-12 0.243E+02   0.258E-25 0.194E-25 0.152E+01   -.166E-12 -.371E-12 -.219E-04
 -----------------------------------------------------------------------------------------------
   -.928E-06 -.928E-06 -.526E+02   -.303E-12 0.103E-12 -.227E-11   -.199E-14 -.166E-24 0.526E+02   -.602E-11 -.116E-11 -.562E-03
 
 
 POSITION                                       TOTAL-FORCE (eV/Angst)
 -----------------------------------------------------------------------------------
      1.38069      1.37450      1.25498         0.004554     -0.002385     -0.022280
      6.62865      1.60363      1.25498         0.004554     -0.002385     -0.022280
      1.60982      6.62246      1.25498         0.004554     -0.002385     -0.022280
      6.85778      6.85159      1.25498         0.004554     -0.002385     -0.022280
      4.09640      4.10260      1.25498        -0.004554      0.002385     -0.022280
      9.34437      4.33173      1.25498        -0.004554      0.002385     -0.022280
      4.32554      9.35056      1.25498        -0.004554      0.002385     -0.022280
      9.57350      9.57969      1.25498        -0.004554      0.002385     -0.022280
      1.47862      3.98184      9.07815         0.002385     -0.004554     -0.022280
      6.72658      4.21097      9.07815         0.002385     -0.004554     -0.022280
      1.70775      9.22980      9.07815         0.002385     -0.004554     -0.022280
      6.95571      9.45893      9.07815         0.002385     -0.004554     -0.022280
      3.99848      1.49526      9.07815        -0.002385      0.004554     -0.022280
      9.24644      1.72439      9.07815        -0.002385      0.004554     -0.022280
      4.22761      6.74322      9.07815        -0.002385      0.004554     -0.022280
      9.47557      6.97235      9.07815        -0.002385      0.004554     -0.022280
      1.35786      1.36405      6.47043        -0.004554      0.002385     -0.022280
      6.60582      1.59318      6.47043        -0.004554      0.002385     -0.022280
      1.58699      6.61201      6.47043        -0.004554      0.002385     -0.022280
      6.83495      6.84115      6.47043        -0.004554      0.002385     -0.022280
      4.11924      4.11304      6.47043         0.004554     -0.002385     -0.022280
      9.36720      4.34217      6.47043         0.004554     -0.002385     -0.022280
      4.34837      9.36101      6.47043         0.004554     -0.002385     -0.022280
      9.59633      9.59014      6.47043         0.004554     -0.002385     -0.022280
      3.98803      1.47242      3.86270         0.002385     -0.004554     -0.022280
      9.23600      1.70155      3.86270         0.002385     -0.004554     -0.022280
      4.21716      6.72039      3.86270         0.002385     -0.004554     -0.022280
      9.46513      6.94952      3.86270         0.002385     -0.004554     -0.022280
      1.48906      4.00467      3.86270        -0.002385      0.004554     -0.022280
      6.73703      4.23380      3.86270        -0.002385      0.004554     -0.022280
      1.71819      9.25264      3.86270        -0.002385      0.004554     -0.022280
      6.96616      9.48177      3.86270        -0.002385      0.004554     -0.022280
      0.00000      0.00000      5.25820        -0.000000      0.000000      0.017184
      5.24796      0.22913      5.25820        -0.000000      0.000000      0.017184
      0.22913      5.24796      5.25820        -0.000000      0.000000      0.017184
      5.47709      5.47709      5.25820        -0.000000      0.000000      0.017184
      2.62398      0.11457      2.65048        -0.000000      0.000000      0.017184
      7.87195      0.34370      2.65048        -0.000000      0.000000      0.017184
      2.85311      5.36253      2.65048        -0.000000      0.000000      0.017184
      8.10108      5.59166      2.65048        -0.000000      0.000000      0.017184
      2.73855      2.73855      0.04276        -0.000000      0.000000      0.017184
      7.98651      2.96768      0.04276        -0.000000      0.000000      0.017184
      2.96768      7.98651      0.04276        -0.000000      0.000000      0.017184
      8.21564      8.21564      0.04276        -0.000000      0.000000      0.017184
      0.11457      2.62398      7.86592        -0.000000      0.000000      0.017184
      5.36253      2.85311      7.86592        -0.000000      0.000000      0.017184
      0.34370      7.87195      7.86592        -0.000000      0.000000      0.017184
      5.59166      8.10108      7.86592        -0.000000      0.000000      0.017184
      0.00000      0.00000      0.05499        -0.000000      0.000000      0.027376
      5.24796      0.22913      0.05499        -0.000000      0.000000      0.027376
      0.22913      5.24796      0.05499        -0.000000      0.000000      0.027376
      5.47709      5.47709      0.05499        -0.000000      0.000000      0.027376
      2.62398      0.11457      7.87816        -0.000000      0.000000      0.027376
      7.87195      0.34370      7.87816        -0.000000      0.000000      0.027376
      2.85311      5.36253      7.87816        -0.000000      0.000000      0.027376
      8.10108      5.59166      7.87816        -0.000000      0.000000      0.027376
      2.73855      2.73855      5.27044        -0.000000      0.000000      0.027376
      7.98651      2.96768      5.27044        -0.000000      0.000000      0.027376
      2.96768      7.98651      5.27044        -0.000000      0.000000      0.027376
      8.21564      8.21564      5.27044        -0.000000      0.000000      0.027376
      0.11457      2.62398      2.66271        -0.000000      0.000000      0.027376
      5.36253      2.85311      2.66271        -0.000000      0.000000      0.027376
      0.34370      7.87195      2.66271        -0.000000      0.000000      0.027376
      5.59166      8.10108      2.66271        -0.000000      0.000000      0.027376
 -----------------------------------------------------------------------------------
    total drift:                               -0.000001     -0.000001      0.032891


--------------------------------------------------------------------------------------------------------



  FREE ENERGIE OF THE ION-ELECTRON SYSTEM (eV)
  ---------------------------------------------------
  free  energy   TOTEN  =      -327.30797863 eV

  energy  without entropy=     -327.30797863  energy(sigma->0) =     -327.30797863
 


--------------------------------------------------------------------------------------------------------


    POTLOK:  cpu time    0.1407: real time    0.1414


--------------------------------------------------------------------------------------------------------


 writing wavefunctions
     LOOP+:  cpu time 1889.2960: real time 2194.6187
    4ORBIT:  cpu time    0.0000: real time    0.0000
 


 total charge     
 
# of ion       s       p       d       tot
------------------------------------------
    1        1.314   2.408   0.000   3.722
    2        1.314   2.408   0.000   3.722
    3        1.314   2.408   0.000   3.722
    4        1.314   2.408   0.000   3.722
    5        1.314   2.408   0.000   3.722
    6        1.314   2.408   0.000   3.722
    7        1.314   2.408   0.000   3.722
    8        1.314   2.408   0.000   3.722
    9        1.314   2.408   0.000   3.723
   10        1.314   2.408   0.000   3.723
   11        1.314   2.408   0.000   3.723
   12        1.314   2.408   0.000   3.723
   13        1.314   2.408   0.000   3.723
   14        1.314   2.408   0.000   3.723
   15        1.314   2.408   0.000   3.723
   16        1.314   2.408   0.000   3.723
   17        1.314   2.408   0.000   3.722
   18        1.314   2.408   0.000   3.722
   19        1.314   2.408   0.000   3.722
   20        1.314   2.408   0.000   3.722
   21        1.314   2.408   0.000   3.722
   22        1.314   2.408   0.000   3.722
   23        1.314   2.408   0.000   3.722
   24        1.314   2.408   0.000   3.722
   25        1.314   2.408   0.000   3.723
   26        1.314   2.408   0.000   3.723
   27        1.314   2.408   0.000   3.723
   28        1.314   2.408   0.000   3.723
   29        1.314   2.408   0.000   3.723
   30        1.314   2.408   0.000   3.723
   31        1.314   2.408   0.000   3.723
   32        1.314   2.408   0.000   3.723
   33        0.259   6.202   8.916  15.377
   34        0.259   6.202   8.916  15.377
   35        0.259   6.202   8.916  15.377
   36        0.259   6.202   8.916  15.377
   37        0.259   6.202   8.917  15.377
   38        0.259   6.202   8.917  15.377
   39        0.259   6.202   8.917  15.377
   40        0.259   6.202   8.917  15.377
   41        0.259   6.202   8.916  15.377
   42        0.259   6.202   8.916  15.377
   43        0.259   6.202   8.916  15.377
   44        0.259   6.202   8.916  15.377
   45        0.259   6.202   8.917  15.377
   46        0.259   6.202   8.917  15.377
   47        0.259   6.202   8.917  15.377
   48        0.259   6.202   8.917  15.377
   49        0.348   6.348   5.822  12.519
   50        0.348   6.348   5.822  12.519
   51        0.348   6.348   5.822  12.519
   52        0.348   6.348   5.822  12.519
   53        0.349   6.348   5.822  12.519
   54        0.349   6.348   5.822  12.519
   55        0.349   6.348   5.822  12.519
   56        0.349   6.348   5.822  12.519
   57        0.348   6.348   5.822  12.519
   58        0.348   6.348   5.822  12.519
   59        0.348   6.348   5.822  12.519
   60        0.348   6.348   5.822  12.519
   61        0.349   6.348   5.822  12.519
   62        0.349   6.348   5.822  12.519
   63        0.349   6.348   5.822  12.519
   64        0.349   6.348   5.822  12.519
--------------------------------------------------
tot         51.776 277.862 235.815 565.453
 


 magnetization (x)
 
# of ion       s       p       d       tot
------------------------------------------
    1       -0.001  -0.021   0.000  -0.022
    2       -0.001  -0.021   0.000  -0.022
    3       -0.001  -0.021   0.000  -0.022
    4       -0.001  -0.021   0.000  -0.022
    5       -0.001  -0.021   0.000  -0.022
    6       -0.001  -0.021   0.000  -0.022
    7       -0.001  -0.021   0.000  -0.022
    8       -0.001  -0.021   0.000  -0.022
    9        0.001   0.021   0.000   0.022
   10        0.001   0.021   0.000   0.022
   11        0.001   0.021   0.000   0.022
   12        0.001   0.021   0.000   0.022
   13        0.001   0.021   0.000   0.022
   14        0.001   0.021   0.000   0.022
   15        0.001   0.021   0.000   0.022
   16        0.001   0.021   0.000   0.022
   17       -0.001  -0.021   0.000  -0.022
   18       -0.001  -0.021   0.000  -0.022
   19       -0.001  -0.021   0.000  -0.022
   20       -0.001  -0.021   0.000  -0.022
   21       -0.001  -0.021   0.000  -0.022
   22       -0.001  -0.021   0.000  -0.022
   23       -0.001  -0.021   0.000  -0.022
   24       -0.001  -0.021   0.000  -0.022
   25        0.001   0.021   0.000   0.022
   26        0.001   0.021   0.000   0.022
   27        0.001   0.021   0.000   0.022
   28        0.001   0.021   0.000   0.022
   29        0.001   0.021   0.000   0.022
   30        0.001   0.021   0.000   0.022
   31        0.001   0.021   0.000   0.022
   32        0.001   0.021   0.000   0.022
   33        0.000  -0.000   0.002   0.002
   34        0.000  -0.000   0.002   0.002
   35        0.000  -0.000   0.002   0.002
   36        0.000  -0.000   0.002   0.002
   37       -0.000   0.000  -0.002  -0.002
   38       -0.000   0.000  -0.002  -0.002
   39       -0.000   0.000  -0.002  -0.002
   40       -0.000   0.000  -0.002  -0.002
   41        0.000  -0.000   0.002   0.002
   42        0.000  -0.000   0.002   0.002
   43        0.000  -0.000   0.002   0.002
   44        0.000  -0.000   0.002   0.002
   45       -0.000   0.000  -0.002  -0.002
   46       -0.000   0.000  -0.002  -0.002
   47       -0.000   0.000  -0.002  -0.002
   48       -0.000   0.000  -0.002  -0.002
   49        0.020   0.053   3.668   3.741
   50        0.020   0.053   3.668   3.741
   51        0.020   0.053   3.668   3.741
   52        0.020   0.053   3.668   3.741
   53       -0.020  -0.053  -3.668  -3.741
   54       -0.020  -0.053  -3.668  -3.741
   55       -0.020  -0.053  -3.668  -3.741
   56       -0.020  -0.053  -3.668  -3.741
   57        0.020   0.053   3.668   3.741
   58        0.020   0.053   3.668   3.741
   59        0.020   0.053   3.668   3.741
   60        0.020   0.053   3.668   3.741
   61       -0.020  -0.053  -3.668  -3.741
   62       -0.020  -0.053  -3.668  -3.741
   63       -0.020  -0.053  -3.668  -3.741
   64       -0.020  -0.053  -3.668  -3.741
--------------------------------------------------
tot         -0.002   0.002  -0.001  -0.001
 
 BZINTS: Fermi energy:  4.976033;688.000000 electrons
         Band energy:***********;  BLOECHL correction:  0.000000

 total amount of memory used by VASP MPI-rank0   300225. kBytes
=======================================================================

   base      :      30000. kBytes
   nonl-proj :     174956. kBytes
   fftplans  :       4588. kBytes
   grid      :      69719. kBytes
   one-center:       1990. kBytes
   wavefun   :      18972. kBytes
 
  
  
 General timing and accounting informations for this job:
 ========================================================
  
                  Total CPU time used (sec):     1940.125
                            User time (sec):     1928.007
                          System time (sec):       12.118
                         Elapsed time (sec):     2246.812
  
                   Maximum memory used (kb):      654080.
                   Average memory used (kb):           0.
  
                          Minor page faults:       497092
                          Major page faults:         5610
                 Voluntary context switches:         7899
