       N       E                     dE             d eps       ncg     rms          rms(c)
DAV:   1    -0.327406637783E+03   -0.32741E+03   -0.41879E-09  1024   0.166E-04    0.117E+00
DAV:   2    -0.327414093163E+03   -0.74554E-02   -0.18174E-01  2560   0.106E+00    0.144E+00
DAV:   3    -0.327405735197E+03    0.83580E-02   -0.11046E-01  2560   0.944E-01    0.553E-01
DAV:   4    -0.327405629636E+03    0.10556E-03   -0.37570E-03  2048   0.151E-01    0.224E-01
DAV:   5    -0.327405861639E+03   -0.23200E-03   -0.99030E-04  2560   0.527E-02    0.800E-02
DAV:   6    -0.327405929733E+03   -0.68094E-04   -0.27999E-04  2560   0.313E-02    0.367E-02
DAV:   7    -0.327405949700E+03   -0.19966E-04   -0.43268E-05  2048   0.132E-02    0.169E-02
DAV:   8    -0.327405952150E+03   -0.24503E-05   -0.97396E-06  2560   0.651E-03    0.868E-03
DAV:   9    -0.327405953783E+03   -0.16327E-05   -0.55794E-06  2560   0.465E-03    0.643E-03
DAV:  10    -0.327405954184E+03   -0.40195E-06   -0.16453E-06  2560   0.208E-03    0.317E-03
DAV:  11    -0.327405954330E+03   -0.14569E-06   -0.56241E-07  2560   0.114E-03    0.108E-03
DAV:  12    -0.327405954329E+03    0.15425E-08   -0.11512E-07  2560   0.435E-04    0.530E-04
DAV:  13    -0.327405954366E+03   -0.37122E-07   -0.32788E-08  2048   0.239E-04    0.292E-04
DAV:  14    -0.327405954386E+03   -0.19994E-07   -0.43424E-09  1024   0.999E-05    0.155E-04
DAV:  15    -0.327405954387E+03   -0.12951E-08   -0.12095E-09  1024   0.501E-05
   1 F= -.32740595E+03 E0= -.32740595E+03  d E =-.299182E-71  mag=     0.0000
