       N       E                     dE             d eps       ncg     rms          rms(c)
DAV:   1     0.605824869637E+04    0.60582E+04   -0.51568E+05 16384   0.197E+03
DAV:   2    -0.729000089340E+02   -0.61311E+04   -0.60210E+04 17664   0.446E+02
DAV:   3    -0.323407571079E+03   -0.25051E+03   -0.24953E+03 23808   0.977E+01
DAV:   4    -0.326821694447E+03   -0.34141E+01   -0.34140E+01 17920   0.115E+01
DAV:   5    -0.326924009950E+03   -0.10232E+00   -0.10231E+00 23296   0.196E+00    0.162E+00
DAV:   6    -0.326938226987E+03   -0.14217E-01   -0.70128E-02 21760   0.558E-01    0.942E-01
DAV:   7    -0.326941768318E+03   -0.35413E-02   -0.72458E-03 23296   0.232E-01    0.592E-01
DAV:   8    -0.326944935688E+03   -0.31674E-02   -0.11497E-02 22784   0.213E-01    0.257E-01
DAV:   9    -0.326945080722E+03   -0.14503E-03   -0.56427E-03 19200   0.207E-01    0.161E-01
DAV:  10    -0.326945342655E+03   -0.26193E-03   -0.92300E-04 22016   0.654E-02    0.682E-02
DAV:  11    -0.326945524351E+03   -0.18170E-03   -0.34642E-04 21248   0.269E-02    0.461E-02
DAV:  12    -0.326945740297E+03   -0.21595E-03   -0.14959E-03 19712   0.351E-02    0.161E-02
DAV:  13    -0.326945752726E+03   -0.12429E-04   -0.10516E-04 20992   0.130E-02    0.751E-03
DAV:  14    -0.326945753484E+03   -0.75829E-06   -0.21900E-06 20480   0.392E-03    0.500E-03
DAV:  15    -0.326945753998E+03   -0.51360E-06   -0.13848E-06 22528   0.302E-03    0.377E-03
DAV:  16    -0.326945754418E+03   -0.42027E-06   -0.14374E-06 20992   0.233E-03    0.188E-03
DAV:  17    -0.326945754546E+03   -0.12726E-06   -0.55333E-07 22272   0.128E-03    0.109E-03
DAV:  18    -0.326945754568E+03   -0.22425E-07   -0.13260E-07 25088   0.871E-04    0.779E-04
DAV:  19    -0.326945754593E+03   -0.25117E-07   -0.19836E-07 23040   0.893E-04    0.460E-04
DAV:  20    -0.326945754605E+03   -0.11598E-07   -0.22179E-08 14592   0.411E-04    0.227E-04
DAV:  21    -0.326945754609E+03   -0.47585E-08   -0.35672E-09 14080   0.171E-04
   1 F= -.32694575E+03 E0= -.32694575E+03  d E =0.000000E+00  mag=     0.0000
