 vasp.5.4.4.18Apr17-6-g9f103f2a35 (build Oct 30 2023 17:49:44) complex          
  
 executed on             LinuxIFC date 2024.12.05  05:38:24
 running on  256 total cores
 distrk:  each k-point on  256 cores,    1 groups
 distr:  one band on NCORES_PER_BAND=   1 cores,  256 groups


--------------------------------------------------------------------------------------------------------


 INCAR:
 POTCAR:    PAW_PBE S 06Sep2000                   
 POTCAR:     PAW_PBE Cu_pv 06Sep2000              
 POTCAR:     PAW_PBE Fe_pv 02Aug2007              

 ----------------------------------------------------------------------------- 
|                                                                             |
|           W    W    AA    RRRRR   N    N  II  N    N   GGGG   !!!           |
|           W    W   A  A   R    R  NN   N  II  NN   N  G    G  !!!           |
|           W    W  A    A  R    R  N N  N  II  N N  N  G       !!!           |
|           W WW W  AAAAAA  RRRRR   N  N N  II  N  N N  G  GGG   !            |
|           WW  WW  A    A  R   R   N   NN  II  N   NN  G    G                |
|           W    W  A    A  R    R  N    N  II  N    N   GGGG   !!!           |
|                                                                             |
|      For optimal performance we recommend to set                            |
|        NCORE= 4 - approx SQRT( number of cores)                             |
|      NCORE specifies how many cores store one orbital (NPAR=cpu/NCORE).     |
|      This setting can  greatly improve the performance of VASP for DFT.     |
|      The default,   NCORE=1            might be grossly inefficient         |
|      on modern multi-core architectures or massively parallel machines.     |
|      Do your own testing !!!!                                               |
|      Unfortunately you need to use the default for GW and RPA calculations. |
|      (for HF NCORE is supported but not extensively tested yet)             |
|                                                                             |
 ----------------------------------------------------------------------------- 

 POTCAR:    PAW_PBE S 06Sep2000                   
   SHA256 =  0fc7481fb0695f01bdc6462160264c5c84044ae9ec85a907d398b887a2bc3132 S/
   COPYR  = (c) Copyright 06Sep2000 Georg Kresse                                
   COPYR  = This file is part of the software VASP. Any use, copying, and all ot
   COPYR  = If you do not have a valid VASP license, you may not use, copy or di
   VRHFIN =S : s2p4                                                             
   LEXCH  = PE                                                                  
   EATOM  =   276.8230 eV,   20.3459 Ry                                         
                                                                                
   TITEL  = PAW_PBE S 06Sep2000                                                 
   LULTRA =        F    use ultrasoft PP ?                                      
   IUNSCR =        1    unscreen: 0-lin 1-nonlin 2-no                           
   RPACOR =    1.500    partial core radius                                     
   POMASS =   32.066; ZVAL   =    6.000    mass and valenz                      
   RCORE  =    1.900    outmost cutoff radius                                   
   RWIGS  =    2.200; RWIGS  =    1.164    wigner-seitz radius (au A)           
   ENMAX  =  258.689; ENMIN  =  194.016 eV                                      
   ICORE  =        2    local potential                                         
   LCOR   =        T    correct aug charges                                     
   LPAW   =        T    paw PP                                                  
   EAUG   =  335.092                                                            
   DEXC   =    0.000                                                            
   RMAX   =    1.942    core radius for proj-oper                               
   RAUG   =    1.300    factor for augmentation sphere                          
   RDEP   =    1.954    radius for radial grids                                 
   RDEPT  =    1.744    core radius for aug-charge                              
                                                                                
   Atomic configuration                                                         
    6 entries                                                                   
     n  l   j            E        occ.                                          
     1  0  0.50     -2405.8406   2.0000                                         
     2  0  0.50      -211.7007   2.0000                                         
     2  1  1.50      -156.4958   6.0000                                         
     3  0  0.50       -17.2562   2.0000                                         
     3  1  0.50        -7.0085   4.0000                                         
     3  2  1.50        -6.8029   0.0000                                         
   Description                                                                  
     l       E           TYP  RCUT    TYP  RCUT                                 
     0    -17.2561641     23  1.900                                             
     0    -15.8743224     23  1.900                                             
     1     -7.0085400     23  1.900                                             
     1     -2.7779785     23  1.900                                             
     2     -6.8029130     23  1.900                                             
  local pseudopotential read in
  partial core-charges read in
  partial kinetic energy density read in
  atomic valenz-charges read in
  non local Contribution for L=           0  read in
    real space projection operators read in
  non local Contribution for L=           0  read in
    real space projection operators read in
  non local Contribution for L=           1  read in
    real space projection operators read in
  non local Contribution for L=           1  read in
    real space projection operators read in
    PAW grid and wavefunctions read in
 
   number of l-projection  operators is LMAX  =           4
   number of lm-projection operators is LMMAX =           8
 
 POTCAR:     PAW_PBE Cu_pv 06Sep2000              
   SHA256 =  cb7b504e2ea725fe1f25c85a9ac77d4012ce94cd394135b722c4e25ec297f1cb Cu
   COPYR  = (c) Copyright 06Sep2000 Georg Kresse                                
   COPYR  = This file is part of the software VASP. Any use, copying, and all ot
   COPYR  = If you do not have a valid VASP license, you may not use, copy or di
   VRHFIN =Cu: d10 p1                                                           
   LEXCH  = PE                                                                  
   EATOM  =  4120.1201 eV,  302.8203 Ry                                         
                                                                                
   TITEL  = PAW_PBE Cu_pv 06Sep2000                                             
   LULTRA =        F    use ultrasoft PP ?                                      
   IUNSCR =        1    unscreen: 0-lin 1-nonlin 2-no                           
   RPACOR =    1.500    partial core radius                                     
   POMASS =   63.546; ZVAL   =   17.000    mass and valenz                      
   RCORE  =    2.000    outmost cutoff radius                                   
   RWIGS  =    2.000; RWIGS  =    1.058    wigner-seitz radius (au A)           
   ENMAX  =  368.648; ENMIN  =  276.486 eV                                      
   RCLOC  =    1.304    cutoff for local pot                                    
   LCOR   =        T    correct aug charges                                     
   LPAW   =        T    paw PP                                                  
   EAUG   =  758.233                                                            
   DEXC   =    0.000                                                            
   RMAX   =    2.046    core radius for proj-oper                               
   RAUG   =    1.300    factor for augmentation sphere                          
   RDEP   =    2.025    radius for radial grids                                 
   RDEPT  =    1.558    core radius for aug-charge                              
                                                                                
   Atomic configuration                                                         
    8 entries                                                                   
     n  l   j            E        occ.                                          
     1  0  0.50     -8850.2467   2.0000                                         
     2  0  0.50     -1062.3498   2.0000                                         
     2  1  1.50      -916.8226   6.0000                                         
     3  0  0.50      -114.6929   2.0000                                         
     3  1  1.50       -72.1325   6.0000                                         
     3  2  2.50        -5.0394  10.0000                                         
     4  0  0.50        -4.6097   1.0000                                         
     4  3  2.50        -1.3606   0.0000                                         
   Description                                                                  
     l       E           TYP  RCUT    TYP  RCUT                                 
     1    -72.1324777     23  1.700                                             
     1     -1.3605826     23  1.700                                             
     2     -5.0393776     23  2.000                                             
     2     -6.3999602     23  2.000                                             
     0     -4.6097062     23  1.800                                             
     0     14.1620818     23  1.800                                             
  local pseudopotential read in
  partial core-charges read in
  partial kinetic energy density read in
  atomic valenz-charges read in
  non local Contribution for L=           1  read in
    real space projection operators read in
  non local Contribution for L=           1  read in
    real space projection operators read in
  non local Contribution for L=           2  read in
    real space projection operators read in
  non local Contribution for L=           2  read in
    real space projection operators read in
  non local Contribution for L=           0  read in
    real space projection operators read in
  non local Contribution for L=           0  read in
    real space projection operators read in
    PAW grid and wavefunctions read in
 
   number of l-projection  operators is LMAX  =           6
   number of lm-projection operators is LMMAX =          18
 
 POTCAR:     PAW_PBE Fe_pv 02Aug2007              
   SHA256 =  5d22e414b1f82158bf2c7ecb8b97b28fd0923e48cadc1c3bf74d524558f5dd32 Fe
   COPYR  = (c) Copyright 02Aug2007 Georg Kresse                                
   COPYR  = This file is part of the software VASP. Any use, copying, and all ot
   COPYR  = If you do not have a valid VASP license, you may not use, copy or di
   VRHFIN =Fe:  3pd7s1                                                          
   LEXCH  = PE                                                                  
   EATOM  =  2457.4239 eV,  180.6156 Ry                                         
                                                                                
   TITEL  = PAW_PBE Fe_pv 02Aug2007                                             
   LULTRA =        F    use ultrasoft PP ?                                      
   IUNSCR =        1    unscreen: 0-lin 1-nonlin 2-no                           
   RPACOR =    1.750    partial core radius                                     
   POMASS =   55.847; ZVAL   =   14.000    mass and valenz                      
   RCORE  =    2.200    outmost cutoff radius                                   
   RWIGS  =    2.200; RWIGS  =    1.164    wigner-seitz radius (au A)           
   ENMAX  =  293.238; ENMIN  =  219.928 eV                                      
   ICORE  =        3    local potential                                         
   LCOR   =        T    correct aug charges                                     
   LPAW   =        T    paw PP                                                  
   EAUG   =  578.342                                                            
   DEXC   =    0.000                                                            
   RMAX   =    2.249    core radius for proj-oper                               
   RAUG   =    1.300    factor for augmentation sphere                          
   RDEP   =    2.296    radius for radial grids                                 
   RDEPT  =    1.766    core radius for aug-charge                              
                                                                                
   Atomic configuration                                                         
    8 entries                                                                   
     n  l   j            E        occ.                                          
     1  0  0.50     -6993.8440   2.0000                                         
     2  0  0.50      -814.6047   2.0000                                         
     2  1  1.50      -693.3689   6.0000                                         
     3  0  0.50       -89.4732   2.0000                                         
     3  1  1.50       -55.6373   6.0000                                         
     3  2  2.50        -3.8151   7.0000                                         
     4  0  0.50        -4.2551   1.0000                                         
     4  3  2.50        -1.3606   0.0000                                         
   Description                                                                  
     l       E           TYP  RCUT    TYP  RCUT                                 
     1    -55.6372668     23  2.000                                             
     1     -5.4423304     23  2.000                                             
     2     -3.8151096     23  2.200                                             
     2     -5.1756922     23  2.200                                             
     0     -4.2550951     23  2.200                                             
     0     27.2116520     23  2.200                                             
     3     -1.3605826     23  2.200                                             
  local pseudopotential read in
  partial core-charges read in
  partial kinetic energy density read in
  atomic valenz-charges read in
  non local Contribution for L=           1  read in
    real space projection operators read in
  non local Contribution for L=           1  read in
    real space projection operators read in
  non local Contribution for L=           2  read in
    real space projection operators read in
  non local Contribution for L=           2  read in
    real space projection operators read in
  non local Contribution for L=           0  read in
    real space projection operators read in
  non local Contribution for L=           0  read in
    real space projection operators read in
    PAW grid and wavefunctions read in
 
   number of l-projection  operators is LMAX  =           6
   number of lm-projection operators is LMMAX =          18
 

 ----------------------------------------------------------------------------- 
|                                                                             |
|  ADVICE TO THIS USER RUNNING 'VASP/VAMP'   (HEAR YOUR MASTER'S VOICE ...):  |
|                                                                             |
|      You enforced a specific xc-type in the INCAR file,                     |
|      a different type was found on the POTCAR file                          |
|          I HOPE YOU KNOW, WHAT YOU ARE  DOING                               |
|                                                                             |
 ----------------------------------------------------------------------------- 

  PAW_PBE S 06Sep2000                   :
 energy of atom  1       EATOM= -276.8230
 kinetic energy error for atom=    0.0007 (will be added to EATOM!!)
   PAW_PBE Cu_pv 06Sep2000              :
 energy of atom  2       EATOM=-4120.1201
 kinetic energy error for atom=    0.0094 (will be added to EATOM!!)
   PAW_PBE Fe_pv 02Aug2007              :
 energy of atom  3       EATOM=-2457.4239
 kinetic energy error for atom=    0.0025 (will be added to EATOM!!)
 
 
 POSCAR: Fe4 Cu4 S8                              
  positions in direct lattice
  velocities in cartesian coordinates
 exchange correlation table for  LEXCH =       14
   RHO(1)=    0.500       N(1)  =     2000
   RHO(2)=  100.500       N(2)  =     4000
 


--------------------------------------------------------------------------------------------------------


 ion  position               nearest neighbor table
   1  0.255  0.225  0.127-  11 2.25  16 2.25  10 2.30  13 2.33
   2  0.745  0.725  0.123-  10 2.25  13 2.25  11 2.30  16 2.33
   3  0.250  0.736  0.875-  13 2.27  14 2.27  11 2.28  12 2.28
   4  0.750  0.237  0.875-  12 2.27  11 2.27  13 2.32  14 2.32
   5  0.245  0.225  0.623-  12 2.25  15 2.25   9 2.30  14 2.33
   6  0.755  0.725  0.627-   9 2.25  14 2.25  12 2.30  15 2.33
   7  0.750  0.236  0.375-  16 2.27  15 2.27   9 2.28  10 2.28
   8  0.250  0.737  0.375-  10 2.27   9 2.27  16 2.32  15 2.32
   9  0.988  0.019  0.500-   6 2.25   8 2.27   7 2.28   5 2.30
  10  0.512  0.019  0.250-   2 2.25   8 2.27   7 2.28   1 2.30
  11  0.488  0.519  0.000-   1 2.25   4 2.27   3 2.28   2 2.30
  12  0.012  0.519  0.750-   5 2.25   4 2.27   3 2.28   6 2.30
  13  0.993  0.020  0.003-   2 2.25   3 2.27   4 2.32   1 2.33
  14  0.507  0.020  0.747-   6 2.25   3 2.27   4 2.32   5 2.33
  15  0.493  0.520  0.503-   5 2.25   7 2.27   8 2.32   6 2.33
  16  0.007  0.520  0.247-   1 2.25   7 2.27   8 2.32   2 2.33
 
  LATTYP: Found a simple monoclinic cell.
 ALAT       =    12.5250225602
 B/A-ratio  =     0.4218155557
 C/A-ratio  =     1.7902090645
 COS(beta)  =    -0.9815283940
  
  Lattice vectors:
  
 A1 = (  -7.2447891416,   0.0000000000, -10.2171043074)
 A2 = (   0.0000000000,  -5.2832493518,   0.0000000000)
 A3 = (   9.2307930354,   0.0000000000,  20.4342086148)


Analysis of symmetry for initial positions (statically):
=====================================================================
 Subroutine PRICEL returns following result:
 
  LATTYP: Found a base centered monoclinic cell.
 ALAT       =    10.7284816363
 B/A-ratio  =     0.4924507988
 C/A-ratio  =     0.9701591600
 COS(beta)  =    -0.7864423229
  
  Lattice vectors:
  
 A1 = (  -1.6363906770,  -2.6416246759,   5.1085521537)
 A2 = (  -1.6363906770,   2.6416246759,   5.1085521537)
 A3 = (  -1.9860038938,   0.0000000000, -10.2171043074)
 
   2 primitive cells build up your supercell.
 

 Routine SETGRP: Setting up the symmetry group for a 
 simple monoclinic supercell.


 Subroutine GETGRP returns: Found  2 space group operations
 (whereof  1 operations were pure point group operations)
 out of a pool of  4 trial point group operations.


The static configuration has the point symmetry C_1 .
 The point group associated with its full space group is C_2 .


Analysis of symmetry for dynamics (positions and initial velocities):
=====================================================================
 Subroutine PRICEL returns following result:
 
  LATTYP: Found a base centered monoclinic cell.
 ALAT       =    10.7284816363
 B/A-ratio  =     0.4924507988
 C/A-ratio  =     0.9701591600
 COS(beta)  =    -0.7864423229
  
  Lattice vectors:
  
 A1 = (  -1.6363906770,  -2.6416246759,   5.1085521537)
 A2 = (  -1.6363906770,   2.6416246759,   5.1085521537)
 A3 = (  -1.9860038938,   0.0000000000, -10.2171043074)
 
   2 primitive cells build up your supercell.
 

 Routine SETGRP: Setting up the symmetry group for a 
 simple monoclinic supercell.


 Subroutine GETGRP returns: Found  2 space group operations
 (whereof  1 operations were pure point group operations)
 out of a pool of  4 trial point group operations.


The dynamic configuration has the point symmetry C_1 .
 The point group associated with its full space group is C_2 .


Analysis of structural, dynamic, and magnetic symmetry:
=====================================================================
 Subroutine PRICEL returns following result:
 
  LATTYP: Found a base centered monoclinic cell.
 ALAT       =    10.7284816363
 B/A-ratio  =     0.4924507988
 C/A-ratio  =     0.9701591600
 COS(beta)  =    -0.7864423229
  
  Lattice vectors:
  
 A1 = (  -1.6363906770,  -2.6416246759,   5.1085521537)
 A2 = (  -1.6363906770,   2.6416246759,   5.1085521537)
 A3 = (  -1.9860038938,   0.0000000000, -10.2171043074)
 
   2 primitive cells build up your supercell.
 

 Routine SETGRP: Setting up the symmetry group for a 
 simple monoclinic supercell.


 Subroutine GETGRP returns: Found  2 space group operations
 (whereof  1 operations were pure point group operations)
 out of a pool of  4 trial point group operations.


The (compounded) configuration has the point symmetry C_1 .
 The point group associated with its full space group is C_2 .


 Subroutine INISYM returns: Found  2 space group operations
 (whereof  1 operations are pure point group operations),
 and found     2 'primitive' translations

 
 
 KPOINTS: Automatic mesh                          

Automatic generation of k-mesh.
Space group operators:
 irot       det(A)        alpha          n_x          n_y          n_z        tau_x        tau_y        tau_z
    1     1.000000     0.000001     1.000000     0.000000     0.000000     0.000000     0.000000     0.000000
    2     1.000000   180.000000     0.000000     1.000000     0.000000    -0.500000     0.000000    -0.250000
 
 Subroutine IBZKPT returns following result:
 ===========================================
 
 Found     60 irreducible k-points:
 
 Following reciprocal coordinates:
            Coordinates               Weight
  0.000000  0.000000  0.000000      1.000000
  0.166667  0.000000 -0.000000      2.000000
  0.333333  0.000000 -0.000000      2.000000
  0.500000  0.000000 -0.000000      1.000000
  0.000000  0.166667  0.000000      1.000000
  0.166667  0.166667 -0.000000      2.000000
  0.333333  0.166667 -0.000000      2.000000
  0.500000  0.166667 -0.000000      1.000000
  0.000000  0.333333  0.000000      1.000000
  0.166667  0.333333 -0.000000      2.000000
  0.333333  0.333333 -0.000000      2.000000
  0.500000  0.333333 -0.000000      1.000000
  0.000000  0.500000  0.000000      1.000000
  0.166667  0.500000 -0.000000      2.000000
  0.333333  0.500000 -0.000000      2.000000
  0.500000  0.500000 -0.000000      1.000000
  0.000000 -0.333333  0.000000      1.000000
  0.166667 -0.333333 -0.000000      2.000000
  0.333333 -0.333333 -0.000000      2.000000
  0.500000 -0.333333 -0.000000      1.000000
  0.000000 -0.166667  0.000000      1.000000
  0.166667 -0.166667 -0.000000      2.000000
  0.333333 -0.166667 -0.000000      2.000000
  0.500000 -0.166667 -0.000000      1.000000
  0.000000  0.000000  0.333333      2.000000
  0.166667  0.000000  0.333333      2.000000
  0.333333  0.000000  0.333333      2.000000
  0.500000  0.000000  0.333333      2.000000
 -0.333333  0.000000  0.333333      2.000000
 -0.166667  0.000000  0.333333      2.000000
  0.000000  0.166667  0.333333      2.000000
  0.166667  0.166667  0.333333      2.000000
  0.333333  0.166667  0.333333      2.000000
  0.500000  0.166667  0.333333      2.000000
 -0.333333  0.166667  0.333333      2.000000
 -0.166667  0.166667  0.333333      2.000000
  0.000000  0.333333  0.333333      2.000000
  0.166667  0.333333  0.333333      2.000000
  0.333333  0.333333  0.333333      2.000000
  0.500000  0.333333  0.333333      2.000000
 -0.333333  0.333333  0.333333      2.000000
 -0.166667  0.333333  0.333333      2.000000
  0.000000  0.500000  0.333333      2.000000
  0.166667  0.500000  0.333333      2.000000
  0.333333  0.500000  0.333333      2.000000
  0.500000  0.500000  0.333333      2.000000
 -0.333333  0.500000  0.333333      2.000000
 -0.166667  0.500000  0.333333      2.000000
  0.000000 -0.333333  0.333333      2.000000
  0.166667 -0.333333  0.333333      2.000000
  0.333333 -0.333333  0.333333      2.000000
  0.500000 -0.333333  0.333333      2.000000
 -0.333333 -0.333333  0.333333      2.000000
 -0.166667 -0.333333  0.333333      2.000000
  0.000000 -0.166667  0.333333      2.000000
  0.166667 -0.166667  0.333333      2.000000
  0.333333 -0.166667  0.333333      2.000000
  0.500000 -0.166667  0.333333      2.000000
 -0.333333 -0.166667  0.333333      2.000000
 -0.166667 -0.166667  0.333333      2.000000
 
 Following cartesian coordinates:
            Coordinates               Weight
  0.000000  0.000000  0.000000      1.000000
  0.031693  0.000000 -0.006160      2.000000
  0.063386  0.000000 -0.012321      2.000000
  0.095079  0.000000 -0.018481      1.000000
  0.000000  0.031546  0.000000      1.000000
  0.031693  0.031546 -0.006160      2.000000
  0.063386  0.031546 -0.012321      2.000000
  0.095079  0.031546 -0.018481      1.000000
  0.000000  0.063092  0.000000      1.000000
  0.031693  0.063092 -0.006160      2.000000
  0.063386  0.063092 -0.012321      2.000000
  0.095079  0.063092 -0.018481      1.000000
  0.000000  0.094639  0.000000      1.000000
  0.031693  0.094639 -0.006160      2.000000
  0.063386  0.094639 -0.012321      2.000000
  0.095079  0.094639 -0.018481      1.000000
  0.000000 -0.063092  0.000000      1.000000
  0.031693 -0.063092 -0.006160      2.000000
  0.063386 -0.063092 -0.012321      2.000000
  0.095079 -0.063092 -0.018481      1.000000
  0.000000 -0.031546  0.000000      1.000000
  0.031693 -0.031546 -0.006160      2.000000
  0.063386 -0.031546 -0.012321      2.000000
  0.095079 -0.031546 -0.018481      1.000000
  0.000000  0.000000  0.032625      2.000000
  0.031693  0.000000  0.026465      2.000000
  0.063386  0.000000  0.020304      2.000000
  0.095079  0.000000  0.014144      2.000000
 -0.063386  0.000000  0.044946      2.000000
 -0.031693  0.000000  0.038786      2.000000
  0.000000  0.031546  0.032625      2.000000
  0.031693  0.031546  0.026465      2.000000
  0.063386  0.031546  0.020304      2.000000
  0.095079  0.031546  0.014144      2.000000
 -0.063386  0.031546  0.044946      2.000000
 -0.031693  0.031546  0.038786      2.000000
  0.000000  0.063092  0.032625      2.000000
  0.031693  0.063092  0.026465      2.000000
  0.063386  0.063092  0.020304      2.000000
  0.095079  0.063092  0.014144      2.000000
 -0.063386  0.063092  0.044946      2.000000
 -0.031693  0.063092  0.038786      2.000000
  0.000000  0.094639  0.032625      2.000000
  0.031693  0.094639  0.026465      2.000000
  0.063386  0.094639  0.020304      2.000000
  0.095079  0.094639  0.014144      2.000000
 -0.063386  0.094639  0.044946      2.000000
 -0.031693  0.094639  0.038786      2.000000
  0.000000 -0.063092  0.032625      2.000000
  0.031693 -0.063092  0.026465      2.000000
  0.063386 -0.063092  0.020304      2.000000
  0.095079 -0.063092  0.014144      2.000000
 -0.063386 -0.063092  0.044946      2.000000
 -0.031693 -0.063092  0.038786      2.000000
  0.000000 -0.031546  0.032625      2.000000
  0.031693 -0.031546  0.026465      2.000000
  0.063386 -0.031546  0.020304      2.000000
  0.095079 -0.031546  0.014144      2.000000
 -0.063386 -0.031546  0.044946      2.000000
 -0.031693 -0.031546  0.038786      2.000000
 
 TETIRR: Found    648 inequivalent tetrahedra from      648
 
 Subroutine IBZKPT_HF returns following result:
 ==============================================
 
 Found    108 k-points in 1st BZ
 the following    108 k-points will be used (e.g. in the exchange kernel)
 Following reciprocal coordinates:   # in IRBZ
  0.000000  0.000000  0.000000    0.00925926   1 t-inv F
  0.166667  0.000000 -0.000000    0.00925926   2 t-inv F
  0.333333  0.000000 -0.000000    0.00925926   3 t-inv F
  0.500000  0.000000 -0.000000    0.00925926   4 t-inv F
  0.000000  0.166667  0.000000    0.00925926   5 t-inv F
  0.166667  0.166667 -0.000000    0.00925926   6 t-inv F
  0.333333  0.166667 -0.000000    0.00925926   7 t-inv F
  0.500000  0.166667 -0.000000    0.00925926   8 t-inv F
  0.000000  0.333333  0.000000    0.00925926   9 t-inv F
  0.166667  0.333333 -0.000000    0.00925926  10 t-inv F
  0.333333  0.333333 -0.000000    0.00925926  11 t-inv F
  0.500000  0.333333 -0.000000    0.00925926  12 t-inv F
  0.000000  0.500000  0.000000    0.00925926  13 t-inv F
  0.166667  0.500000 -0.000000    0.00925926  14 t-inv F
  0.333333  0.500000 -0.000000    0.00925926  15 t-inv F
  0.500000  0.500000 -0.000000    0.00925926  16 t-inv F
  0.000000 -0.333333  0.000000    0.00925926  17 t-inv F
  0.166667 -0.333333 -0.000000    0.00925926  18 t-inv F
  0.333333 -0.333333 -0.000000    0.00925926  19 t-inv F
  0.500000 -0.333333 -0.000000    0.00925926  20 t-inv F
  0.000000 -0.166667  0.000000    0.00925926  21 t-inv F
  0.166667 -0.166667 -0.000000    0.00925926  22 t-inv F
  0.333333 -0.166667 -0.000000    0.00925926  23 t-inv F
  0.500000 -0.166667 -0.000000    0.00925926  24 t-inv F
  0.000000  0.000000  0.333333    0.00925926  25 t-inv F
  0.166667  0.000000  0.333333    0.00925926  26 t-inv F
  0.333333  0.000000  0.333333    0.00925926  27 t-inv F
  0.500000  0.000000  0.333333    0.00925926  28 t-inv F
 -0.333333  0.000000  0.333333    0.00925926  29 t-inv F
 -0.166667  0.000000  0.333333    0.00925926  30 t-inv F
  0.000000  0.166667  0.333333    0.00925926  31 t-inv F
  0.166667  0.166667  0.333333    0.00925926  32 t-inv F
  0.333333  0.166667  0.333333    0.00925926  33 t-inv F
  0.500000  0.166667  0.333333    0.00925926  34 t-inv F
 -0.333333  0.166667  0.333333    0.00925926  35 t-inv F
 -0.166667  0.166667  0.333333    0.00925926  36 t-inv F
  0.000000  0.333333  0.333333    0.00925926  37 t-inv F
  0.166667  0.333333  0.333333    0.00925926  38 t-inv F
  0.333333  0.333333  0.333333    0.00925926  39 t-inv F
  0.500000  0.333333  0.333333    0.00925926  40 t-inv F
 -0.333333  0.333333  0.333333    0.00925926  41 t-inv F
 -0.166667  0.333333  0.333333    0.00925926  42 t-inv F
  0.000000  0.500000  0.333333    0.00925926  43 t-inv F
  0.166667  0.500000  0.333333    0.00925926  44 t-inv F
  0.333333  0.500000  0.333333    0.00925926  45 t-inv F
  0.500000  0.500000  0.333333    0.00925926  46 t-inv F
 -0.333333  0.500000  0.333333    0.00925926  47 t-inv F
 -0.166667  0.500000  0.333333    0.00925926  48 t-inv F
  0.000000 -0.333333  0.333333    0.00925926  49 t-inv F
  0.166667 -0.333333  0.333333    0.00925926  50 t-inv F
  0.333333 -0.333333  0.333333    0.00925926  51 t-inv F
  0.500000 -0.333333  0.333333    0.00925926  52 t-inv F
 -0.333333 -0.333333  0.333333    0.00925926  53 t-inv F
 -0.166667 -0.333333  0.333333    0.00925926  54 t-inv F
  0.000000 -0.166667  0.333333    0.00925926  55 t-inv F
  0.166667 -0.166667  0.333333    0.00925926  56 t-inv F
  0.333333 -0.166667  0.333333    0.00925926  57 t-inv F
  0.500000 -0.166667  0.333333    0.00925926  58 t-inv F
 -0.333333 -0.166667  0.333333    0.00925926  59 t-inv F
 -0.166667 -0.166667  0.333333    0.00925926  60 t-inv F
 -0.166667  0.000000  0.000000    0.00925926   2 t-inv F
 -0.333333  0.000000  0.000000    0.00925926   3 t-inv F
 -0.166667  0.166667  0.000000    0.00925926   6 t-inv F
 -0.333333  0.166667  0.000000    0.00925926   7 t-inv F
 -0.166667  0.333333  0.000000    0.00925926  10 t-inv F
 -0.333333  0.333333  0.000000    0.00925926  11 t-inv F
 -0.166667  0.500000  0.000000    0.00925926  14 t-inv F
 -0.333333  0.500000  0.000000    0.00925926  15 t-inv F
 -0.166667 -0.333333  0.000000    0.00925926  18 t-inv F
 -0.333333 -0.333333  0.000000    0.00925926  19 t-inv F
 -0.166667 -0.166667  0.000000    0.00925926  22 t-inv F
 -0.333333 -0.166667  0.000000    0.00925926  23 t-inv F
  0.000000  0.000000 -0.333333    0.00925926  25 t-inv F
 -0.166667  0.000000 -0.333333    0.00925926  26 t-inv F
 -0.333333  0.000000 -0.333333    0.00925926  27 t-inv F
 -0.500000  0.000000 -0.333333    0.00925926  28 t-inv F
  0.333333  0.000000 -0.333333    0.00925926  29 t-inv F
  0.166667  0.000000 -0.333333    0.00925926  30 t-inv F
  0.000000  0.166667 -0.333333    0.00925926  31 t-inv F
 -0.166667  0.166667 -0.333333    0.00925926  32 t-inv F
 -0.333333  0.166667 -0.333333    0.00925926  33 t-inv F
 -0.500000  0.166667 -0.333333    0.00925926  34 t-inv F
  0.333333  0.166667 -0.333333    0.00925926  35 t-inv F
  0.166667  0.166667 -0.333333    0.00925926  36 t-inv F
  0.000000  0.333333 -0.333333    0.00925926  37 t-inv F
 -0.166667  0.333333 -0.333333    0.00925926  38 t-inv F
 -0.333333  0.333333 -0.333333    0.00925926  39 t-inv F
 -0.500000  0.333333 -0.333333    0.00925926  40 t-inv F
  0.333333  0.333333 -0.333333    0.00925926  41 t-inv F
  0.166667  0.333333 -0.333333    0.00925926  42 t-inv F
  0.000000  0.500000 -0.333333    0.00925926  43 t-inv F
 -0.166667  0.500000 -0.333333    0.00925926  44 t-inv F
 -0.333333  0.500000 -0.333333    0.00925926  45 t-inv F
 -0.500000  0.500000 -0.333333    0.00925926  46 t-inv F
  0.333333  0.500000 -0.333333    0.00925926  47 t-inv F
  0.166667  0.500000 -0.333333    0.00925926  48 t-inv F
  0.000000 -0.333333 -0.333333    0.00925926  49 t-inv F
 -0.166667 -0.333333 -0.333333    0.00925926  50 t-inv F
 -0.333333 -0.333333 -0.333333    0.00925926  51 t-inv F
 -0.500000 -0.333333 -0.333333    0.00925926  52 t-inv F
  0.333333 -0.333333 -0.333333    0.00925926  53 t-inv F
  0.166667 -0.333333 -0.333333    0.00925926  54 t-inv F
  0.000000 -0.166667 -0.333333    0.00925926  55 t-inv F
 -0.166667 -0.166667 -0.333333    0.00925926  56 t-inv F
 -0.333333 -0.166667 -0.333333    0.00925926  57 t-inv F
 -0.500000 -0.166667 -0.333333    0.00925926  58 t-inv F
  0.333333 -0.166667 -0.333333    0.00925926  59 t-inv F
  0.166667 -0.166667 -0.333333    0.00925926  60 t-inv F


--------------------------------------------------------------------------------------------------------




 Dimension of arrays:
   k-points           NKPTS =     60   k-points in BZ     NKDIM =     60   number of bands    NBANDS=    256
   number of dos      NEDOS =    301   number of ions     NIONS =     16
   non local maximal  LDIM  =      6   non local SUM 2l+1 LMDIM =     18
   total plane-waves  NPLWV = 207360
   max r-space proj   IRMAX =      1   max aug-charges    IRDMAX=  23211
   dimension x,y,z NGX =    48 NGY =   48 NGZ =   90
   dimension x,y,z NGXF=    96 NGYF=   96 NGZF=  180
   support grid    NGXF=    96 NGYF=   96 NGZF=  180
   ions per type =               8   4   4
   NGX,Y,Z   is equivalent  to a cutoff of  15.17, 15.10, 14.38 a.u.
   NGXF,Y,Z  is equivalent  to a cutoff of  30.35, 30.21, 28.75 a.u.

 SYSTEM =  CuFeS2                                  
 POSCAR =  Fe4 Cu4 S8                              

 Startparameter for this run:
   NWRITE =      2    write-flag & timer
   PREC   = accura    normal or accurate (medium, high low for compatibility)
   ISTART =      1    job   : 0-new  1-cont  2-samecut
   ICHARG =      1    charge: 1-file 2-atom 10-const
   ISPIN  =      1    spin polarized calculation?
   LNONCOLLINEAR =      T non collinear calculations
   LSORBIT =      T    spin-orbit coupling
   INIWAV =      1    electr: 0-lowe 1-rand  2-diag
   LASPH  =      T    aspherical Exc in radial PAW
   METAGGA=      F    non-selfconsistent MetaGGA calc.

 Electronic Relaxation 1
   ENCUT  =  700.0 eV  51.45 Ry    7.17 a.u.  11.34 11.40 22.45*2*pi/ulx,y,z
   ENINI  =  700.0     initial cutoff
   ENAUG  =  758.2 eV  augmentation charge cutoff
   NELM   =    200;   NELMIN=  2; NELMDL=  0     # of ELM steps 
   EDIFF  = 0.1E-07   stopping-criterion for ELM
   LREAL  =      F    real-space projection
   NLSPLINE    = F    spline interpolate recip. space projectors
   LCOMPAT=      F    compatible to vasp.4.4
   GGA_COMPAT  = T    GGA compatible to vasp.4.4-vasp.4.6
   LMAXPAW     = -100 max onsite density
   LMAXMIX     =    4 max onsite mixed and CHGCAR
   VOSKOWN=      0    Vosko Wilk Nusair interpolation
   ROPT   =    0.00000   0.00000   0.00000
 Ionic relaxation
   EDIFFG = -.1E-04   stopping-criterion for IOM
   NSW    =      0    number of steps for IOM
   NBLOCK =      1;   KBLOCK =      1    inner block; outer block 
   IBRION =     -1    ionic relax: 0-MD 1-quasi-New 2-CG
   NFREE  =      0    steps in history (QN), initial steepest desc. (CG)
   ISIF   =      2    stress and relaxation
   IWAVPR =     10    prediction:  0-non 1-charg 2-wave 3-comb
   ISYM   =      2    0-nonsym 1-usesym 2-fastsym
   LCORR  =      T    Harris-Foulkes like correction to forces

   POTIM  = 0.5000    time-step for ionic-motion
   TEIN   =    0.0    initial temperature
   TEBEG  =    0.0;   TEEND  =   0.0 temperature during run
   SMASS  =  -3.00    Nose mass-parameter (am)
   estimated Nose-frequenzy (Omega)   =  0.10E-29 period in steps =****** mass=  -0.632E-27a.u.
   SCALEE = 1.0000    scale energy and forces
   NPACO  =    256;   APACO  = 16.0  distance and # of slots for P.C.
   PSTRESS=    0.0 pullay stress

  Mass of Ions in am
   POMASS =  32.07 63.55 55.85
  Ionic Valenz
   ZVAL   =   6.00 17.00 14.00
  Atomic Wigner-Seitz radii
   RWIGS  =  -1.00 -1.00 -1.00
  virtual crystal weights 
   VCA    =   1.00  1.00  1.00
   NELECT =     172.0000    total number of electrons
   NUPDOWN=      -1.0000    fix difference up-down

 DOS related values:
   EMIN   =  10.00;   EMAX   =-10.00  energy-range for DOS
   EFERMI =   0.00
   ISMEAR =    -5;   SIGMA  =   0.03  broadening in eV -4-tet -1-fermi 0-gaus

 Electronic relaxation 2 (details)
   IALGO  =     38    algorithm
   LDIAG  =      T    sub-space diagonalisation (order eigenvalues)
   LSUBROT=      F    optimize rotation matrix (better conditioning)
   TURBO    =      0    0=normal 1=particle mesh
   IRESTART =      0    0=no restart 2=restart with 2 vectors
   NREBOOT  =      0    no. of reboots
   NMIN     =      0    reboot dimension
   EREF     =   0.00    reference energy to select bands
   IMIX   =      4    mixing-type and parameters
     AMIX     =   0.40;   BMIX     =  1.00
     AMIX_MAG =   1.60;   BMIX_MAG =  1.00
     AMIN     =   0.10
     WC   =   100.;   INIMIX=   1;  MIXPRE=   1;  MAXMIX= -45

 Intra band minimization:
   WEIMIN = 0.0000     energy-eigenvalue tresh-hold
   EBREAK =  0.98E-11  absolut break condition
   DEPER  =   0.30     relativ break condition  

   TIME   =   0.40     timestep for ELM

  volume/ion in A,a.u.               =      17.74       119.73
  Fermi-wavevector in a.u.,A,eV,Ry     =   1.385308  2.617852 26.110626  1.919077
  Thomas-Fermi vector in A             =   2.509730
 
 Write flags
   LWAVE        =      T    write WAVECAR
   LDOWNSAMPLE  =      F    k-point downsampling of WAVECAR
   LCHARG       =      T    write CHGCAR
   LVTOT        =      F    write LOCPOT, total local potential
   LVHAR        =      F    write LOCPOT, Hartree potential only
   LELF         =      F    write electronic localiz. function (ELF)
   LORBIT       =     11    0 simple, 1 ext, 2 COOP (PROOUT), +10 PAW based schemes


 Dipole corrections
   LMONO  =      F    monopole corrections only (constant potential shift)
   LDIPOL =      F    correct potential (dipole corrections)
   IDIPOL =      0    1-x, 2-y, 3-z, 4-all directions 
   EPSILON=  1.0000000 bulk dielectric constant

 LDA+U is selected, type is set to LDAUTYPE =  2
   angular momentum for each species LDAUL =     2    2    2
   U (eV)           for each species LDAUU =   0.0  0.1  4.7
   J (eV)           for each species LDAUJ =   0.0  0.0  0.0
 Exchange correlation treatment:
   GGA     =    PS    GGA type
   LEXCH   =    14    internal setting for exchange type
   VOSKOWN=      0    Vosko Wilk Nusair interpolation
   LHFCALC =     F    Hartree Fock is set to
   LHFONE  =     F    Hartree Fock one center treatment
   AEXX    =    0.0000 exact exchange contribution

 Linear response parameters
   LEPSILON=     F    determine dielectric tensor
   LRPA    =     F    only Hartree local field effects (RPA)
   LNABLA  =     F    use nabla operator in PAW spheres
   LVEL    =     F    velocity operator in full k-point grid
   LINTERFAST=   F  fast interpolation
   KINTER  =     0    interpolate to denser k-point grid
   CSHIFT  =0.1000    complex shift for real part using Kramers Kronig
   OMEGAMAX=  -1.0    maximum frequency
   DEG_THRESHOLD= 0.2000000E-02 threshold for treating states as degnerate
   RTIME   =   -0.100 relaxation time in fs
  (WPLASMAI=    0.000 imaginary part of plasma frequency in eV, 0.658/RTIME)
   DFIELD  = 0.0000000 0.0000000 0.0000000 field for delta impulse in time
 
 Orbital magnetization related:
   ORBITALMAG=     F  switch on orbital magnetization
   LCHIMAG   =     F  perturbation theory with respect to B field
   DQ        =  0.001000  dq finite difference perturbation B field
   LLRAUG    =     F  two centre corrections for induced B field

 PEAD related settings:
   LPEAD      =     T    switch on PEAD
   IPEAD      =     4    finite difference order for dpsi/dk
   LCALCPOL   =     T    calculate macroscopic polarization
   LCALCEPS   =     F    calculate dielectric tensor
   EFIELD_PEAD=    0.0000    0.0000    0.0000
   SKIP_EDOTP =     F
   LRPA       =     F
   SKIP_SCF   =     F


--------------------------------------------------------------------------------------------------------


 Static calculation
 charge density and potential will be updated during run
 non collinear spin polarized calculation
 Variant of blocked Davidson
 Davidson routine will perform the subspace rotation
 perform sub-space diagonalisation
    after iterative eigenvector-optimisation
 modified Broyden-mixing scheme, WC =      100.0
 initial mixing is a Kerker type mixing with AMIX =  0.4000 and BMIX =      1.0000
 Hartree-type preconditioning will be used
 using additional bands          170
 reciprocal scheme for non local part
 use partial core corrections
 calculate Harris-corrections to forces 
   (improved forces if not selfconsistent)
 use gradient corrections 
 use of overlap-Matrix (Vanderbilt PP)
 Fermi weights with tetrahedron method with Bloechl corrections


--------------------------------------------------------------------------------------------------------


  energy-cutoff  :      700.00
  volume of cell :      283.87
      direct lattice vectors                 reciprocal lattice vectors
     5.258785248  0.000000000  0.000000000     0.190157984  0.000000000 -0.036962968
     0.000000000  5.283249352  0.000000000     0.000000000  0.189277457  0.000000000
     1.986003894  0.000000000 10.217104307     0.000000000  0.000000000  0.097875090

  length of vectors
     5.258785248  5.283249352 10.408334732     0.193717113  0.189277457  0.097875090


 
 old parameters found on file WAVECAR:
  energy-cutoff  :      700.00
  volume of cell :      282.55
      direct lattice vectors                 reciprocal lattice vectors
     5.258785248  0.000000000  0.000000000     0.190157984  0.000000000 -0.036962968
     0.000000000  5.258786202  0.000000000     0.000000000  0.190157949  0.000000000
     1.986003894  0.000000000 10.217104307     0.000000000  0.000000000  0.097875090

  length of vectors

 
 k-points in units of 2pi/SCALE and weight: Automatic mesh                          
   0.00000000  0.00000000  0.00000000       0.009
   0.03169300  0.00000000 -0.00616049       0.019
   0.06338599  0.00000000 -0.01232099       0.019
   0.09507899  0.00000000 -0.01848148       0.009
   0.00000000  0.03154624  0.00000000       0.009
   0.03169300  0.03154624 -0.00616049       0.019
   0.06338599  0.03154624 -0.01232099       0.019
   0.09507899  0.03154624 -0.01848148       0.009
   0.00000000  0.06309249  0.00000000       0.009
   0.03169300  0.06309249 -0.00616049       0.019
   0.06338599  0.06309249 -0.01232099       0.019
   0.09507899  0.06309249 -0.01848148       0.009
   0.00000000  0.09463873  0.00000000       0.009
   0.03169300  0.09463873 -0.00616049       0.019
   0.06338599  0.09463873 -0.01232099       0.019
   0.09507899  0.09463873 -0.01848148       0.009
   0.00000000 -0.06309249  0.00000000       0.009
   0.03169300 -0.06309249 -0.00616049       0.019
   0.06338599 -0.06309249 -0.01232099       0.019
   0.09507899 -0.06309249 -0.01848148       0.009
   0.00000000 -0.03154624  0.00000000       0.009
   0.03169300 -0.03154624 -0.00616049       0.019
   0.06338599 -0.03154624 -0.01232099       0.019
   0.09507899 -0.03154624 -0.01848148       0.009
   0.00000000  0.00000000  0.03262503       0.019
   0.03169300  0.00000000  0.02646454       0.019
   0.06338599  0.00000000  0.02030404       0.019
   0.09507899  0.00000000  0.01414355       0.019
  -0.06338599  0.00000000  0.04494602       0.019
  -0.03169300  0.00000000  0.03878552       0.019
   0.00000000  0.03154624  0.03262503       0.019
   0.03169300  0.03154624  0.02646454       0.019
   0.06338599  0.03154624  0.02030404       0.019
   0.09507899  0.03154624  0.01414355       0.019
  -0.06338599  0.03154624  0.04494602       0.019
  -0.03169300  0.03154624  0.03878552       0.019
   0.00000000  0.06309249  0.03262503       0.019
   0.03169300  0.06309249  0.02646454       0.019
   0.06338599  0.06309249  0.02030404       0.019
   0.09507899  0.06309249  0.01414355       0.019
  -0.06338599  0.06309249  0.04494602       0.019
  -0.03169300  0.06309249  0.03878552       0.019
   0.00000000  0.09463873  0.03262503       0.019
   0.03169300  0.09463873  0.02646454       0.019
   0.06338599  0.09463873  0.02030404       0.019
   0.09507899  0.09463873  0.01414355       0.019
  -0.06338599  0.09463873  0.04494602       0.019
  -0.03169300  0.09463873  0.03878552       0.019
   0.00000000 -0.06309249  0.03262503       0.019
   0.03169300 -0.06309249  0.02646454       0.019
   0.06338599 -0.06309249  0.02030404       0.019
   0.09507899 -0.06309249  0.01414355       0.019
  -0.06338599 -0.06309249  0.04494602       0.019
  -0.03169300 -0.06309249  0.03878552       0.019
   0.00000000 -0.03154624  0.03262503       0.019
   0.03169300 -0.03154624  0.02646454       0.019
   0.06338599 -0.03154624  0.02030404       0.019
   0.09507899 -0.03154624  0.01414355       0.019
  -0.06338599 -0.03154624  0.04494602       0.019
  -0.03169300 -0.03154624  0.03878552       0.019
 
 k-points in reciprocal lattice and weights: Automatic mesh                          
   0.00000000  0.00000000  0.00000000       0.009
   0.16666667  0.00000000 -0.00000000       0.019
   0.33333333  0.00000000 -0.00000000       0.019
   0.50000000  0.00000000 -0.00000000       0.009
   0.00000000  0.16666667  0.00000000       0.009
   0.16666667  0.16666667 -0.00000000       0.019
   0.33333333  0.16666667 -0.00000000       0.019
   0.50000000  0.16666667 -0.00000000       0.009
   0.00000000  0.33333333  0.00000000       0.009
   0.16666667  0.33333333 -0.00000000       0.019
   0.33333333  0.33333333 -0.00000000       0.019
   0.50000000  0.33333333 -0.00000000       0.009
   0.00000000  0.50000000  0.00000000       0.009
   0.16666667  0.50000000 -0.00000000       0.019
   0.33333333  0.50000000 -0.00000000       0.019
   0.50000000  0.50000000 -0.00000000       0.009
   0.00000000 -0.33333333  0.00000000       0.009
   0.16666667 -0.33333333 -0.00000000       0.019
   0.33333333 -0.33333333 -0.00000000       0.019
   0.50000000 -0.33333333 -0.00000000       0.009
   0.00000000 -0.16666667  0.00000000       0.009
   0.16666667 -0.16666667 -0.00000000       0.019
   0.33333333 -0.16666667 -0.00000000       0.019
   0.50000000 -0.16666667 -0.00000000       0.009
   0.00000000  0.00000000  0.33333333       0.019
   0.16666667  0.00000000  0.33333333       0.019
   0.33333333  0.00000000  0.33333333       0.019
   0.50000000  0.00000000  0.33333333       0.019
  -0.33333333  0.00000000  0.33333333       0.019
  -0.16666667  0.00000000  0.33333333       0.019
   0.00000000  0.16666667  0.33333333       0.019
   0.16666667  0.16666667  0.33333333       0.019
   0.33333333  0.16666667  0.33333333       0.019
   0.50000000  0.16666667  0.33333333       0.019
  -0.33333333  0.16666667  0.33333333       0.019
  -0.16666667  0.16666667  0.33333333       0.019
   0.00000000  0.33333333  0.33333333       0.019
   0.16666667  0.33333333  0.33333333       0.019
   0.33333333  0.33333333  0.33333333       0.019
   0.50000000  0.33333333  0.33333333       0.019
  -0.33333333  0.33333333  0.33333333       0.019
  -0.16666667  0.33333333  0.33333333       0.019
   0.00000000  0.50000000  0.33333333       0.019
   0.16666667  0.50000000  0.33333333       0.019
   0.33333333  0.50000000  0.33333333       0.019
   0.50000000  0.50000000  0.33333333       0.019
  -0.33333333  0.50000000  0.33333333       0.019
  -0.16666667  0.50000000  0.33333333       0.019
   0.00000000 -0.33333333  0.33333333       0.019
   0.16666667 -0.33333333  0.33333333       0.019
   0.33333333 -0.33333333  0.33333333       0.019
   0.50000000 -0.33333333  0.33333333       0.019
  -0.33333333 -0.33333333  0.33333333       0.019
  -0.16666667 -0.33333333  0.33333333       0.019
   0.00000000 -0.16666667  0.33333333       0.019
   0.16666667 -0.16666667  0.33333333       0.019
   0.33333333 -0.16666667  0.33333333       0.019
   0.50000000 -0.16666667  0.33333333       0.019
  -0.33333333 -0.16666667  0.33333333       0.019
  -0.16666667 -0.16666667  0.33333333       0.019
 
 position of ions in fractional coordinates (direct lattice) 
   0.25453834  0.22460733  0.12690699
   0.74546169  0.72460733  0.12309301
   0.25000000  0.73587903  0.87500000
   0.75000000  0.23682230  0.87500000
   0.24546167  0.22460733  0.62309301
   0.75453831  0.72460733  0.62690699
   0.75000000  0.23587902  0.37500000
   0.25000000  0.73682227  0.37500000
   0.98846650  0.01917938  0.50022815
   0.51153350  0.01917938  0.24977185
   0.48846650  0.51917938  0.00022815
   0.01153350  0.51917938  0.74977185
   0.99268396  0.01986264  0.00278715
   0.50731604  0.01986264  0.74721285
   0.49268396  0.51986264  0.50278715
   0.00731604  0.51986264  0.24721285
 
 position of ions in cartesian coordinates  (Angst):
   1.59060024  1.18665652  1.29662190
   4.16468613  3.82828119  1.25765417
   3.05244972  3.88783242  8.93996627
   5.68184234  1.25119127  8.93996627
   2.52829538  1.18665652  6.36620633
   5.21299466  3.82828119  6.40517406
   4.68884040  1.24620767  3.83141412
   2.05944777  3.89281579  3.83141412
   6.19158810  0.10132947  5.11088316
   3.18609269  0.10132947  2.55194507
   2.56919353  2.74295415  0.00233101
   1.54970201  2.74295415  7.66049722
   5.22584705  0.10493926  0.02847658
   4.15183374  0.10493926  7.63435165
   3.58945638  2.74656393  5.13702874
   0.52943917  2.74656393  2.52579949
 
 Euler angles ALPHA=     0.0000000  BETA=     0.0000000

 transformation matrix from SAXIS to cartesian coordinates
 ---------------------------------------------------------
     1.0000000 m_x     0.0000000 m_y     0.0000000 m_z
     0.0000000 m_x     1.0000000 m_y     0.0000000 m_z
     0.0000000 m_x     0.0000000 m_y     1.0000000 m_z

 transformation matrix from cartesian coordinates to SAXIS
 ---------------------------------------------------------
     1.0000000 m_x     0.0000000 m_y     0.0000000 m_z
     0.0000000 m_x     1.0000000 m_y     0.0000000 m_z
     0.0000000 m_x     0.0000000 m_y     1.0000000 m_z




--------------------------------------------------------------------------------------------------------


 k-point  1 :   0.0000 0.0000 0.0000  plane waves:   23910
 k-point  2 :   0.1667 0.0000-0.0000  plane waves:   23906
 k-point  3 :   0.3333 0.0000-0.0000  plane waves:   23870
 k-point  4 :   0.5000 0.0000-0.0000  plane waves:   23900
 k-point  5 :   0.0000 0.1667 0.0000  plane waves:   23890
 k-point  6 :   0.1667 0.1667-0.0000  plane waves:   23880
 k-point  7 :   0.3333 0.1667-0.0000  plane waves:   23886
 k-point  8 :   0.5000 0.1667-0.0000  plane waves:   23932
 k-point  9 :   0.0000 0.3333 0.0000  plane waves:   23850
 k-point 10 :   0.1667 0.3333-0.0000  plane waves:   23878
 k-point 11 :   0.3333 0.3333-0.0000  plane waves:   23862
 k-point 12 :   0.5000 0.3333-0.0000  plane waves:   23880
 k-point 13 :   0.0000 0.5000 0.0000  plane waves:   23892
 k-point 14 :   0.1667 0.5000-0.0000  plane waves:   23856
 k-point 15 :   0.3333 0.5000-0.0000  plane waves:   23820
 k-point 16 :   0.5000 0.5000-0.0000  plane waves:   23784
 k-point 17 :   0.0000-0.3333 0.0000  plane waves:   23850
 k-point 18 :   0.1667-0.3333-0.0000  plane waves:   23878
 k-point 19 :   0.3333-0.3333-0.0000  plane waves:   23862
 k-point 20 :   0.5000-0.3333-0.0000  plane waves:   23880
 k-point 21 :   0.0000-0.1667 0.0000  plane waves:   23890
 k-point 22 :   0.1667-0.1667-0.0000  plane waves:   23880
 k-point 23 :   0.3333-0.1667-0.0000  plane waves:   23886
 k-point 24 :   0.5000-0.1667-0.0000  plane waves:   23932
 k-point 25 :   0.0000 0.0000 0.3333  plane waves:   23852
 k-point 26 :   0.1667 0.0000 0.3333  plane waves:   23900
 k-point 27 :   0.3333 0.0000 0.3333  plane waves:   23900
 k-point 28 :   0.5000 0.0000 0.3333  plane waves:   23902
 k-point 29 :  -0.3333 0.0000 0.3333  plane waves:   23870
 k-point 30 :  -0.1667 0.0000 0.3333  plane waves:   23914
 k-point 31 :   0.0000 0.1667 0.3333  plane waves:   23916
 k-point 32 :   0.1667 0.1667 0.3333  plane waves:   23880
 k-point 33 :   0.3333 0.1667 0.3333  plane waves:   23866
 k-point 34 :   0.5000 0.1667 0.3333  plane waves:   23872
 k-point 35 :  -0.3333 0.1667 0.3333  plane waves:   23876
 k-point 36 :  -0.1667 0.1667 0.3333  plane waves:   23882
 k-point 37 :   0.0000 0.3333 0.3333  plane waves:   23896
 k-point 38 :   0.1667 0.3333 0.3333  plane waves:   23876
 k-point 39 :   0.3333 0.3333 0.3333  plane waves:   23856
 k-point 40 :   0.5000 0.3333 0.3333  plane waves:   23814
 k-point 41 :  -0.3333 0.3333 0.3333  plane waves:   23858
 k-point 42 :  -0.1667 0.3333 0.3333  plane waves:   23866
 k-point 43 :   0.0000 0.5000 0.3333  plane waves:   23888
 k-point 44 :   0.1667 0.5000 0.3333  plane waves:   23896
 k-point 45 :   0.3333 0.5000 0.3333  plane waves:   23828
 k-point 46 :   0.5000 0.5000 0.3333  plane waves:   23812
 k-point 47 :  -0.3333 0.5000 0.3333  plane waves:   23824
 k-point 48 :  -0.1667 0.5000 0.3333  plane waves:   23880
 k-point 49 :   0.0000-0.3333 0.3333  plane waves:   23896
 k-point 50 :   0.1667-0.3333 0.3333  plane waves:   23876
 k-point 51 :   0.3333-0.3333 0.3333  plane waves:   23856
 k-point 52 :   0.5000-0.3333 0.3333  plane waves:   23814
 k-point 53 :  -0.3333-0.3333 0.3333  plane waves:   23858
 k-point 54 :  -0.1667-0.3333 0.3333  plane waves:   23866
 k-point 55 :   0.0000-0.1667 0.3333  plane waves:   23916
 k-point 56 :   0.1667-0.1667 0.3333  plane waves:   23880
 k-point 57 :   0.3333-0.1667 0.3333  plane waves:   23866
 k-point 58 :   0.5000-0.1667 0.3333  plane waves:   23872
 k-point 59 :  -0.3333-0.1667 0.3333  plane waves:   23876
 k-point 60 :  -0.1667-0.1667 0.3333  plane waves:   23882

 maximum and minimum number of plane-waves per node :     23932    23784

 maximum number of plane-waves:     23932
 maximum index in each direction: 
   IXMAX=   11   IYMAX=   11   IZMAX=   22
   IXMIN=  -11   IYMIN=  -11   IZMIN=  -22


 serial   3D FFT for wavefunctions
 parallel 3D FFT for charge:
    minimum data exchange during FFTs selected (reduces bandwidth)


 total amount of memory used by VASP MPI-rank0   403236. kBytes
=======================================================================

   base      :      30000. kBytes
   nonl-proj :     314949. kBytes
   fftplans  :       2735. kBytes
   grid      :      30965. kBytes
   one-center:        995. kBytes
   wavefun   :      23592. kBytes
 
     INWAV:  cpu time   15.4667: real time   15.5911
 Broyden mixing: mesh for mixing (old mesh)
   NGX = 23   NGY = 23   NGZ = 45
  (NGX  = 96   NGY  = 96   NGZ  =180)
  gives a total of  23805 points

 initial charge density was supplied:
 number of electron     172.0000038 magnetization       0.0000000      0.0000139      0.0000000
 keeping initial charge density in first step


--------------------------------------------------------------------------------------------------------


 Maximum index for augmentation-charges          891 (set IRDMAX)


--------------------------------------------------------------------------------------------------------


 First call to EWALD:  gamma=   0.270
 Maximum number of real-space cells 3x 3x 2
 Maximum number of reciprocal cells 2x 2x 4

    FEWALD:  cpu time    0.0016: real time    0.0016


--------------------------------------- Iteration      1(   1)  ---------------------------------------


    POTLOK:  cpu time    0.2857: real time    0.2964
    SETDIJ:  cpu time    0.5912: real time    0.5931
     EDDAV:  cpu time   76.9592: real time   77.4222
 BZINTS: Fermi energy:  5.215270;172.000000 electrons
         Band energy:***********;  BLOECHL correction:  0.000000
       DOS:  cpu time    0.0402: real time    0.0403
    CHARGE:  cpu time    1.4717: real time    1.4857
    MIXING:  cpu time    0.0027: real time    0.0027
    --------------------------------------------
      LOOP:  cpu time   79.3508: real time   79.8404

 eigenvalue-minimisations  : 30720
 total energy-change (2. order) :-0.8127783E+02  (-0.1939396E+00)
 number of electron     172.0000038 magnetization      -0.0000000      0.0012614      0.0000000
 augmentation part       70.5821606 magnetization      -0.0000000     -0.0015975      0.0000000

 Broyden mixing:
  rms(total) = 0.78886E-01    rms(broyden)= 0.78886E-01
  rms(prec ) = 0.78945E-01
  weight for this iteration     100.00

 Free energy of the ion-electron system (eV)
  ---------------------------------------------------
  alpha Z        PSCENC =       596.92432855
  Ewald energy   TEWEN  =    -15717.12027766
  -Hartree energ DENC   =    -10679.90933783
  -exchange      EXHF   =         0.00000000
  -V(xc)+E(xc)   XCENC  =       821.59497854
  PAW double counting   =     27982.01785462   -28903.87331999
  entropy T*S    EENTRO =         0.00000000
  eigenvalues    EBANDS =     -2685.92833185
  atomic energy  EATOM  =     28505.01627691
  Solvation  Ediel_sol  =         0.00000000
  ---------------------------------------------------
  free energy    TOTEN  =       -81.27782870 eV

  energy without entropy =      -81.27782870  energy(sigma->0) =      -81.27782870


--------------------------------------------------------------------------------------------------------




--------------------------------------- Iteration      1(   2)  ---------------------------------------


    POTLOK:  cpu time    0.1286: real time    0.1331
    SETDIJ:  cpu time    0.5879: real time    0.5897
     EDDAV:  cpu time   80.4322: real time   80.8530
 BZINTS: Fermi energy:  5.152375;172.000000 electrons
         Band energy:***********;  BLOECHL correction:  0.000000
       DOS:  cpu time    0.0338: real time    0.0340
    CHARGE:  cpu time    1.4610: real time    1.4736
    MIXING:  cpu time    0.0021: real time    0.0152
    --------------------------------------------
      LOOP:  cpu time   82.6456: real time   83.0985

 eigenvalue-minimisations  : 30720
 total energy-change (2. order) :-0.9354740E-02  (-0.6921337E-02)
 number of electron     172.0000038 magnetization       0.0000000      0.0015513      0.0000000
 augmentation part       70.5836965 magnetization       0.0000000     -0.0020019      0.0000000

 Broyden mixing:
  rms(total) = 0.47040E-01    rms(broyden)= 0.47039E-01
  rms(prec ) = 0.47289E-01
  weight for this iteration     100.00

 eigenvalues of (default mixing * dielectric matrix)
  average eigenvalue GAMMA=   0.6360
  0.6360

 Free energy of the ion-electron system (eV)
  ---------------------------------------------------
  alpha Z        PSCENC =       596.92432855
  Ewald energy   TEWEN  =    -15717.12027766
  -Hartree energ DENC   =    -10679.61921394
  -exchange      EXHF   =         0.00000000
  -V(xc)+E(xc)   XCENC  =       821.58135977
  PAW double counting   =     27982.61573455   -28904.44281591
  entropy T*S    EENTRO =         0.00000000
  eigenvalues    EBANDS =     -2686.24257572
  atomic energy  EATOM  =     28505.01627691
  Solvation  Ediel_sol  =         0.00000000
  ---------------------------------------------------
  free energy    TOTEN  =       -81.28718344 eV

  energy without entropy =      -81.28718344  energy(sigma->0) =      -81.28718344


--------------------------------------------------------------------------------------------------------




--------------------------------------- Iteration      1(   3)  ---------------------------------------


    POTLOK:  cpu time    0.1333: real time    0.1343
    SETDIJ:  cpu time    0.5882: real time    0.5899
     EDDAV:  cpu time  351.7646: real time  353.4409
 BZINTS: Fermi energy:  5.267747;172.000000 electrons
         Band energy:***********;  BLOECHL correction:  0.000000
       DOS:  cpu time    0.0410: real time    0.0412
    CHARGE:  cpu time    1.4576: real time    1.4699
    MIXING:  cpu time    0.0016: real time    0.0017
    --------------------------------------------
      LOOP:  cpu time  353.9865: real time  355.6780

 eigenvalue-minimisations  : 58880
 total energy-change (2. order) :-0.1266146E-02  (-0.1800579E-02)
 number of electron     172.0000038 magnetization      -0.0000000      0.0008948      0.0000000
 augmentation part       70.5841909 magnetization      -0.0000000     -0.0001207      0.0000000

 Broyden mixing:
  rms(total) = 0.13733E-01    rms(broyden)= 0.13732E-01
  rms(prec ) = 0.14609E-01
  weight for this iteration     100.00

 eigenvalues of (default mixing * dielectric matrix)
  average eigenvalue GAMMA=   0.5940
  0.6664  0.5216

 Free energy of the ion-electron system (eV)
  ---------------------------------------------------
  alpha Z        PSCENC =       596.92432855
  Ewald energy   TEWEN  =    -15717.12027766
  -Hartree energ DENC   =    -10679.79965516
  -exchange      EXHF   =         0.00000000
  -V(xc)+E(xc)   XCENC  =       821.58926734
  PAW double counting   =     27983.44605549   -28905.29583171
  entropy T*S    EENTRO =         0.00000000
  eigenvalues    EBANDS =     -2686.04861335
  atomic energy  EATOM  =     28505.01627691
  Solvation  Ediel_sol  =         0.00000000
  ---------------------------------------------------
  free energy    TOTEN  =       -81.28844959 eV

  energy without entropy =      -81.28844959  energy(sigma->0) =      -81.28844959


--------------------------------------------------------------------------------------------------------




--------------------------------------- Iteration      1(   4)  ---------------------------------------


    POTLOK:  cpu time    0.1336: real time    0.1346
    SETDIJ:  cpu time    0.5903: real time    0.5920
     EDDAV:  cpu time   91.1393: real time   91.6106
 BZINTS: Fermi energy:  5.219277;172.000000 electrons
         Band energy:***********;  BLOECHL correction:  0.000000
       DOS:  cpu time    0.0412: real time    0.0414
    CHARGE:  cpu time    1.4603: real time    1.4728
    MIXING:  cpu time    0.0017: real time    0.0017
    --------------------------------------------
      LOOP:  cpu time   93.3662: real time   93.8529

 eigenvalue-minimisations  : 31744
 total energy-change (2. order) :-0.1819544E-03  (-0.3057395E-02)
 number of electron     172.0000038 magnetization       0.0000000     -0.0003586      0.0000000
 augmentation part       70.5834782 magnetization       0.0000000     -0.0021845      0.0000000

 Broyden mixing:
  rms(total) = 0.14492E-01    rms(broyden)= 0.14492E-01
  rms(prec ) = 0.14990E-01
  weight for this iteration     100.00

 eigenvalues of (default mixing * dielectric matrix)
  average eigenvalue GAMMA=   0.7539
  1.3509  0.6272  0.2834

 Free energy of the ion-electron system (eV)
  ---------------------------------------------------
  alpha Z        PSCENC =       596.92432855
  Ewald energy   TEWEN  =    -15717.12027766
  -Hartree energ DENC   =    -10679.64721632
  -exchange      EXHF   =         0.00000000
  -V(xc)+E(xc)   XCENC  =       821.57960552
  PAW double counting   =     27984.04824634   -28905.90273158
  entropy T*S    EENTRO =         0.00000000
  eigenvalues    EBANDS =     -2686.18686331
  atomic energy  EATOM  =     28505.01627691
  Solvation  Ediel_sol  =         0.00000000
  ---------------------------------------------------
  free energy    TOTEN  =       -81.28863154 eV

  energy without entropy =      -81.28863154  energy(sigma->0) =      -81.28863154


--------------------------------------------------------------------------------------------------------




--------------------------------------- Iteration      1(   5)  ---------------------------------------


    POTLOK:  cpu time    0.1325: real time    0.1333
    SETDIJ:  cpu time    0.5898: real time    0.5916
     EDDAV:  cpu time  351.5116: real time  353.1819
 BZINTS: Fermi energy:  5.197350;172.000000 electrons
         Band energy:***********;  BLOECHL correction:  0.000000
       DOS:  cpu time    0.0412: real time    0.0414
 


 total charge     
 
# of ion       s       p       d       tot
------------------------------------------
    1        1.319   2.395   0.000   3.714
    2        1.319   2.395   0.000   3.714
    3        1.321   2.385   0.000   3.706
    4        1.314   2.406   0.000   3.720
    5        1.319   2.395   0.000   3.714
    6        1.319   2.395   0.000   3.714
    7        1.321   2.385   0.000   3.706
    8        1.314   2.406   0.000   3.720
    9        0.256   6.198   8.918  15.371
   10        0.256   6.198   8.917  15.371
   11        0.256   6.198   8.918  15.371
   12        0.256   6.198   8.917  15.371
   13        0.340   6.338   5.835  12.513
   14        0.340   6.338   5.835  12.514
   15        0.340   6.338   5.835  12.513
   16        0.340   6.338   5.835  12.514
--------------------------------------------------
tot         12.929  69.306  59.010 141.246
 


 magnetization (x)
 
# of ion       s       p       d       tot
------------------------------------------
    1       -0.000  -0.000   0.000  -0.000
    2        0.000   0.000   0.000   0.000
    3       -0.000  -0.000   0.000  -0.000
    4        0.000  -0.000   0.000  -0.000
    5        0.000   0.000   0.000   0.000
    6       -0.000  -0.000   0.000  -0.000
    7       -0.000  -0.000   0.000  -0.000
    8        0.000  -0.000   0.000  -0.000
    9       -0.000  -0.000   0.000   0.000
   10        0.000   0.000  -0.000  -0.000
   11       -0.000  -0.000   0.000   0.000
   12        0.000   0.000  -0.000  -0.000
   13        0.000   0.000   0.001   0.001
   14       -0.000  -0.000  -0.001  -0.001
   15        0.000   0.000   0.001   0.001
   16       -0.000  -0.000  -0.001  -0.001
--------------------------------------------------
tot         -0.000  -0.000  -0.000  -0.001
 


 magnetization (y)
 
# of ion       s       p       d       tot
------------------------------------------
    1       -0.000  -0.000   0.000  -0.000
    2       -0.000  -0.000   0.000  -0.000
    3       -0.000   0.000   0.000   0.000
    4        0.000   0.000   0.000   0.000
    5       -0.000  -0.000   0.000  -0.000
    6       -0.000  -0.000   0.000  -0.000
    7       -0.000   0.000   0.000   0.000
    8        0.000   0.000   0.000   0.000
    9       -0.000   0.000  -0.000   0.000
   10       -0.000   0.000   0.000   0.000
   11       -0.000   0.000  -0.000   0.000
   12       -0.000   0.000   0.000   0.000
   13        0.000   0.000  -0.002  -0.001
   14        0.000   0.000  -0.002  -0.002
   15        0.000   0.000  -0.002  -0.001
   16        0.000   0.000  -0.002  -0.002
--------------------------------------------------
tot          0.000   0.001  -0.007  -0.006
 


 magnetization (z)
 
# of ion       s       p       d       tot
------------------------------------------
    1       -0.001  -0.052   0.000  -0.053
    2        0.001   0.052   0.000   0.053
    3        0.000   0.000   0.000   0.000
    4       -0.000  -0.000   0.000  -0.000
    5        0.001   0.052   0.000   0.053
    6       -0.001  -0.052   0.000  -0.053
    7        0.000   0.000   0.000   0.000
    8       -0.000  -0.000   0.000  -0.000
    9        0.001   0.002  -0.012  -0.010
   10       -0.001  -0.002   0.013   0.010
   11        0.001   0.002  -0.012  -0.010
   12       -0.001  -0.002   0.013   0.010
   13        0.021   0.053   3.643   3.718
   14       -0.021  -0.053  -3.643  -3.718
   15        0.021   0.053   3.643   3.718
   16       -0.021  -0.053  -3.643  -3.718
--------------------------------------------------
tot         -0.000  -0.000   0.001   0.000
 
    CHARGE:  cpu time    1.6570: real time    1.6702
    MIXING:  cpu time    0.0017: real time    0.0017
    --------------------------------------------
      LOOP:  cpu time  353.9337: real time  355.6202

 eigenvalue-minimisations  : 58624
 total energy-change (2. order) :-0.2253907E-03  (-0.2365580E-02)
 number of electron     172.0000038 magnetization       0.0000000     -0.0013617      0.0000000
 augmentation part       70.5840180 magnetization       0.0000000     -0.0018656      0.0000000

 Broyden mixing:
  rms(total) = 0.78617E-02    rms(broyden)= 0.78615E-02
  rms(prec ) = 0.81649E-02
  weight for this iteration     100.00

 eigenvalues of (default mixing * dielectric matrix)
  average eigenvalue GAMMA=   0.7241
  1.6001  0.6309  0.3822  0.2833

 Free energy of the ion-electron system (eV)
  ---------------------------------------------------
  alpha Z        PSCENC =       596.92432855
  Ewald energy   TEWEN  =    -15717.12027766
  -Hartree energ DENC   =    -10679.67427045
  -exchange      EXHF   =         0.00000000
  -V(xc)+E(xc)   XCENC  =       821.57741899
  PAW double counting   =     27985.30261983   -28907.16691594
  entropy T*S    EENTRO =         0.00000000
  eigenvalues    EBANDS =     -2686.14803716
  atomic energy  EATOM  =     28505.01627691
  Solvation  Ediel_sol  =         0.00000000
  ---------------------------------------------------
  free energy    TOTEN  =       -81.28885693 eV

  energy without entropy =      -81.28885693  energy(sigma->0) =      -81.28885693


--------------------------------------------------------------------------------------------------------




--------------------------------------- Iteration      1(   6)  ---------------------------------------


    POTLOK:  cpu time    0.1287: real time    0.1328
    SETDIJ:  cpu time    0.5892: real time    0.5911
     EDDAV:  cpu time   85.9079: real time   86.3585
 BZINTS: Fermi energy:  5.197402;172.000000 electrons
         Band energy:***********;  BLOECHL correction:  0.000000
       DOS:  cpu time    0.0413: real time    0.0414
    CHARGE:  cpu time    1.4517: real time    1.4639
    MIXING:  cpu time    0.0020: real time    0.0020
    --------------------------------------------
      LOOP:  cpu time   88.1207: real time   88.5897

 eigenvalue-minimisations  : 31232
 total energy-change (2. order) : 0.1925236E-04  (-0.1597007E-02)
 number of electron     172.0000038 magnetization       0.0000000     -0.0027553      0.0000000
 augmentation part       70.5838639 magnetization       0.0000000     -0.0020820      0.0000000

 Broyden mixing:
  rms(total) = 0.53624E-02    rms(broyden)= 0.53622E-02
  rms(prec ) = 0.53688E-02
  weight for this iteration     100.00

 eigenvalues of (default mixing * dielectric matrix)
  average eigenvalue GAMMA=   0.7328
  1.8098  0.7025  0.6151  0.3142  0.2225

 Free energy of the ion-electron system (eV)
  ---------------------------------------------------
  alpha Z        PSCENC =       596.92432855
  Ewald energy   TEWEN  =    -15717.12027766
  -Hartree energ DENC   =    -10679.73096067
  -exchange      EXHF   =         0.00000000
  -V(xc)+E(xc)   XCENC  =       821.58014362
  PAW double counting   =     27985.69864281   -28907.56717439
  entropy T*S    EENTRO =         0.00000000
  eigenvalues    EBANDS =     -2686.08981686
  atomic energy  EATOM  =     28505.01627691
  Solvation  Ediel_sol  =         0.00000000
  ---------------------------------------------------
  free energy    TOTEN  =       -81.28883768 eV

  energy without entropy =      -81.28883768  energy(sigma->0) =      -81.28883768


--------------------------------------------------------------------------------------------------------




--------------------------------------- Iteration      1(   7)  ---------------------------------------


    POTLOK:  cpu time    0.1310: real time    0.1336
    SETDIJ:  cpu time    0.5890: real time    0.5908
     EDDAV:  cpu time  251.7591: real time  252.9972
 BZINTS: Fermi energy:  5.194853;172.000000 electrons
         Band energy:***********;  BLOECHL correction:  0.000000
       DOS:  cpu time    0.0411: real time    0.0413
    CHARGE:  cpu time    1.4671: real time    1.4791
    MIXING:  cpu time    0.0020: real time    0.0020
    --------------------------------------------
      LOOP:  cpu time  253.9894: real time  255.2440

 eigenvalue-minimisations  : 47616
 total energy-change (2. order) :-0.8344843E-04  (-0.1014560E-02)
 number of electron     172.0000038 magnetization       0.0000000     -0.0040857      0.0000000
 augmentation part       70.5835547 magnetization       0.0000000     -0.0021392      0.0000000

 Broyden mixing:
  rms(total) = 0.38857E-02    rms(broyden)= 0.38856E-02
  rms(prec ) = 0.38979E-02
  weight for this iteration     100.00

 eigenvalues of (default mixing * dielectric matrix)
  average eigenvalue GAMMA=   0.7050
  1.9184  0.8744  0.6236  0.3419  0.2704  0.2014

 Free energy of the ion-electron system (eV)
  ---------------------------------------------------
  alpha Z        PSCENC =       596.92432855
  Ewald energy   TEWEN  =    -15717.12027766
  -Hartree energ DENC   =    -10679.74249363
  -exchange      EXHF   =         0.00000000
  -V(xc)+E(xc)   XCENC  =       821.58039395
  PAW double counting   =     27985.91788673   -28907.78756560
  entropy T*S    EENTRO =         0.00000000
  eigenvalues    EBANDS =     -2686.07747038
  atomic energy  EATOM  =     28505.01627691
  Solvation  Ediel_sol  =         0.00000000
  ---------------------------------------------------
  free energy    TOTEN  =       -81.28892113 eV

  energy without entropy =      -81.28892113  energy(sigma->0) =      -81.28892113


--------------------------------------------------------------------------------------------------------




--------------------------------------- Iteration      1(   8)  ---------------------------------------


    POTLOK:  cpu time    0.1326: real time    0.1334
    SETDIJ:  cpu time    0.5877: real time    0.5895
     EDDAV:  cpu time  120.0312: real time  120.6426
 BZINTS: Fermi energy:  5.194433;172.000000 electrons
         Band energy:***********;  BLOECHL correction:  0.000000
       DOS:  cpu time    0.0413: real time    0.0415
    CHARGE:  cpu time    1.4663: real time    1.4786
    MIXING:  cpu time    0.0020: real time    0.0020
    --------------------------------------------
      LOOP:  cpu time  122.2611: real time  122.8876

 eigenvalue-minimisations  : 34816
 total energy-change (2. order) :-0.3950347E-04  (-0.6423640E-03)
 number of electron     172.0000038 magnetization       0.0000000     -0.0051687      0.0000000
 augmentation part       70.5836666 magnetization       0.0000000     -0.0042358      0.0000000

 Broyden mixing:
  rms(total) = 0.27318E-02    rms(broyden)= 0.27317E-02
  rms(prec ) = 0.27358E-02
  weight for this iteration     100.00

 eigenvalues of (default mixing * dielectric matrix)
  average eigenvalue GAMMA=   0.6904
  2.0068  1.0321  0.6232  0.4732  0.3084  0.2295  0.1594

 Free energy of the ion-electron system (eV)
  ---------------------------------------------------
  alpha Z        PSCENC =       596.92432855
  Ewald energy   TEWEN  =    -15717.12027766
  -Hartree energ DENC   =    -10679.73339007
  -exchange      EXHF   =         0.00000000
  -V(xc)+E(xc)   XCENC  =       821.57978545
  PAW double counting   =     27985.95060401   -28907.81919688
  entropy T*S    EENTRO =         0.00000000
  eigenvalues    EBANDS =     -2686.08709095
  atomic energy  EATOM  =     28505.01627691
  Solvation  Ediel_sol  =         0.00000000
  ---------------------------------------------------
  free energy    TOTEN  =       -81.28896063 eV

  energy without entropy =      -81.28896063  energy(sigma->0) =      -81.28896063


--------------------------------------------------------------------------------------------------------




--------------------------------------- Iteration      1(   9)  ---------------------------------------


    POTLOK:  cpu time    0.1309: real time    0.1332
    SETDIJ:  cpu time    0.5898: real time    0.5916
     EDDAV:  cpu time  222.9130: real time  224.0081
 BZINTS: Fermi energy:  5.194785;172.000000 electrons
         Band energy:***********;  BLOECHL correction:  0.000000
       DOS:  cpu time    0.0411: real time    0.0413
    CHARGE:  cpu time    1.4638: real time    1.4762
    MIXING:  cpu time    0.0023: real time    0.0023
    --------------------------------------------
      LOOP:  cpu time  225.1408: real time  226.2527

 eigenvalue-minimisations  : 45568
 total energy-change (2. order) : 0.3426909E-04  (-0.2540513E-03)
 number of electron     172.0000038 magnetization       0.0000000     -0.0064246      0.0000000
 augmentation part       70.5838030 magnetization       0.0000000     -0.0038550      0.0000000

 Broyden mixing:
  rms(total) = 0.18161E-02    rms(broyden)= 0.18161E-02
  rms(prec ) = 0.18254E-02
  weight for this iteration     100.00

 eigenvalues of (default mixing * dielectric matrix)
  average eigenvalue GAMMA=   0.6834
  2.1125  1.2108  0.6107  0.6107  0.2984  0.2523  0.2196  0.1522

 Free energy of the ion-electron system (eV)
  ---------------------------------------------------
  alpha Z        PSCENC =       596.92432855
  Ewald energy   TEWEN  =    -15717.12027766
  -Hartree energ DENC   =    -10679.72704721
  -exchange      EXHF   =         0.00000000
  -V(xc)+E(xc)   XCENC  =       821.57959852
  PAW double counting   =     27985.94070052   -28907.80827845
  entropy T*S    EENTRO =         0.00000000
  eigenvalues    EBANDS =     -2686.09422754
  atomic energy  EATOM  =     28505.01627691
  Solvation  Ediel_sol  =         0.00000000
  ---------------------------------------------------
  free energy    TOTEN  =       -81.28892636 eV

  energy without entropy =      -81.28892636  energy(sigma->0) =      -81.28892636


--------------------------------------------------------------------------------------------------------




--------------------------------------- Iteration      1(  10)  ---------------------------------------


    POTLOK:  cpu time    0.1313: real time    0.1326
    SETDIJ:  cpu time    0.5891: real time    0.5910
     EDDAV:  cpu time   93.2032: real time   93.6922
 BZINTS: Fermi energy:  5.194186;172.000000 electrons
         Band energy:***********;  BLOECHL correction:  0.000000
       DOS:  cpu time    0.0411: real time    0.0412
 


 total charge     
 
# of ion       s       p       d       tot
------------------------------------------
    1        1.319   2.395   0.000   3.714
    2        1.319   2.395   0.000   3.714
    3        1.321   2.385   0.000   3.706
    4        1.314   2.406   0.000   3.720
    5        1.319   2.395   0.000   3.714
    6        1.319   2.395   0.000   3.714
    7        1.321   2.385   0.000   3.706
    8        1.314   2.406   0.000   3.720
    9        0.256   6.198   8.917  15.370
   10        0.256   6.198   8.917  15.370
[...]
     0.0000000     0.0000000     0.0000000     0.0000000     0.0000000     0.0000000     0.0000000

 Ion:    5  E_soc:     -0.0017603
 l=   1
     0.0000000    -0.0002561    -0.0003609
    -0.0002561     0.0000000    -0.0002632
    -0.0003609    -0.0002632     0.0000000
 l=   2
     0.0000000     0.0000000     0.0000000     0.0000000     0.0000000
     0.0000000     0.0000000     0.0000000     0.0000000     0.0000000
     0.0000000     0.0000000     0.0000000     0.0000000     0.0000000
     0.0000000     0.0000000     0.0000000     0.0000000     0.0000000
     0.0000000     0.0000000     0.0000000     0.0000000     0.0000000
 l=   3
     0.0000000     0.0000000     0.0000000     0.0000000     0.0000000     0.0000000     0.0000000
     0.0000000     0.0000000     0.0000000     0.0000000     0.0000000     0.0000000     0.0000000
     0.0000000     0.0000000     0.0000000     0.0000000     0.0000000     0.0000000     0.0000000
     0.0000000     0.0000000     0.0000000     0.0000000     0.0000000     0.0000000     0.0000000
     0.0000000     0.0000000     0.0000000     0.0000000     0.0000000     0.0000000     0.0000000
     0.0000000     0.0000000     0.0000000     0.0000000     0.0000000     0.0000000     0.0000000
     0.0000000     0.0000000     0.0000000     0.0000000     0.0000000     0.0000000     0.0000000

 Ion:    6  E_soc:     -0.0017603
 l=   1
     0.0000000    -0.0002561    -0.0003609
    -0.0002561     0.0000000    -0.0002632
    -0.0003609    -0.0002632     0.0000000
 l=   2
     0.0000000     0.0000000     0.0000000     0.0000000     0.0000000
     0.0000000     0.0000000     0.0000000     0.0000000     0.0000000
     0.0000000     0.0000000     0.0000000     0.0000000     0.0000000
     0.0000000     0.0000000     0.0000000     0.0000000     0.0000000
     0.0000000     0.0000000     0.0000000     0.0000000     0.0000000
 l=   3
     0.0000000     0.0000000     0.0000000     0.0000000     0.0000000     0.0000000     0.0000000
     0.0000000     0.0000000     0.0000000     0.0000000     0.0000000     0.0000000     0.0000000
     0.0000000     0.0000000     0.0000000     0.0000000     0.0000000     0.0000000     0.0000000
     0.0000000     0.0000000     0.0000000     0.0000000     0.0000000     0.0000000     0.0000000
     0.0000000     0.0000000     0.0000000     0.0000000     0.0000000     0.0000000     0.0000000
     0.0000000     0.0000000     0.0000000     0.0000000     0.0000000     0.0000000     0.0000000
     0.0000000     0.0000000     0.0000000     0.0000000     0.0000000     0.0000000     0.0000000

 Ion:    7  E_soc:     -0.0018031
 l=   1
     0.0000000    -0.0002614    -0.0003883
    -0.0002614     0.0000000    -0.0002519
    -0.0003883    -0.0002519     0.0000000
 l=   2
     0.0000000     0.0000000     0.0000000     0.0000000     0.0000000
     0.0000000     0.0000000     0.0000000     0.0000000     0.0000000
     0.0000000     0.0000000     0.0000000     0.0000000     0.0000000
     0.0000000     0.0000000     0.0000000     0.0000000     0.0000000
     0.0000000     0.0000000     0.0000000     0.0000000     0.0000000
 l=   3
     0.0000000     0.0000000     0.0000000     0.0000000     0.0000000     0.0000000     0.0000000
     0.0000000     0.0000000     0.0000000     0.0000000     0.0000000     0.0000000     0.0000000
     0.0000000     0.0000000     0.0000000     0.0000000     0.0000000     0.0000000     0.0000000
     0.0000000     0.0000000     0.0000000     0.0000000     0.0000000     0.0000000     0.0000000
     0.0000000     0.0000000     0.0000000     0.0000000     0.0000000     0.0000000     0.0000000
     0.0000000     0.0000000     0.0000000     0.0000000     0.0000000     0.0000000     0.0000000
     0.0000000     0.0000000     0.0000000     0.0000000     0.0000000     0.0000000     0.0000000

 Ion:    8  E_soc:     -0.0016711
 l=   1
     0.0000000    -0.0002600    -0.0003229
    -0.0002600     0.0000000    -0.0002526
    -0.0003229    -0.0002526     0.0000000
 l=   2
     0.0000000     0.0000000     0.0000000     0.0000000     0.0000000
     0.0000000     0.0000000     0.0000000     0.0000000     0.0000000
     0.0000000     0.0000000     0.0000000     0.0000000     0.0000000
     0.0000000     0.0000000     0.0000000     0.0000000     0.0000000
     0.0000000     0.0000000     0.0000000     0.0000000     0.0000000
 l=   3
     0.0000000     0.0000000     0.0000000     0.0000000     0.0000000     0.0000000     0.0000000
     0.0000000     0.0000000     0.0000000     0.0000000     0.0000000     0.0000000     0.0000000
     0.0000000     0.0000000     0.0000000     0.0000000     0.0000000     0.0000000     0.0000000
     0.0000000     0.0000000     0.0000000     0.0000000     0.0000000     0.0000000     0.0000000
     0.0000000     0.0000000     0.0000000     0.0000000     0.0000000     0.0000000     0.0000000
     0.0000000     0.0000000     0.0000000     0.0000000     0.0000000     0.0000000     0.0000000
     0.0000000     0.0000000     0.0000000     0.0000000     0.0000000     0.0000000     0.0000000

 Ion:    9  E_soc:     -0.0619318
 l=   1
     0.0000000    -0.0085684    -0.0085613
    -0.0085684     0.0000000    -0.0085670
    -0.0085613    -0.0085670     0.0000000
 l=   2
     0.0000000    -0.0004004     0.0000000    -0.0003827    -0.0013646
    -0.0004004     0.0000000    -0.0010901    -0.0003111    -0.0003508
     0.0000000    -0.0010901     0.0000000    -0.0010323     0.0000000
    -0.0003827    -0.0003111    -0.0010323     0.0000000    -0.0003371
    -0.0013646    -0.0003508     0.0000000    -0.0003371     0.0000000
 l=   3
     0.0000000     0.0000000     0.0000000     0.0000000     0.0000000     0.0000000     0.0000000
     0.0000000     0.0000000     0.0000000     0.0000000     0.0000000     0.0000000     0.0000000
     0.0000000     0.0000000     0.0000000     0.0000000     0.0000000     0.0000000     0.0000000
     0.0000000     0.0000000     0.0000000     0.0000000     0.0000000     0.0000000     0.0000000
     0.0000000     0.0000000     0.0000000     0.0000000     0.0000000     0.0000000     0.0000000
     0.0000000     0.0000000     0.0000000     0.0000000     0.0000000     0.0000000     0.0000000
     0.0000000     0.0000000     0.0000000     0.0000000     0.0000000     0.0000000     0.0000000

 Ion:   10  E_soc:     -0.0619318
 l=   1
     0.0000000    -0.0085684    -0.0085613
    -0.0085684     0.0000000    -0.0085670
    -0.0085613    -0.0085670     0.0000000
 l=   2
     0.0000000    -0.0004004     0.0000000    -0.0003827    -0.0013646
    -0.0004004     0.0000000    -0.0010901    -0.0003111    -0.0003508
     0.0000000    -0.0010901     0.0000000    -0.0010323     0.0000000
    -0.0003827    -0.0003111    -0.0010323     0.0000000    -0.0003371
    -0.0013646    -0.0003508     0.0000000    -0.0003371     0.0000000
 l=   3
     0.0000000     0.0000000     0.0000000     0.0000000     0.0000000     0.0000000     0.0000000
     0.0000000     0.0000000     0.0000000     0.0000000     0.0000000     0.0000000     0.0000000
     0.0000000     0.0000000     0.0000000     0.0000000     0.0000000     0.0000000     0.0000000
     0.0000000     0.0000000     0.0000000     0.0000000     0.0000000     0.0000000     0.0000000
     0.0000000     0.0000000     0.0000000     0.0000000     0.0000000     0.0000000     0.0000000
     0.0000000     0.0000000     0.0000000     0.0000000     0.0000000     0.0000000     0.0000000
     0.0000000     0.0000000     0.0000000     0.0000000     0.0000000     0.0000000     0.0000000

 Ion:   11  E_soc:     -0.0619318
 l=   1
     0.0000000    -0.0085684    -0.0085613
    -0.0085684     0.0000000    -0.0085670
    -0.0085613    -0.0085670     0.0000000
 l=   2
     0.0000000    -0.0004004     0.0000000    -0.0003827    -0.0013646
    -0.0004004     0.0000000    -0.0010901    -0.0003111    -0.0003508
     0.0000000    -0.0010901     0.0000000    -0.0010323     0.0000000
    -0.0003827    -0.0003111    -0.0010323     0.0000000    -0.0003371
    -0.0013646    -0.0003508     0.0000000    -0.0003371     0.0000000
 l=   3
     0.0000000     0.0000000     0.0000000     0.0000000     0.0000000     0.0000000     0.0000000
     0.0000000     0.0000000     0.0000000     0.0000000     0.0000000     0.0000000     0.0000000
     0.0000000     0.0000000     0.0000000     0.0000000     0.0000000     0.0000000     0.0000000
     0.0000000     0.0000000     0.0000000     0.0000000     0.0000000     0.0000000     0.0000000
     0.0000000     0.0000000     0.0000000     0.0000000     0.0000000     0.0000000     0.0000000
     0.0000000     0.0000000     0.0000000     0.0000000     0.0000000     0.0000000     0.0000000
     0.0000000     0.0000000     0.0000000     0.0000000     0.0000000     0.0000000     0.0000000

 Ion:   12  E_soc:     -0.0619318
 l=   1
     0.0000000    -0.0085684    -0.0085613
    -0.0085684     0.0000000    -0.0085670
    -0.0085613    -0.0085670     0.0000000
 l=   2
     0.0000000    -0.0004004     0.0000000    -0.0003827    -0.0013646
    -0.0004004     0.0000000    -0.0010901    -0.0003111    -0.0003508
     0.0000000    -0.0010901     0.0000000    -0.0010323     0.0000000
    -0.0003827    -0.0003111    -0.0010323     0.0000000    -0.0003371
    -0.0013646    -0.0003508     0.0000000    -0.0003371     0.0000000
 l=   3
     0.0000000     0.0000000     0.0000000     0.0000000     0.0000000     0.0000000     0.0000000
     0.0000000     0.0000000     0.0000000     0.0000000     0.0000000     0.0000000     0.0000000
     0.0000000     0.0000000     0.0000000     0.0000000     0.0000000     0.0000000     0.0000000
     0.0000000     0.0000000     0.0000000     0.0000000     0.0000000     0.0000000     0.0000000
     0.0000000     0.0000000     0.0000000     0.0000000     0.0000000     0.0000000     0.0000000
     0.0000000     0.0000000     0.0000000     0.0000000     0.0000000     0.0000000     0.0000000
     0.0000000     0.0000000     0.0000000     0.0000000     0.0000000     0.0000000     0.0000000

 Ion:   13  E_soc:     -0.0367849
 l=   1
     0.0000000    -0.0042947    -0.0043110
    -0.0042947     0.0000000    -0.0042854
    -0.0043110    -0.0042854     0.0000000
 l=   2
     0.0000000    -0.0003570     0.0000000    -0.0003681    -0.0009755
    -0.0003570     0.0000000    -0.0012888    -0.0003162    -0.0004280
     0.0000000    -0.0012888     0.0000000    -0.0013327     0.0000000
    -0.0003681    -0.0003162    -0.0013327     0.0000000    -0.0004351
    -0.0009755    -0.0004280     0.0000000    -0.0004351     0.0000000
 l=   3
     0.0000000     0.0000000     0.0000000     0.0000000     0.0000000     0.0000000     0.0000000
     0.0000000     0.0000000     0.0000000     0.0000000     0.0000000     0.0000000     0.0000000
     0.0000000     0.0000000     0.0000000     0.0000000     0.0000000     0.0000000     0.0000000
     0.0000000     0.0000000     0.0000000     0.0000000     0.0000000     0.0000000     0.0000000
     0.0000000     0.0000000     0.0000000     0.0000000     0.0000000     0.0000000     0.0000000
     0.0000000     0.0000000     0.0000000     0.0000000     0.0000000     0.0000000     0.0000000
     0.0000000     0.0000000     0.0000000     0.0000000     0.0000000     0.0000000     0.0000000

 Ion:   14  E_soc:     -0.0367849
 l=   1
     0.0000000    -0.0042947    -0.0043110
    -0.0042947     0.0000000    -0.0042854
    -0.0043110    -0.0042854     0.0000000
 l=   2
     0.0000000    -0.0003570     0.0000000    -0.0003681    -0.0009755
    -0.0003570     0.0000000    -0.0012888    -0.0003162    -0.0004280
     0.0000000    -0.0012888     0.0000000    -0.0013327     0.0000000
    -0.0003681    -0.0003162    -0.0013327     0.0000000    -0.0004351
    -0.0009755    -0.0004280     0.0000000    -0.0004351     0.0000000
 l=   3
     0.0000000     0.0000000     0.0000000     0.0000000     0.0000000     0.0000000     0.0000000
     0.0000000     0.0000000     0.0000000     0.0000000     0.0000000     0.0000000     0.0000000
     0.0000000     0.0000000     0.0000000     0.0000000     0.0000000     0.0000000     0.0000000
     0.0000000     0.0000000     0.0000000     0.0000000     0.0000000     0.0000000     0.0000000
     0.0000000     0.0000000     0.0000000     0.0000000     0.0000000     0.0000000     0.0000000
     0.0000000     0.0000000     0.0000000     0.0000000     0.0000000     0.0000000     0.0000000
     0.0000000     0.0000000     0.0000000     0.0000000     0.0000000     0.0000000     0.0000000

 Ion:   15  E_soc:     -0.0367849
 l=   1
     0.0000000    -0.0042947    -0.0043110
    -0.0042947     0.0000000    -0.0042854
    -0.0043110    -0.0042854     0.0000000
 l=   2
     0.0000000    -0.0003570     0.0000000    -0.0003681    -0.0009755
    -0.0003570     0.0000000    -0.0012888    -0.0003162    -0.0004280
     0.0000000    -0.0012888     0.0000000    -0.0013327     0.0000000
    -0.0003681    -0.0003162    -0.0013327     0.0000000    -0.0004351
    -0.0009755    -0.0004280     0.0000000    -0.0004351     0.0000000
 l=   3
     0.0000000     0.0000000     0.0000000     0.0000000     0.0000000     0.0000000     0.0000000
     0.0000000     0.0000000     0.0000000     0.0000000     0.0000000     0.0000000     0.0000000
     0.0000000     0.0000000     0.0000000     0.0000000     0.0000000     0.0000000     0.0000000
     0.0000000     0.0000000     0.0000000     0.0000000     0.0000000     0.0000000     0.0000000
     0.0000000     0.0000000     0.0000000     0.0000000     0.0000000     0.0000000     0.0000000
     0.0000000     0.0000000     0.0000000     0.0000000     0.0000000     0.0000000     0.0000000
     0.0000000     0.0000000     0.0000000     0.0000000     0.0000000     0.0000000     0.0000000

 Ion:   16  E_soc:     -0.0367849
 l=   1
     0.0000000    -0.0042947    -0.0043110
    -0.0042947     0.0000000    -0.0042854
    -0.0043110    -0.0042854     0.0000000
 l=   2
     0.0000000    -0.0003570     0.0000000    -0.0003681    -0.0009755
    -0.0003570     0.0000000    -0.0012888    -0.0003162    -0.0004280
     0.0000000    -0.0012888     0.0000000    -0.0013327     0.0000000
    -0.0003681    -0.0003162    -0.0013327     0.0000000    -0.0004351
    -0.0009755    -0.0004280     0.0000000    -0.0004351     0.0000000
 l=   3
     0.0000000     0.0000000     0.0000000     0.0000000     0.0000000     0.0000000     0.0000000
     0.0000000     0.0000000     0.0000000     0.0000000     0.0000000     0.0000000     0.0000000
     0.0000000     0.0000000     0.0000000     0.0000000     0.0000000     0.0000000     0.0000000
     0.0000000     0.0000000     0.0000000     0.0000000     0.0000000     0.0000000     0.0000000
     0.0000000     0.0000000     0.0000000     0.0000000     0.0000000     0.0000000     0.0000000
     0.0000000     0.0000000     0.0000000     0.0000000     0.0000000     0.0000000     0.0000000
     0.0000000     0.0000000     0.0000000     0.0000000     0.0000000     0.0000000     0.0000000
 


 total charge     
 
# of ion       s       p       d       tot
------------------------------------------
    1        1.319   2.395   0.000   3.714
    2        1.319   2.395   0.000   3.714
    3        1.321   2.385   0.000   3.706
    4        1.314   2.406   0.000   3.720
    5        1.319   2.395   0.000   3.714
    6        1.319   2.395   0.000   3.714
    7        1.321   2.385   0.000   3.706
    8        1.314   2.406   0.000   3.720
    9        0.256   6.198   8.917  15.370
   10        0.256   6.198   8.917  15.370
   11        0.256   6.198   8.917  15.370
   12        0.256   6.198   8.917  15.370
   13        0.340   6.338   5.836  12.514
   14        0.340   6.338   5.836  12.514
   15        0.340   6.338   5.836  12.514
   16        0.340   6.338   5.836  12.514
--------------------------------------------------
tot         12.929  69.306  59.011 141.246
 


 magnetization (x)
 
# of ion       s       p       d       tot
------------------------------------------
    1       -0.000  -0.002   0.000  -0.002
    2        0.000   0.002   0.000   0.002
    3       -0.000  -0.000   0.000  -0.000
    4        0.000  -0.000   0.000  -0.000
    5        0.000   0.002   0.000   0.002
    6       -0.000  -0.002   0.000  -0.002
    7       -0.000  -0.000   0.000  -0.000
    8        0.000  -0.000   0.000  -0.000
    9        0.000   0.000  -0.001  -0.000
   10        0.000  -0.000   0.000   0.000
   11        0.000   0.000  -0.001  -0.000
   12        0.000  -0.000   0.000   0.000
   13        0.001   0.002   0.128   0.131
   14       -0.001  -0.002  -0.128  -0.130
   15        0.001   0.002   0.128   0.131
   16       -0.001  -0.002  -0.128  -0.130
--------------------------------------------------
tot         -0.000  -0.001  -0.000  -0.001
 


 magnetization (y)
 
# of ion       s       p       d       tot
------------------------------------------
    1       -0.000  -0.000   0.000  -0.000
    2       -0.000  -0.000   0.000  -0.000
    3       -0.000   0.000   0.000  -0.000
    4       -0.000   0.000   0.000   0.000
    5       -0.000  -0.000   0.000  -0.000
    6       -0.000  -0.000   0.000  -0.000
    7       -0.000   0.000   0.000  -0.000
    8       -0.000   0.000   0.000   0.000
    9       -0.000   0.000  -0.000  -0.000
   10       -0.000   0.000   0.000   0.000
   11       -0.000   0.000  -0.000  -0.000
   12       -0.000   0.000   0.000   0.000
   13       -0.000  -0.000  -0.009  -0.009
   14       -0.000  -0.000  -0.009  -0.009
   15       -0.000  -0.000  -0.009  -0.009
   16       -0.000  -0.000  -0.009  -0.009
--------------------------------------------------
tot         -0.001  -0.001  -0.035  -0.037
 


 magnetization (z)
 
# of ion       s       p       d       tot
------------------------------------------
    1       -0.001  -0.052   0.000  -0.053
    2        0.001   0.052   0.000   0.053
    3        0.000   0.000   0.000   0.000
    4       -0.000  -0.000   0.000  -0.000
    5        0.001   0.052   0.000   0.053
    6       -0.001  -0.052   0.000  -0.053
    7        0.000   0.000   0.000   0.000
    8       -0.000  -0.000   0.000  -0.000
    9        0.001   0.002  -0.012  -0.010
   10       -0.001  -0.002   0.013   0.010
   11        0.001   0.002  -0.012  -0.010
   12       -0.001  -0.002   0.013   0.010
   13        0.021   0.053   3.640   3.715
   14       -0.021  -0.053  -3.640  -3.715
   15        0.021   0.053   3.640   3.715
   16       -0.021  -0.053  -3.640  -3.715
--------------------------------------------------
tot         -0.000  -0.000   0.001   0.001
 
 BZINTS: Fermi energy:  5.194335;172.000000 electrons
         Band energy:***********;  BLOECHL correction:  0.000000
 BZINTS: Fermi energy:  5.194335;172.000000 electrons
         Band energy:***********;  BLOECHL correction:  0.000000
 BZINTS: Fermi energy:  5.194335;172.000000 electrons
         Band energy:***********;  BLOECHL correction:  0.000000
 BZINTS: Fermi energy:  5.194335;172.000000 electrons
         Band energy:***********;  BLOECHL correction:  0.000000

 total amount of memory used by VASP MPI-rank0   403236. kBytes
=======================================================================

   base      :      30000. kBytes
   nonl-proj :     314949. kBytes
   fftplans  :       2735. kBytes
   grid      :      30965. kBytes
   one-center:        995. kBytes
   wavefun   :      23592. kBytes
 
  
  
 General timing and accounting informations for this job:
 ========================================================
  
                  Total CPU time used (sec):    22932.361
                            User time (sec):    22919.592
                          System time (sec):       12.769
                         Elapsed time (sec):    23207.631
  
                   Maximum memory used (kb):      863468.
                   Average memory used (kb):           0.
  
                          Minor page faults:      1087459
                          Major page faults:         5786
                 Voluntary context switches:         7387
