       N       E                     dE             d eps       ncg     rms          rms(c)
DAV:   1     0.604452133573E+04    0.60445E+04   -0.51614E+05 16384   0.196E+03
DAV:   2    -0.959253641046E+02   -0.61404E+04   -0.60307E+04 19456   0.445E+02
DAV:   3    -0.330098806844E+03   -0.23417E+03   -0.23358E+03 21248   0.950E+01
DAV:   4    -0.333402134559E+03   -0.33033E+01   -0.33032E+01 22016   0.113E+01
DAV:   5    -0.333507040887E+03   -0.10491E+00   -0.10491E+00 19968   0.196E+00    0.178E+01
DAV:   6    -0.329342948187E+03    0.41641E+01   -0.34308E+00 27136   0.598E+00    0.947E+00
DAV:   7    -0.328085003099E+03    0.12579E+01   -0.26777E+00 22016   0.423E+00    0.593E+00
DAV:   8    -0.327984248900E+03    0.10075E+00   -0.67523E-01 23808   0.192E+00    0.239E+00
DAV:   9    -0.327985982286E+03   -0.17334E-02   -0.13243E-01 21248   0.778E-01    0.149E+00
DAV:  10    -0.327991840626E+03   -0.58583E-02   -0.14378E-01 22272   0.106E+00    0.137E+00
DAV:  11    -0.327990991571E+03    0.84905E-03   -0.96400E-02 20224   0.853E-01    0.566E-01
DAV:  12    -0.327993044618E+03   -0.20530E-02   -0.17694E-02 25088   0.330E-01    0.178E-01
DAV:  13    -0.327993415749E+03   -0.37113E-03   -0.13971E-03 20480   0.941E-02    0.114E-01
DAV:  14    -0.327993725759E+03   -0.31001E-03   -0.10489E-03 22016   0.435E-02    0.578E-02
DAV:  15    -0.327993838640E+03   -0.11288E-03   -0.32714E-04 19712   0.236E-02    0.382E-02
DAV:  16    -0.327993884836E+03   -0.46196E-04   -0.13925E-04 22272   0.163E-02    0.211E-02
DAV:  17    -0.327993913465E+03   -0.28629E-04   -0.10742E-04 19712   0.102E-02    0.140E-02
DAV:  18    -0.327993922675E+03   -0.92095E-05   -0.65549E-05 20736   0.865E-03    0.587E-03
DAV:  19    -0.327993923592E+03   -0.91728E-06   -0.60856E-06 20224   0.308E-03    0.374E-03
DAV:  20    -0.327993923707E+03   -0.11481E-06   -0.74385E-07 23296   0.116E-03    0.220E-03
DAV:  21    -0.327993923753E+03   -0.46421E-07   -0.41244E-07 21504   0.761E-04    0.744E-04
DAV:  22    -0.327993923794E+03   -0.40978E-07   -0.40325E-08 18688   0.274E-04    0.553E-04
DAV:  23    -0.327993923813E+03   -0.19252E-07   -0.80931E-09 16384   0.147E-04    0.242E-04
DAV:  24    -0.327993923822E+03   -0.84983E-08   -0.27676E-09 12800   0.809E-05
   1 F= -.32799392E+03 E0= -.32799392E+03  d E =0.000000E+00  mag=     0.0000
