 vasp.5.4.4.18Apr17-6-g9f103f2a35 (build Oct 30 2023 17:30:16) complex          
  
 executed on             LinuxIFC date 2024.06.30  21:44:51
 running on  256 total cores
 distrk:  each k-point on  256 cores,    1 groups
 distr:  one band on NCORES_PER_BAND=   1 cores,  256 groups


--------------------------------------------------------------------------------------------------------


 INCAR:
 POTCAR:    PAW_PBE S 06Sep2000                   
 POTCAR:     PAW_PBE Cu_pv 06Sep2000              
 POTCAR:     PAW_PBE Fe_pv 02Aug2007              

 ----------------------------------------------------------------------------- 
|                                                                             |
|           W    W    AA    RRRRR   N    N  II  N    N   GGGG   !!!           |
|           W    W   A  A   R    R  NN   N  II  NN   N  G    G  !!!           |
|           W    W  A    A  R    R  N N  N  II  N N  N  G       !!!           |
|           W WW W  AAAAAA  RRRRR   N  N N  II  N  N N  G  GGG   !            |
|           WW  WW  A    A  R   R   N   NN  II  N   NN  G    G                |
|           W    W  A    A  R    R  N    N  II  N    N   GGGG   !!!           |
|                                                                             |
|      For optimal performance we recommend to set                            |
|        NCORE= 4 - approx SQRT( number of cores)                             |
|      NCORE specifies how many cores store one orbital (NPAR=cpu/NCORE).     |
|      This setting can  greatly improve the performance of VASP for DFT.     |
|      The default,   NCORE=1            might be grossly inefficient         |
|      on modern multi-core architectures or massively parallel machines.     |
|      Do your own testing !!!!                                               |
|      Unfortunately you need to use the default for GW and RPA calculations. |
|      (for HF NCORE is supported but not extensively tested yet)             |
|                                                                             |
 ----------------------------------------------------------------------------- 

 POTCAR:    PAW_PBE S 06Sep2000                   
   SHA256 =  0fc7481fb0695f01bdc6462160264c5c84044ae9ec85a907d398b887a2bc3132 S/
   COPYR  = (c) Copyright 06Sep2000 Georg Kresse                                
   COPYR  = This file is part of the software VASP. Any use, copying, and all ot
   COPYR  = If you do not have a valid VASP license, you may not use, copy or di
   VRHFIN =S : s2p4                                                             
   LEXCH  = PE                                                                  
   EATOM  =   276.8230 eV,   20.3459 Ry                                         
                                                                                
   TITEL  = PAW_PBE S 06Sep2000                                                 
   LULTRA =        F    use ultrasoft PP ?                                      
   IUNSCR =        1    unscreen: 0-lin 1-nonlin 2-no                           
   RPACOR =    1.500    partial core radius                                     
   POMASS =   32.066; ZVAL   =    6.000    mass and valenz                      
   RCORE  =    1.900    outmost cutoff radius                                   
   RWIGS  =    2.200; RWIGS  =    1.164    wigner-seitz radius (au A)           
   ENMAX  =  258.689; ENMIN  =  194.016 eV                                      
   ICORE  =        2    local potential                                         
   LCOR   =        T    correct aug charges                                     
   LPAW   =        T    paw PP                                                  
   EAUG   =  335.092                                                            
   DEXC   =    0.000                                                            
   RMAX   =    1.942    core radius for proj-oper                               
   RAUG   =    1.300    factor for augmentation sphere                          
   RDEP   =    1.954    radius for radial grids                                 
   RDEPT  =    1.744    core radius for aug-charge                              
                                                                                
   Atomic configuration                                                         
    6 entries                                                                   
     n  l   j            E        occ.                                          
     1  0  0.50     -2405.8406   2.0000                                         
     2  0  0.50      -211.7007   2.0000                                         
     2  1  1.50      -156.4958   6.0000                                         
     3  0  0.50       -17.2562   2.0000                                         
     3  1  0.50        -7.0085   4.0000                                         
     3  2  1.50        -6.8029   0.0000                                         
   Description                                                                  
     l       E           TYP  RCUT    TYP  RCUT                                 
     0    -17.2561641     23  1.900                                             
     0    -15.8743224     23  1.900                                             
     1     -7.0085400     23  1.900                                             
     1     -2.7779785     23  1.900                                             
     2     -6.8029130     23  1.900                                             
  local pseudopotential read in
  partial core-charges read in
  partial kinetic energy density read in
  atomic valenz-charges read in
  non local Contribution for L=           0  read in
    real space projection operators read in
  non local Contribution for L=           0  read in
    real space projection operators read in
  non local Contribution for L=           1  read in
    real space projection operators read in
  non local Contribution for L=           1  read in
    real space projection operators read in
    PAW grid and wavefunctions read in
 
   number of l-projection  operators is LMAX  =           4
   number of lm-projection operators is LMMAX =           8
 
 POTCAR:     PAW_PBE Cu_pv 06Sep2000              
   SHA256 =  cb7b504e2ea725fe1f25c85a9ac77d4012ce94cd394135b722c4e25ec297f1cb Cu
   COPYR  = (c) Copyright 06Sep2000 Georg Kresse                                
   COPYR  = This file is part of the software VASP. Any use, copying, and all ot
   COPYR  = If you do not have a valid VASP license, you may not use, copy or di
   VRHFIN =Cu: d10 p1                                                           
   LEXCH  = PE                                                                  
   EATOM  =  4120.1201 eV,  302.8203 Ry                                         
                                                                                
   TITEL  = PAW_PBE Cu_pv 06Sep2000                                             
   LULTRA =        F    use ultrasoft PP ?                                      
   IUNSCR =        1    unscreen: 0-lin 1-nonlin 2-no                           
   RPACOR =    1.500    partial core radius                                     
   POMASS =   63.546; ZVAL   =   17.000    mass and valenz                      
   RCORE  =    2.000    outmost cutoff radius                                   
   RWIGS  =    2.000; RWIGS  =    1.058    wigner-seitz radius (au A)           
   ENMAX  =  368.648; ENMIN  =  276.486 eV                                      
   RCLOC  =    1.304    cutoff for local pot                                    
   LCOR   =        T    correct aug charges                                     
   LPAW   =        T    paw PP                                                  
   EAUG   =  758.233                                                            
   DEXC   =    0.000                                                            
   RMAX   =    2.046    core radius for proj-oper                               
   RAUG   =    1.300    factor for augmentation sphere                          
   RDEP   =    2.025    radius for radial grids                                 
   RDEPT  =    1.558    core radius for aug-charge                              
                                                                                
   Atomic configuration                                                         
    8 entries                                                                   
     n  l   j            E        occ.                                          
     1  0  0.50     -8850.2467   2.0000                                         
     2  0  0.50     -1062.3498   2.0000                                         
     2  1  1.50      -916.8226   6.0000                                         
     3  0  0.50      -114.6929   2.0000                                         
     3  1  1.50       -72.1325   6.0000                                         
     3  2  2.50        -5.0394  10.0000                                         
     4  0  0.50        -4.6097   1.0000                                         
     4  3  2.50        -1.3606   0.0000                                         
   Description                                                                  
     l       E           TYP  RCUT    TYP  RCUT                                 
     1    -72.1324777     23  1.700                                             
     1     -1.3605826     23  1.700                                             
     2     -5.0393776     23  2.000                                             
     2     -6.3999602     23  2.000                                             
     0     -4.6097062     23  1.800                                             
     0     14.1620818     23  1.800                                             
  local pseudopotential read in
  partial core-charges read in
  partial kinetic energy density read in
  atomic valenz-charges read in
  non local Contribution for L=           1  read in
    real space projection operators read in
  non local Contribution for L=           1  read in
    real space projection operators read in
  non local Contribution for L=           2  read in
    real space projection operators read in
  non local Contribution for L=           2  read in
    real space projection operators read in
  non local Contribution for L=           0  read in
    real space projection operators read in
  non local Contribution for L=           0  read in
    real space projection operators read in
    PAW grid and wavefunctions read in
 
   number of l-projection  operators is LMAX  =           6
   number of lm-projection operators is LMMAX =          18
 
 POTCAR:     PAW_PBE Fe_pv 02Aug2007              
   SHA256 =  5d22e414b1f82158bf2c7ecb8b97b28fd0923e48cadc1c3bf74d524558f5dd32 Fe
   COPYR  = (c) Copyright 02Aug2007 Georg Kresse                                
   COPYR  = This file is part of the software VASP. Any use, copying, and all ot
   COPYR  = If you do not have a valid VASP license, you may not use, copy or di
   VRHFIN =Fe:  3pd7s1                                                          
   LEXCH  = PE                                                                  
   EATOM  =  2457.4239 eV,  180.6156 Ry                                         
                                                                                
   TITEL  = PAW_PBE Fe_pv 02Aug2007                                             
   LULTRA =        F    use ultrasoft PP ?                                      
   IUNSCR =        1    unscreen: 0-lin 1-nonlin 2-no                           
   RPACOR =    1.750    partial core radius                                     
   POMASS =   55.847; ZVAL   =   14.000    mass and valenz                      
   RCORE  =    2.200    outmost cutoff radius                                   
   RWIGS  =    2.200; RWIGS  =    1.164    wigner-seitz radius (au A)           
   ENMAX  =  293.238; ENMIN  =  219.928 eV                                      
   ICORE  =        3    local potential                                         
   LCOR   =        T    correct aug charges                                     
   LPAW   =        T    paw PP                                                  
   EAUG   =  578.342                                                            
   DEXC   =    0.000                                                            
   RMAX   =    2.249    core radius for proj-oper                               
   RAUG   =    1.300    factor for augmentation sphere                          
   RDEP   =    2.296    radius for radial grids                                 
   RDEPT  =    1.766    core radius for aug-charge                              
                                                                                
   Atomic configuration                                                         
    8 entries                                                                   
     n  l   j            E        occ.                                          
     1  0  0.50     -6993.8440   2.0000                                         
     2  0  0.50      -814.6047   2.0000                                         
     2  1  1.50      -693.3689   6.0000                                         
     3  0  0.50       -89.4732   2.0000                                         
     3  1  1.50       -55.6373   6.0000                                         
     3  2  2.50        -3.8151   7.0000                                         
     4  0  0.50        -4.2551   1.0000                                         
     4  3  2.50        -1.3606   0.0000                                         
   Description                                                                  
     l       E           TYP  RCUT    TYP  RCUT                                 
     1    -55.6372668     23  2.000                                             
     1     -5.4423304     23  2.000                                             
     2     -3.8151096     23  2.200                                             
     2     -5.1756922     23  2.200                                             
     0     -4.2550951     23  2.200                                             
     0     27.2116520     23  2.200                                             
     3     -1.3605826     23  2.200                                             
  local pseudopotential read in
  partial core-charges read in
  partial kinetic energy density read in
  atomic valenz-charges read in
  non local Contribution for L=           1  read in
    real space projection operators read in
  non local Contribution for L=           1  read in
    real space projection operators read in
  non local Contribution for L=           2  read in
    real space projection operators read in
  non local Contribution for L=           2  read in
    real space projection operators read in
  non local Contribution for L=           0  read in
    real space projection operators read in
  non local Contribution for L=           0  read in
    real space projection operators read in
    PAW grid and wavefunctions read in
 
   number of l-projection  operators is LMAX  =           6
   number of lm-projection operators is LMMAX =          18
 

 ----------------------------------------------------------------------------- 
|                                                                             |
|  ADVICE TO THIS USER RUNNING 'VASP/VAMP'   (HEAR YOUR MASTER'S VOICE ...):  |
|                                                                             |
|      You have a (more or less) 'large supercell' and for larger cells       |
|      it might be more efficient to use real space projection opertators     |
|      So try LREAL= Auto  in the INCAR   file.                               |
|      Mind:          For very  accurate calculation you might also keep the  |
|      reciprocal projection scheme          (i.e. LREAL=.FALSE.)             |
|                                                                             |
 ----------------------------------------------------------------------------- 


 ----------------------------------------------------------------------------- 
|                                                                             |
|  ADVICE TO THIS USER RUNNING 'VASP/VAMP'   (HEAR YOUR MASTER'S VOICE ...):  |
|                                                                             |
|      You enforced a specific xc-type in the INCAR file,                     |
|      a different type was found on the POTCAR file                          |
|          I HOPE YOU KNOW, WHAT YOU ARE  DOING                               |
|                                                                             |
 ----------------------------------------------------------------------------- 

  PAW_PBE S 06Sep2000                   :
 energy of atom  1       EATOM= -276.8230
 kinetic energy error for atom=    0.0007 (will be added to EATOM!!)
   PAW_PBE Cu_pv 06Sep2000              :
 energy of atom  2       EATOM=-4120.1201
 kinetic energy error for atom=    0.0094 (will be added to EATOM!!)
   PAW_PBE Fe_pv 02Aug2007              :
 energy of atom  3       EATOM=-2457.4239
 kinetic energy error for atom=    0.0025 (will be added to EATOM!!)
 
 
 POSCAR: Fe16 Cu16 S32                           
  positions in direct lattice
  No initial velocities read in
 exchange correlation table for  LEXCH =       14
   RHO(1)=    0.500       N(1)  =     2000
   RHO(2)=  100.500       N(2)  =     4000
 


--------------------------------------------------------------------------------------------------------


 ion  position               nearest neighbor table
   1  0.126  0.123  0.125-  41 2.26  37 2.27  61 2.27  49 2.28
   2  0.626  0.123  0.125-  42 2.26  38 2.27  62 2.27  50 2.28
   3  0.126  0.623  0.125-  43 2.26  39 2.27  63 2.27  51 2.28
   4  0.626  0.623  0.125-  44 2.26  40 2.27  64 2.27  52 2.28
   5  0.374  0.373  0.125-  39 2.26  41 2.27  52 2.27  62 2.28
   6  0.874  0.373  0.125-  40 2.26  42 2.27  51 2.27  61 2.28
   7  0.374  0.873  0.125-  37 2.26  43 2.27  50 2.27  64 2.28
   8  0.874  0.873  0.125-  38 2.26  44 2.27  49 2.27  63 2.28
   9  0.125  0.372  0.875-  41 2.26  45 2.26  51 2.27  55 2.27
  10  0.625  0.372  0.875-  42 2.26  46 2.26  52 2.27  56 2.27
  11  0.125  0.872  0.875-  43 2.26  47 2.26  49 2.27  53 2.27
  12  0.625  0.872  0.875-  44 2.26  48 2.26  50 2.27  54 2.27
  13  0.375  0.125  0.875-  41 2.26  46 2.26  50 2.28  53 2.28
  14  0.875  0.125  0.875-  42 2.26  45 2.26  49 2.28  54 2.28
  15  0.375  0.625  0.875-  43 2.26  48 2.26  52 2.28  55 2.28
  16  0.875  0.625  0.875-  44 2.26  47 2.26  51 2.28  56 2.28
  17  0.124  0.123  0.625-  45 2.26  33 2.27  57 2.27  53 2.28
  18  0.624  0.123  0.625-  46 2.26  34 2.27  58 2.27  54 2.28
  19  0.124  0.623  0.625-  47 2.26  35 2.27  59 2.27  55 2.28
  20  0.624  0.623  0.625-  48 2.26  36 2.27  60 2.27  56 2.28
  21  0.376  0.373  0.625-  36 2.26  46 2.27  55 2.27  57 2.28
  22  0.876  0.373  0.625-  35 2.26  45 2.27  56 2.27  58 2.28
  23  0.376  0.873  0.625-  34 2.26  48 2.27  53 2.27  59 2.28
  24  0.876  0.873  0.625-  33 2.26  47 2.27  54 2.27  60 2.28
  25  0.375  0.122  0.375-  34 2.26  37 2.26  57 2.27  62 2.27
  26  0.875  0.122  0.375-  33 2.26  38 2.26  58 2.27  61 2.27
  27  0.375  0.622  0.375-  36 2.26  39 2.26  59 2.27  64 2.27
  28  0.875  0.622  0.375-  35 2.26  40 2.26  60 2.27  63 2.27
  29  0.125  0.375  0.375-  35 2.26  39 2.26  57 2.28  61 2.28
  30  0.625  0.375  0.375-  36 2.26  40 2.26  58 2.28  62 2.28
  31  0.125  0.875  0.375-  33 2.26  37 2.26  59 2.28  63 2.28
  32  0.625  0.875  0.375-  34 2.26  38 2.26  60 2.28  64 2.28
  33  0.999  0.002  0.500-  24 2.26  31 2.26  26 2.26  17 2.27
  34  0.499  0.002  0.500-  23 2.26  32 2.26  25 2.26  18 2.27
  35  0.999  0.502  0.500-  22 2.26  29 2.26  28 2.26  19 2.27
  36  0.499  0.502  0.500-  21 2.26  30 2.26  27 2.26  20 2.27
  37  0.251  0.002  0.250-   7 2.26  31 2.26  25 2.26   1 2.27
  38  0.751  0.002  0.250-   8 2.26  32 2.26  26 2.26   2 2.27
  39  0.251  0.502  0.250-   5 2.26  29 2.26  27 2.26   3 2.27
  40  0.751  0.502  0.250-   6 2.26  30 2.26  28 2.26   4 2.27
  41  0.249  0.252  0.000-   1 2.26  13 2.26   9 2.26   5 2.27
  42  0.749  0.252  0.000-   2 2.26  14 2.26  10 2.26   6 2.27
  43  0.249  0.752  0.000-   3 2.26  15 2.26  11 2.26   7 2.27
  44  0.749  0.752  0.000-   4 2.26  16 2.26  12 2.26   8 2.27
  45  0.001  0.252  0.750-  17 2.26  14 2.26   9 2.26  22 2.27
  46  0.501  0.252  0.750-  18 2.26  13 2.26  10 2.26  21 2.27
  47  0.001  0.752  0.750-  19 2.26  16 2.26  11 2.26  24 2.27
  48  0.501  0.752  0.750-  20 2.26  15 2.26  12 2.26  23 2.27
  49  1.000  0.002  0.000-   8 2.27  11 2.27  14 2.28   1 2.28
  50  0.500  0.002  0.000-   7 2.27  12 2.27  13 2.28   2 2.28
  51  1.000  0.502  0.000-   6 2.27   9 2.27  16 2.28   3 2.28
  52  0.500  0.502  0.000-   5 2.27  10 2.27  15 2.28   4 2.28
  53  0.250  0.002  0.750-  23 2.27  11 2.27  13 2.28  17 2.28
  54  0.750  0.002  0.750-  24 2.27  12 2.27  14 2.28  18 2.28
  55  0.250  0.502  0.750-  21 2.27   9 2.27  15 2.28  19 2.28
  56  0.750  0.502  0.750-  22 2.27  10 2.27  16 2.28  20 2.28
  57  0.250  0.252  0.500-  17 2.27  25 2.27  29 2.28  21 2.28
  58  0.750  0.252  0.500-  18 2.27  26 2.27  30 2.28  22 2.28
  59  0.250  0.752  0.500-  19 2.27  27 2.27  31 2.28  23 2.28
  60  0.750  0.752  0.500-  20 2.27  28 2.27  32 2.28  24 2.28
  61  0.000  0.252  0.250-   1 2.27  26 2.27  29 2.28   6 2.28
  62  0.500  0.252  0.250-   2 2.27  25 2.27  30 2.28   5 2.28
  63  0.000  0.752  0.250-   3 2.27  28 2.27  31 2.28   8 2.28
  64  0.500  0.752  0.250-   4 2.27  27 2.27  32 2.28   7 2.28
 
  LATTYP: Found a simple monoclinic cell.
 ALAT       =    15.0513534995
 B/A-ratio  =     0.6988291120
 C/A-ratio  =     1.5711727408
 COS(beta)  =    -0.9516127954
  
  Lattice vectors:
  
 A1 = ( -10.6943970000,   0.0000000000, -10.5911810000)
 A2 = (   0.0000000000, -10.5183240000,   0.0000000000)
 A3 = (  10.8760640000,   0.0000000000,  20.9988620000)


Analysis of symmetry for initial positions (statically):
=====================================================================
 Subroutine PRICEL returns following result:
 
  LATTYP: Found a base centered monoclinic cell.
 ALAT       =    11.4965643645
 B/A-ratio  =     0.4574550999
 C/A-ratio  =     0.9054240951
 COS(beta)  =    -0.8088503788
  
  Lattice vectors:
  
 A1 = (  -2.5373490000,  -2.6295810000,   5.1579655000)
 A2 = (  -2.5373490000,   2.6295810000,   5.1579655000)
 A3 = (  -0.1816670000,   0.0000000000, -10.4076810000)
 
   8 primitive cells build up your supercell.
 

 Routine SETGRP: Setting up the symmetry group for a 
 simple monoclinic supercell.


 Subroutine GETGRP returns: Found  2 space group operations
 (whereof  1 operations were pure point group operations)
 out of a pool of  4 trial point group operations.


The static configuration has the point symmetry C_1 .
 The point group associated with its full space group is C_2 .


Analysis of symmetry for dynamics (positions and initial velocities):
=====================================================================
 Subroutine PRICEL returns following result:
 
  LATTYP: Found a base centered monoclinic cell.
 ALAT       =    11.4965643645
 B/A-ratio  =     0.4574550999
 C/A-ratio  =     0.9054240951
 COS(beta)  =    -0.8088503788
  
  Lattice vectors:
  
 A1 = (  -2.5373490000,  -2.6295810000,   5.1579655000)
 A2 = (  -2.5373490000,   2.6295810000,   5.1579655000)
 A3 = (  -0.1816670000,   0.0000000000, -10.4076810000)
 
   8 primitive cells build up your supercell.
 

 Routine SETGRP: Setting up the symmetry group for a 
 simple monoclinic supercell.


 Subroutine GETGRP returns: Found  2 space group operations
 (whereof  1 operations were pure point group operations)
 out of a pool of  4 trial point group operations.


The dynamic configuration has the point symmetry C_1 .
 The point group associated with its full space group is C_2 .


Analysis of structural, dynamic, and magnetic symmetry:
=====================================================================
 Subroutine PRICEL returns following result:
 
  LATTYP: Found a base centered monoclinic cell.
 ALAT       =    11.4965643645
 B/A-ratio  =     0.4574550999
 C/A-ratio  =     0.9054240951
 COS(beta)  =    -0.8088503788
  
  Lattice vectors:
  
 A1 = (  -2.5373490000,  -2.6295810000,   5.1579655000)
 A2 = (  -2.5373490000,   2.6295810000,   5.1579655000)
 A3 = (  -0.1816670000,   0.0000000000, -10.4076810000)
 
   8 primitive cells build up your supercell.
 

 Routine SETGRP: Setting up the symmetry group for a 
 simple monoclinic supercell.


 Subroutine GETGRP returns: Found  2 space group operations
 (whereof  1 operations were pure point group operations)
 out of a pool of  4 trial point group operations.


The magnetic configuration has the point symmetry C_1 .
 The point group associated with its full space group is C_2 .


 Subroutine INISYM returns: Found  2 space group operations
 (whereof  1 operations are pure point group operations),
 and found     8 'primitive' translations

 
 
 KPOINTS: Automatic mesh                          

Automatic generation of k-mesh.
Space group operators:
 irot       det(A)        alpha          n_x          n_y          n_z        tau_x        tau_y        tau_z
    1     1.000000     0.000001     1.000000     0.000000     0.000000     0.000000     0.000000     0.000000
    2     1.000000   180.000000     0.000000     1.000000     0.000000    -0.250000     0.000000    -0.250000
 
 Subroutine IBZKPT returns following result:
 ===========================================
 
 Found      8 irreducible k-points:
 
 Following reciprocal coordinates:
            Coordinates               Weight
  0.000000  0.000000  0.000000      1.000000
  0.500000  0.000000  0.000000      1.000000
  0.000000  0.500000  0.000000      1.000000
  0.500000  0.500000  0.000000      1.000000
  0.000000  0.000000  0.500000      1.000000
  0.500000  0.000000  0.500000      1.000000
  0.000000  0.500000  0.500000      1.000000
  0.500000  0.500000  0.500000      1.000000
 
 Following cartesian coordinates:
            Coordinates               Weight
  0.000000  0.000000  0.000000      1.000000
  0.047576  0.000000 -0.000830      1.000000
  0.000000  0.047536  0.000000      1.000000
  0.047576  0.047536 -0.000830      1.000000
 -0.000839  0.000000  0.048056      1.000000
  0.046737  0.000000  0.047226      1.000000
 -0.000839  0.047536  0.048056      1.000000
  0.046737  0.047536  0.047226      1.000000
 
 TETIRR: Found     24 inequivalent tetrahedra from       48
 
 Subroutine IBZKPT_HF returns following result:
 ==============================================
 
 Found      8 k-points in 1st BZ
 the following      8 k-points will be used (e.g. in the exchange kernel)
 Following reciprocal coordinates:   # in IRBZ
  0.000000  0.000000  0.000000    0.12500000   1 t-inv F
  0.500000  0.000000  0.000000    0.12500000   2 t-inv F
  0.000000  0.500000  0.000000    0.12500000   3 t-inv F
  0.500000  0.500000  0.000000    0.12500000   4 t-inv F
  0.000000  0.000000  0.500000    0.12500000   5 t-inv F
  0.500000  0.000000  0.500000    0.12500000   6 t-inv F
  0.000000  0.500000  0.500000    0.12500000   7 t-inv F
  0.500000  0.500000  0.500000    0.12500000   8 t-inv F


--------------------------------------------------------------------------------------------------------




 Dimension of arrays:
   k-points           NKPTS =      8   k-points in BZ     NKDIM =      8   number of bands    NBANDS=    512
   number of dos      NEDOS =    301   number of ions     NIONS =     64
   non local maximal  LDIM  =      6   non local SUM 2l+1 LMDIM =     18
   total plane-waves  NPLWV = 829440
   max r-space proj   IRMAX =      1   max aug-charges    IRDMAX=  22910
   dimension x,y,z NGX =    96 NGY =   96 NGZ =   90
   dimension x,y,z NGXF=   192 NGYF=  192 NGZF=  180
   support grid    NGXF=   192 NGYF=  192 NGZF=  180
   ions per type =              32  16  16
   NGX,Y,Z   is equivalent  to a cutoff of  15.18, 15.17, 14.37 a.u.
   NGXF,Y,Z  is equivalent  to a cutoff of  30.36, 30.35, 28.75 a.u.

 SYSTEM =  CuFeS2                                  
 POSCAR =  Fe16 Cu16 S32                           

 Startparameter for this run:
   NWRITE =      2    write-flag & timer
   PREC   = accura    normal or accurate (medium, high low for compatibility)
   ISTART =      0    job   : 0-new  1-cont  2-samecut
   ICHARG =      1    charge: 1-file 2-atom 10-const
   ISPIN  =      2    spin polarized calculation?
   LNONCOLLINEAR =      F non collinear calculations
   LSORBIT =      F    spin-orbit coupling
   INIWAV =      1    electr: 0-lowe 1-rand  2-diag
   LASPH  =      F    aspherical Exc in radial PAW
   METAGGA=      F    non-selfconsistent MetaGGA calc.

 Electronic Relaxation 1
   ENCUT  =  700.0 eV  51.45 Ry    7.17 a.u.  22.68 22.69 22.46*2*pi/ulx,y,z
   ENINI  =  700.0     initial cutoff
   ENAUG  =  758.2 eV  augmentation charge cutoff
   NELM   =    500;   NELMIN=  2; NELMDL= -5     # of ELM steps 
   EDIFF  = 0.1E-07   stopping-criterion for ELM
   LREAL  =      F    real-space projection
   NLSPLINE    = F    spline interpolate recip. space projectors
   LCOMPAT=      F    compatible to vasp.4.4
   GGA_COMPAT  = T    GGA compatible to vasp.4.4-vasp.4.6
   LMAXPAW     = -100 max onsite density
   LMAXMIX     =    4 max onsite mixed and CHGCAR
   VOSKOWN=      0    Vosko Wilk Nusair interpolation
   ROPT   =    0.00000   0.00000   0.00000
 Ionic relaxation
   EDIFFG = -.1E-04   stopping-criterion for IOM
   NSW    =      0    number of steps for IOM
   NBLOCK =      1;   KBLOCK =      1    inner block; outer block 
   IBRION =     -1    ionic relax: 0-MD 1-quasi-New 2-CG
   NFREE  =      0    steps in history (QN), initial steepest desc. (CG)
   ISIF   =      2    stress and relaxation
   IWAVPR =     10    prediction:  0-non 1-charg 2-wave 3-comb
   ISYM   =      2    0-nonsym 1-usesym 2-fastsym
   LCORR  =      T    Harris-Foulkes like correction to forces

   POTIM  = 0.5000    time-step for ionic-motion
   TEIN   =    0.0    initial temperature
   TEBEG  =    0.0;   TEEND  =   0.0 temperature during run
   SMASS  =  -3.00    Nose mass-parameter (am)
   estimated Nose-frequenzy (Omega)   =  0.10E-29 period in steps =****** mass=  -0.253E-26a.u.
   SCALEE = 1.0000    scale energy and forces
   NPACO  =    256;   APACO  = 16.0  distance and # of slots for P.C.
   PSTRESS=    0.0 pullay stress

  Mass of Ions in am
   POMASS =  32.07 63.55 55.85
  Ionic Valenz
   ZVAL   =   6.00 17.00 14.00
  Atomic Wigner-Seitz radii
   RWIGS  =  -1.00 -1.00 -1.00
  virtual crystal weights 
   VCA    =   1.00  1.00  1.00
   NELECT =     688.0000    total number of electrons
   NUPDOWN=      -1.0000    fix difference up-down

 DOS related values:
   EMIN   =  10.00;   EMAX   =-10.00  energy-range for DOS
   EFERMI =   0.00
   ISMEAR =    -5;   SIGMA  =   0.03  broadening in eV -4-tet -1-fermi 0-gaus

 Electronic relaxation 2 (details)
   IALGO  =     38    algorithm
   LDIAG  =      T    sub-space diagonalisation (order eigenvalues)
   LSUBROT=      F    optimize rotation matrix (better conditioning)
   TURBO    =      0    0=normal 1=particle mesh
   IRESTART =      0    0=no restart 2=restart with 2 vectors
   NREBOOT  =      0    no. of reboots
   NMIN     =      0    reboot dimension
   EREF     =   0.00    reference energy to select bands
   IMIX   =      4    mixing-type and parameters
     AMIX     =   0.40;   BMIX     =  1.00
     AMIX_MAG =   1.60;   BMIX_MAG =  1.00
     AMIN     =   0.10
     WC   =   100.;   INIMIX=   1;  MIXPRE=   1;  MAXMIX= -45

 Intra band minimization:
   WEIMIN = 0.0000     energy-eigenvalue tresh-hold
   EBREAK =  0.49E-11  absolut break condition
   DEPER  =   0.30     relativ break condition  

   TIME   =   0.40     timestep for ELM

  volume/ion in A,a.u.               =      17.98       121.31
  Fermi-wavevector in a.u.,A,eV,Ry     =   1.379250  2.606405 25.882789  1.902331
  Thomas-Fermi vector in A             =   2.504237
 
 Write flags
   LWAVE        =      T    write WAVECAR
   LDOWNSAMPLE  =      F    k-point downsampling of WAVECAR
   LCHARG       =      T    write CHGCAR
   LVTOT        =      F    write LOCPOT, total local potential
   LVHAR        =      F    write LOCPOT, Hartree potential only
   LELF         =      F    write electronic localiz. function (ELF)
   LORBIT       =     11    0 simple, 1 ext, 2 COOP (PROOUT), +10 PAW based schemes


 Dipole corrections
   LMONO  =      F    monopole corrections only (constant potential shift)
   LDIPOL =      F    correct potential (dipole corrections)
   IDIPOL =      0    1-x, 2-y, 3-z, 4-all directions 
   EPSILON=  1.0000000 bulk dielectric constant

 LDA+U is selected, type is set to LDAUTYPE =  2
   angular momentum for each species LDAUL =     2    2    2
   U (eV)           for each species LDAUU =   0.0  0.1  4.7
   J (eV)           for each species LDAUJ =   0.0  0.0  0.0
 Exchange correlation treatment:
   GGA     =    PS    GGA type
   LEXCH   =    14    internal setting for exchange type
   VOSKOWN=      0    Vosko Wilk Nusair interpolation
   LHFCALC =     F    Hartree Fock is set to
   LHFONE  =     F    Hartree Fock one center treatment
   AEXX    =    0.0000 exact exchange contribution

 Linear response parameters
   LEPSILON=     F    determine dielectric tensor
   LRPA    =     F    only Hartree local field effects (RPA)
   LNABLA  =     F    use nabla operator in PAW spheres
   LVEL    =     F    velocity operator in full k-point grid
   LINTERFAST=   F  fast interpolation
   KINTER  =     0    interpolate to denser k-point grid
   CSHIFT  =0.1000    complex shift for real part using Kramers Kronig
   OMEGAMAX=  -1.0    maximum frequency
   DEG_THRESHOLD= 0.2000000E-02 threshold for treating states as degnerate
   RTIME   =   -0.100 relaxation time in fs
  (WPLASMAI=    0.000 imaginary part of plasma frequency in eV, 0.658/RTIME)
   DFIELD  = 0.0000000 0.0000000 0.0000000 field for delta impulse in time
 
 Orbital magnetization related:
   ORBITALMAG=     F  switch on orbital magnetization
   LCHIMAG   =     F  perturbation theory with respect to B field
   DQ        =  0.001000  dq finite difference perturbation B field
   LLRAUG    =     F  two centre corrections for induced B field

 PEAD related settings:
   LPEAD      =     T    switch on PEAD
   IPEAD      =     4    finite difference order for dpsi/dk
   LCALCPOL   =     T    calculate macroscopic polarization
   LCALCEPS   =     F    calculate dielectric tensor
   EFIELD_PEAD=    0.0000    0.0000    0.0000
   SKIP_EDOTP =     F
   LRPA       =     F
   SKIP_SCF   =     F


--------------------------------------------------------------------------------------------------------


 Static calculation
 charge density and potential will be updated during run
 spin polarized calculation
 Variant of blocked Davidson
 Davidson routine will perform the subspace rotation
 perform sub-space diagonalisation
    after iterative eigenvector-optimisation
 modified Broyden-mixing scheme, WC =      100.0
 initial mixing is a Kerker type mixing with AMIX =  0.4000 and BMIX =      1.0000
 Hartree-type preconditioning will be used
 using additional bands          168
 reciprocal scheme for non local part
 use partial core corrections
 calculate Harris-corrections to forces 
   (improved forces if not selfconsistent)
 use gradient corrections 
 use of overlap-Matrix (Vanderbilt PP)
 Fermi weights with tetrahedron method with Bloechl corrections


--------------------------------------------------------------------------------------------------------


  energy-cutoff  :      700.00
  volume of cell :     1150.49
      direct lattice vectors                 reciprocal lattice vectors
    10.512730000  0.000000000  0.183500000     0.095151761  0.000000000 -0.001660882
     0.000000000 10.518324000  0.000000000     0.000000000  0.095072181  0.000000000
     0.181667000  0.000000000 10.407681000    -0.001677641  0.000000000  0.096112167

  length of vectors
    10.514331377 10.518324000 10.409266386     0.095166255  0.095072181  0.096126807


 
 k-points in units of 2pi/SCALE and weight: Automatic mesh                          
   0.00000000  0.00000000  0.00000000       0.125
   0.04757588  0.00000000 -0.00083044       0.125
   0.00000000  0.04753609  0.00000000       0.125
   0.04757588  0.04753609 -0.00083044       0.125
  -0.00083882  0.00000000  0.04805608       0.125
   0.04673706  0.00000000  0.04722564       0.125
  -0.00083882  0.04753609  0.04805608       0.125
   0.04673706  0.04753609  0.04722564       0.125
 
 k-points in reciprocal lattice and weights: Automatic mesh                          
   0.00000000  0.00000000  0.00000000       0.125
   0.50000000  0.00000000  0.00000000       0.125
   0.00000000  0.50000000  0.00000000       0.125
   0.50000000  0.50000000  0.00000000       0.125
   0.00000000  0.00000000  0.50000000       0.125
   0.50000000  0.00000000  0.50000000       0.125
   0.00000000  0.50000000  0.50000000       0.125
   0.50000000  0.50000000  0.50000000       0.125
 
 position of ions in fractional coordinates (direct lattice) 
   0.12620500  0.12282500  0.12531600
   0.62620500  0.12282500  0.12531600
   0.12620500  0.62282500  0.12531600
   0.62620500  0.62282500  0.12531600
   0.37379500  0.37282500  0.12468400
   0.87379500  0.37282500  0.12468400
   0.37379500  0.87282500  0.12468400
   0.87379500  0.87282500  0.12468400
   0.12500000  0.37237300  0.87500000
   0.62500000  0.37237300  0.87500000
   0.12500000  0.87237300  0.87500000
   0.62500000  0.87237300  0.87500000
   0.37500000  0.12454900  0.87500000
   0.87500000  0.12454900  0.87500000
   0.37500000  0.62454900  0.87500000
   0.87500000  0.62454900  0.87500000
   0.12379500  0.12282500  0.62468400
   0.62379500  0.12282500  0.62468400
   0.12379500  0.62282500  0.62468400
   0.62379500  0.62282500  0.62468400
   0.37620500  0.37282500  0.62531600
   0.87620500  0.37282500  0.62531600
   0.37620500  0.87282500  0.62531600
   0.87620500  0.87282500  0.62531600
   0.37500000  0.12237300  0.37500000
   0.87500000  0.12237300  0.37500000
   0.37500000  0.62237300  0.37500000
   0.87500000  0.62237300  0.37500000
   0.12500000  0.37454900  0.37500000
   0.62500000  0.37454900  0.37500000
   0.12500000  0.87454900  0.37500000
   0.62500000  0.87454900  0.37500000
   0.99935800  0.00191800  0.50000500
   0.49935800  0.00191800  0.50000500
   0.99935800  0.50191800  0.50000500
   0.49935800  0.50191800  0.50000500
   0.25064200  0.00191800  0.24999500
   0.75064200  0.00191800  0.24999500
   0.25064200  0.50191800  0.24999500
   0.75064200  0.50191800  0.24999500
   0.24935800  0.25191800  0.00000500
   0.74935800  0.25191800  0.00000500
   0.24935800  0.75191800  0.00000500
   0.74935800  0.75191800  0.00000500
   0.00064200  0.25191800  0.74999500
   0.50064200  0.25191800  0.74999500
   0.00064200  0.75191800  0.74999500
   0.50064200  0.75191800  0.74999500
   0.99964800  0.00179600  0.00012600
   0.49964800  0.00179600  0.00012600
   0.99964800  0.50179600  0.00012600
   0.49964800  0.50179600  0.00012600
   0.25035200  0.00179600  0.74987400
   0.75035200  0.00179600  0.74987400
   0.25035200  0.50179600  0.74987400
   0.75035200  0.50179600  0.74987400
   0.24964800  0.25179600  0.50012600
   0.74964800  0.25179600  0.50012600
   0.24964800  0.75179600  0.50012600
   0.74964800  0.75179600  0.50012600
   0.00035200  0.25179600  0.24987400
   0.50035200  0.25179600  0.24987400
   0.00035200  0.75179600  0.24987400
   0.50035200  0.75179600  0.24987400
 
 position of ions in cartesian coordinates  (Angst):
   1.34952487  1.29191315  1.32740757
   6.60588987  1.29191315  1.41915757
   1.34952487  6.55107515  1.32740757
   6.60588987  6.55107515  1.41915757
   3.95225688  3.92149415  1.36626268
   9.20862188  3.92149415  1.45801268
   3.95225688  9.18065615  1.36626268
   9.20862188  9.18065615  1.45801268
   1.47304987  3.91673986  9.12965837
   6.72941487  3.91673986  9.22140838
   1.47304987  9.17590186  9.12965837
   6.72941487  9.17590186  9.22140838
   4.10123238  1.31004674  9.17553338
   9.35759737  1.31004674  9.26728337
   4.10123238  6.56920874  9.17553338
   9.35759737  6.56920874  9.26728337
   1.41490788  1.29191315  6.52422818
   6.67127288  1.29191315  6.61597818
   1.41490788  6.55107515  6.52422818
   6.67127288  6.55107515  6.61597818
   4.06854087  3.92149415  6.57712307
   9.32490587  3.92149415  6.66887307
   4.06854087  9.18065615  6.57712307
   9.32490587  9.18065615  6.66887307
   4.01039887  1.28715886  3.97169288
   9.26676387  1.28715886  4.06344287
   4.01039887  6.54632086  3.97169288
   9.26676387  6.54632086  4.06344287
   1.38221637  3.93962774  3.92581787
   6.63858137  3.93962774  4.01756788
   1.38221637  9.19878974  3.92581787
   6.63858137  9.19878974  4.01756788
  10.59681524  0.02017415  5.38727473
   5.34045024  0.02017415  5.29552473
  10.59681524  5.27933615  5.38727473
   5.34045024  5.27933615  5.29552473
   2.68034751  0.02017415  2.64786102
   7.93671251  0.02017415  2.73961102
   2.68034751  5.27933615  2.64786102
   7.93671251  5.27933615  2.73961102
   2.62143424  2.64975515  0.04580923
   7.87779924  2.64975515  0.13755923
   2.62143424  7.90891715  0.04580923
   7.87779924  7.90891715  0.13755923
   0.14299851  2.64975515  7.80582652
   5.39936351  2.64975515  7.89757652
   0.14299851  7.90891715  7.80582652
   5.39936351  7.90891715  7.89757652
  10.50905241  0.01889091  0.18474678
   5.25268741  0.01889091  0.09299678
  10.50905241  5.27805291  0.18474678
   5.25268741  5.27805291  0.09299678
   2.76811034  0.01889091  7.85038897
   8.02447534  0.01889091  7.94213897
   2.76811034  5.27805291  7.85038897
   8.02447534  5.27805291  7.94213897
   2.71533841  2.64847191  5.25096228
   7.97170341  2.64847191  5.34271228
   2.71533841  7.90763391  5.25096228
   7.97170341  7.90763391  5.34271228
   0.04909434  2.64847191  2.60067347
   5.30545934  2.64847191  2.69242347
   0.04909434  7.90763391  2.60067347
   5.30545934  7.90763391  2.69242347
 


--------------------------------------------------------------------------------------------------------


 k-point  1 :   0.0000 0.0000 0.0000  plane waves:   48439
 k-point  2 :   0.5000 0.0000 0.0000  plane waves:   48418
 k-point  3 :   0.0000 0.5000 0.0000  plane waves:   48434
 k-point  4 :   0.5000 0.5000 0.0000  plane waves:   48396
 k-point  5 :   0.0000 0.0000 0.5000  plane waves:   48368
 k-point  6 :   0.5000 0.0000 0.5000  plane waves:   48390
 k-point  7 :   0.0000 0.5000 0.5000  plane waves:   48320
 k-point  8 :   0.5000 0.5000 0.5000  plane waves:   48312

 maximum and minimum number of plane-waves per node :     48439    48312

 maximum number of plane-waves:     48439
 maximum index in each direction: 
   IXMAX=   22   IYMAX=   22   IZMAX=   22
   IXMIN=  -23   IYMIN=  -23   IZMIN=  -22


 serial   3D FFT for wavefunctions
 parallel 3D FFT for charge:
    minimum data exchange during FFTs selected (reduces bandwidth)


 total amount of memory used by VASP MPI-rank0   349631. kBytes
=======================================================================

   base      :      30000. kBytes
   nonl-proj :     217907. kBytes
   fftplans  :       4588. kBytes
   grid      :      69719. kBytes
   one-center:       1990. kBytes
   wavefun   :      25427. kBytes
 
     INWAV:  cpu time    0.0001: real time    0.0002
 Broyden mixing: mesh for mixing (old mesh)
   NGX = 45   NGY = 45   NGZ = 45
  (NGX  =192   NGY  =192   NGZ  =180)
  gives a total of  91125 points

 initial charge density was supplied:
 number of electron     688.0000190 magnetization       0.0000000
 keeping initial charge density in first step


--------------------------------------------------------------------------------------------------------


 Maximum index for augmentation-charges          896 (set IRDMAX)


--------------------------------------------------------------------------------------------------------


 First call to EWALD:  gamma=   0.169
 Maximum number of real-space cells 3x 3x 3
 Maximum number of reciprocal cells 3x 3x 3

    FEWALD:  cpu time    0.0027: real time    0.0031


--------------------------------------- Iteration      1(   1)  ---------------------------------------


    POTLOK:  cpu time    0.3272: real time    0.3742
    SETDIJ:  cpu time    0.0188: real time    0.0191
     EDDAV:  cpu time   86.1731: real time   86.8777
 BZINTS: Fermi energy: 14.887944;688.000000 electrons
         Band energy:***********;  BLOECHL correction: -0.012347
       DOS:  cpu time    0.0410: real time    0.0412
    --------------------------------------------
      LOOP:  cpu time   86.5602: real time   87.3121

 eigenvalue-minimisations  : 16384
 total energy-change (2. order) : 0.6044521E+04  (-0.5161404E+05)
 number of electron     688.0000190 magnetization       0.0000000
 augmentation part      688.0000190 magnetization       0.0000000

 Free energy of the ion-electron system (eV)
  ---------------------------------------------------
  alpha Z        PSCENC =      2356.51358093
  Ewald energy   TEWEN  =    -62475.72461891
  -Hartree energ DENC   =    -42908.31099865
  -exchange      EXHF   =         0.00000000
  -V(xc)+E(xc)   XCENC  =      3285.20408375
  PAW double counting   =    112224.67741066  -115917.87443654
  entropy T*S    EENTRO =         0.00000000
  eigenvalues    EBANDS =     -4540.02879314
  atomic energy  EATOM  =    114020.06510763
  Solvation  Ediel_sol  =         0.00000000
  ---------------------------------------------------
  free energy    TOTEN  =      6044.52133573 eV

  energy without entropy =     6044.52133573  energy(sigma->0) =     6044.52133573


--------------------------------------------------------------------------------------------------------




--------------------------------------- Iteration      1(   2)  ---------------------------------------


     EDDAV:  cpu time  110.7611: real time  111.5900
 BZINTS: Fermi energy:  5.228304;688.000000 electrons
         Band energy:***********;  BLOECHL correction:  0.000000
       DOS:  cpu time    0.0058: real time    0.0058
    --------------------------------------------
      LOOP:  cpu time  110.7669: real time  111.5959

 eigenvalue-minimisations  : 19456
 total energy-change (2. order) :-0.6140447E+04  (-0.6030711E+04)
 number of electron     688.0000190 magnetization       0.0000000
 augmentation part      688.0000190 magnetization       0.0000000

 Free energy of the ion-electron system (eV)
  ---------------------------------------------------
  alpha Z        PSCENC =      2356.51358093
  Ewald energy   TEWEN  =    -62475.72461891
  -Hartree energ DENC   =    -42908.31099865
  -exchange      EXHF   =         0.00000000
  -V(xc)+E(xc)   XCENC  =      3285.20408375
  PAW double counting   =    112224.67741066  -115917.87443654
  entropy T*S    EENTRO =         0.00000000
  eigenvalues    EBANDS =    -10680.47549297
  atomic energy  EATOM  =    114020.06510763
  Solvation  Ediel_sol  =         0.00000000
  ---------------------------------------------------
  free energy    TOTEN  =       -95.92536410 eV

  energy without entropy =      -95.92536410  energy(sigma->0) =      -95.92536410


--------------------------------------------------------------------------------------------------------




--------------------------------------- Iteration      1(   3)  ---------------------------------------


     EDDAV:  cpu time  133.7280: real time  134.6797
 BZINTS: Fermi energy:  4.887223;688.000000 electrons
         Band energy:***********;  BLOECHL correction:  0.000000
       DOS:  cpu time    0.0066: real time    0.0066
    --------------------------------------------
      LOOP:  cpu time  133.7346: real time  134.6863

 eigenvalue-minimisations  : 21248
 total energy-change (2. order) :-0.2341734E+03  (-0.2335820E+03)
 number of electron     688.0000190 magnetization       0.0000000
 augmentation part      688.0000190 magnetization       0.0000000

 Free energy of the ion-electron system (eV)
  ---------------------------------------------------
  alpha Z        PSCENC =      2356.51358093
  Ewald energy   TEWEN  =    -62475.72461891
  -Hartree energ DENC   =    -42908.31099865
  -exchange      EXHF   =         0.00000000
  -V(xc)+E(xc)   XCENC  =      3285.20408375
  PAW double counting   =    112224.67741066  -115917.87443654
  entropy T*S    EENTRO =         0.00000000
  eigenvalues    EBANDS =    -10914.64893571
  atomic energy  EATOM  =    114020.06510763
  Solvation  Ediel_sol  =         0.00000000
  ---------------------------------------------------
  free energy    TOTEN  =      -330.09880684 eV

  energy without entropy =     -330.09880684  energy(sigma->0) =     -330.09880684


--------------------------------------------------------------------------------------------------------




--------------------------------------- Iteration      1(   4)  ---------------------------------------


     EDDAV:  cpu time  149.1923: real time  150.2254
 BZINTS: Fermi energy:  4.822124;688.000000 electrons
         Band energy:***********;  BLOECHL correction:  0.000000
       DOS:  cpu time    0.0057: real time    0.0057
    --------------------------------------------
      LOOP:  cpu time  149.1980: real time  150.2311

 eigenvalue-minimisations  : 22016
 total energy-change (2. order) :-0.3303328E+01  (-0.3303195E+01)
 number of electron     688.0000190 magnetization       0.0000000
 augmentation part      688.0000190 magnetization       0.0000000

 Free energy of the ion-electron system (eV)
  ---------------------------------------------------
  alpha Z        PSCENC =      2356.51358093
  Ewald energy   TEWEN  =    -62475.72461891
  -Hartree energ DENC   =    -42908.31099865
  -exchange      EXHF   =         0.00000000
  -V(xc)+E(xc)   XCENC  =      3285.20408375
  PAW double counting   =    112224.67741066  -115917.87443654
  entropy T*S    EENTRO =         0.00000000
  eigenvalues    EBANDS =    -10917.95226343
  atomic energy  EATOM  =    114020.06510763
  Solvation  Ediel_sol  =         0.00000000
  ---------------------------------------------------
  free energy    TOTEN  =      -333.40213456 eV

  energy without entropy =     -333.40213456  energy(sigma->0) =     -333.40213456


--------------------------------------------------------------------------------------------------------




--------------------------------------- Iteration      1(   5)  ---------------------------------------


     EDDAV:  cpu time  124.3132: real time  125.2037
 BZINTS: Fermi energy:  5.006129;688.000000 electrons
         Band energy:***********;  BLOECHL correction:  0.000000
       DOS:  cpu time    0.0065: real time    0.0065
    CHARGE:  cpu time    1.3969: real time    1.4071
    MIXING:  cpu time    0.0024: real time    0.0024
    --------------------------------------------
      LOOP:  cpu time  125.7190: real time  126.6197

 eigenvalue-minimisations  : 19968
 total energy-change (2. order) :-0.1049063E+00  (-0.1049061E+00)
 number of electron     688.0000278 magnetization       0.0000000
 augmentation part      282.8358962 magnetization       0.0000000

 Broyden mixing:
  rms(total) = 0.17764E+01    rms(broyden)= 0.17761E+01
  rms(prec ) = 0.19963E+01
  weight for this iteration     100.00

 Free energy of the ion-electron system (eV)
  ---------------------------------------------------
  alpha Z        PSCENC =      2356.51358093
  Ewald energy   TEWEN  =    -62475.72461891
  -Hartree energ DENC   =    -42908.31099865
  -exchange      EXHF   =         0.00000000
  -V(xc)+E(xc)   XCENC  =      3285.20408375
  PAW double counting   =    112224.67741066  -115917.87443654
  entropy T*S    EENTRO =         0.00000000
  eigenvalues    EBANDS =    -10918.05716975
  atomic energy  EATOM  =    114020.06510763
  Solvation  Ediel_sol  =         0.00000000
  ---------------------------------------------------
  free energy    TOTEN  =      -333.50704089 eV

  energy without entropy =     -333.50704089  energy(sigma->0) =     -333.50704089


--------------------------------------------------------------------------------------------------------




--------------------------------------- Iteration      1(   6)  ---------------------------------------


    POTLOK:  cpu time    0.1212: real time    0.1221
    SETDIJ:  cpu time    0.0128: real time    0.0129
     EDDAV:  cpu time  192.7628: real time  194.0617
 BZINTS: Fermi energy:  5.018209;688.000000 electrons
         Band energy:***********;  BLOECHL correction:  0.000000
       DOS:  cpu time    0.0065: real time    0.0065
    CHARGE:  cpu time    1.3826: real time    1.3926
    MIXING:  cpu time    0.0021: real time    0.0056
    --------------------------------------------
      LOOP:  cpu time  194.2881: real time  195.6014

 eigenvalue-minimisations  : 27136
 total energy-change (2. order) : 0.4164093E+01  (-0.3430763E+00)
 number of electron     688.0000278 magnetization       0.0000000
 augmentation part      281.8179896 magnetization       0.0000000

 Broyden mixing:
  rms(total) = 0.94712E+00    rms(broyden)= 0.94710E+00
  rms(prec ) = 0.10628E+01
  weight for this iteration     100.00

 eigenvalues of (default mixing * dielectric matrix)
  average eigenvalue GAMMA=   0.9078
  0.9078

 Free energy of the ion-electron system (eV)
  ---------------------------------------------------
  alpha Z        PSCENC =      2356.51358093
  Ewald energy   TEWEN  =    -62475.72461891
  -Hartree energ DENC   =    -42967.55126092
  -exchange      EXHF   =         0.00000000
  -V(xc)+E(xc)   XCENC  =      3286.80930148
  PAW double counting   =    112711.60334452  -116412.17743192
  entropy T*S    EENTRO =         0.00000000
  eigenvalues    EBANDS =    -10848.88097099
  atomic energy  EATOM  =    114020.06510763
  Solvation  Ediel_sol  =         0.00000000
  ---------------------------------------------------
  free energy    TOTEN  =      -329.34294819 eV

  energy without entropy =     -329.34294819  energy(sigma->0) =     -329.34294819


--------------------------------------------------------------------------------------------------------




--------------------------------------- Iteration      1(   7)  ---------------------------------------


    POTLOK:  cpu time    0.1224: real time    0.1232
    SETDIJ:  cpu time    0.0127: real time    0.0128
     EDDAV:  cpu time  141.1352: real time  142.1328
 BZINTS: Fermi energy:  5.004370;688.000000 electrons
         Band energy:***********;  BLOECHL correction:  0.000000
       DOS:  cpu time    0.0062: real time    0.0063
    CHARGE:  cpu time    1.3848: real time    1.3948
    MIXING:  cpu time    0.0014: real time    0.0028
    --------------------------------------------
      LOOP:  cpu time  142.6627: real time  143.6726

 eigenvalue-minimisations  : 22016
 total energy-change (2. order) : 0.1257945E+01  (-0.2677653E+00)
 number of electron     688.0000279 magnetization       0.0000000
 augmentation part      282.6217502 magnetization       0.0000000

 Broyden mixing:
  rms(total) = 0.59307E+00    rms(broyden)= 0.59306E+00
  rms(prec ) = 0.62099E+00
  weight for this iteration     100.00

 eigenvalues of (default mixing * dielectric matrix)
  average eigenvalue GAMMA=   1.0569
  1.5368  0.5770

 Free energy of the ion-electron system (eV)
  ---------------------------------------------------
  alpha Z        PSCENC =      2356.51358093
  Ewald energy   TEWEN  =    -62475.72461891
  -Hartree energ DENC   =    -42921.75135831
  -exchange      EXHF   =         0.00000000
  -V(xc)+E(xc)   XCENC  =      3286.00788520
  PAW double counting   =    112560.54793688  -116250.27209863
  entropy T*S    EENTRO =         0.00000000
  eigenvalues    EBANDS =    -10903.47143789
  atomic energy  EATOM  =    114020.06510763
  Solvation  Ediel_sol  =         0.00000000
  ---------------------------------------------------
  free energy    TOTEN  =      -328.08500310 eV

  energy without entropy =     -328.08500310  energy(sigma->0) =     -328.08500310


--------------------------------------------------------------------------------------------------------




--------------------------------------- Iteration      1(   8)  ---------------------------------------


    POTLOK:  cpu time    0.1213: real time    0.1222
    SETDIJ:  cpu time    0.0126: real time    0.0127
     EDDAV:  cpu time  164.4342: real time  165.5558
 BZINTS: Fermi energy:  5.002574;688.000000 electrons
         Band energy:***********;  BLOECHL correction:  0.000000
       DOS:  cpu time    0.0062: real time    0.0063
    CHARGE:  cpu time    1.3850: real time    1.3952
    MIXING:  cpu time    0.0013: real time    0.0013
    --------------------------------------------
      LOOP:  cpu time  165.9607: real time  167.0936

 eigenvalue-minimisations  : 23808
 total energy-change (2. order) : 0.1007542E+00  (-0.6752270E-01)
 number of electron     688.0000279 magnetization       0.0000000
 augmentation part      282.3363606 magnetization       0.0000000

 Broyden mixing:
  rms(total) = 0.23942E+00    rms(broyden)= 0.23942E+00
  rms(prec ) = 0.24910E+00
  weight for this iteration     100.00

 eigenvalues of (default mixing * dielectric matrix)
  average eigenvalue GAMMA=   1.0502
  1.9010  0.6980  0.5517

 Free energy of the ion-electron system (eV)
  ---------------------------------------------------
  alpha Z        PSCENC =      2356.51358093
  Ewald energy   TEWEN  =    -62475.72461891
  -Hartree energ DENC   =    -42945.63571889
  -exchange      EXHF   =         0.00000000
  -V(xc)+E(xc)   XCENC  =      3286.54034985
  PAW double counting   =    112466.76543245  -116160.87272181
  entropy T*S    EENTRO =         0.00000000
  eigenvalues    EBANDS =    -10875.63566014
  atomic energy  EATOM  =    114020.06510763
  Solvation  Ediel_sol  =         0.00000000
  ---------------------------------------------------
  free energy    TOTEN  =      -327.98424890 eV

  energy without entropy =     -327.98424890  energy(sigma->0) =     -327.98424890


--------------------------------------------------------------------------------------------------------




--------------------------------------- Iteration      1(   9)  ---------------------------------------


    POTLOK:  cpu time    0.1214: real time    0.1222
    SETDIJ:  cpu time    0.0127: real time    0.0128
     EDDAV:  cpu time  140.4752: real time  141.4475
 BZINTS: Fermi energy:  4.981190;688.000000 electrons
         Band energy:***********;  BLOECHL correction:  0.000000
       DOS:  cpu time    0.0063: real time    0.0064
    CHARGE:  cpu time    1.3843: real time    1.3947
    MIXING:  cpu time    0.0015: real time    0.0024
    --------------------------------------------
      LOOP:  cpu time  142.0015: real time  142.9860

 eigenvalue-minimisations  : 21248
 total energy-change (2. order) :-0.1733386E-02  (-0.1324272E-01)
 number of electron     688.0000279 magnetization       0.0000000
 augmentation part      282.1585401 magnetization       0.0000000

 Broyden mixing:
  rms(total) = 0.14945E+00    rms(broyden)= 0.14945E+00
  rms(prec ) = 0.16061E+00
  weight for this iteration     100.00

 eigenvalues of (default mixing * dielectric matrix)
  average eigenvalue GAMMA=   1.0035
  1.9264  0.8038  0.6420  0.6420

 Free energy of the ion-electron system (eV)
  ---------------------------------------------------
  alpha Z        PSCENC =      2356.51358093
  Ewald energy   TEWEN  =    -62475.72461891
  -Hartree energ DENC   =    -42950.54360838
  -exchange      EXHF   =         0.00000000
  -V(xc)+E(xc)   XCENC  =      3286.48106611
  PAW double counting   =    112448.33589065  -116142.88321970
  entropy T*S    EENTRO =         0.00000000
  eigenvalues    EBANDS =    -10870.23018061
  atomic energy  EATOM  =    114020.06510763
  Solvation  Ediel_sol  =         0.00000000
  ---------------------------------------------------
  free energy    TOTEN  =      -327.98598229 eV

  energy without entropy =     -327.98598229  energy(sigma->0) =     -327.98598229


--------------------------------------------------------------------------------------------------------




--------------------------------------- Iteration      1(  10)  ---------------------------------------


    POTLOK:  cpu time    0.1199: real time    0.1226
    SETDIJ:  cpu time    0.0130: real time    0.0131
     EDDAV:  cpu time  153.6591: real time  154.7166
 BZINTS: Fermi energy:  4.979371;688.000000 electrons
         Band energy:***********;  BLOECHL correction:  0.000000
       DOS:  cpu time    0.0064: real time    0.0064
    CHARGE:  cpu time    1.3826: real time    1.3925
    MIXING:  cpu time    0.0014: real time    0.0014
    --------------------------------------------
      LOOP:  cpu time  155.1824: real time  156.2525

 eigenvalue-minimisations  : 22272
 total energy-change (2. order) :-0.5858340E-02  (-0.1437812E-01)
 number of electron     688.0000279 magnetization       0.0000000
 augmentation part      282.2231201 magnetization       0.0000000

 Broyden mixing:
  rms(total) = 0.13746E+00    rms(broyden)= 0.13746E+00
  rms(prec ) = 0.15423E+00
  weight for this iteration     100.00

 eigenvalues of (default mixing * dielectric matrix)
  average eigenvalue GAMMA=   1.0160
  1.7300  1.7300  0.6874  0.4663  0.4663

 Free energy of the ion-electron system (eV)
  ---------------------------------------------------
  alpha Z        PSCENC =      2356.51358093
  Ewald energy   TEWEN  =    -62475.72461891
  -Hartree energ DENC   =    -42951.44838858
  -exchange      EXHF   =         0.00000000
  -V(xc)+E(xc)   XCENC  =      3286.66315815
  PAW double counting   =    112396.21835962  -116090.16015981
  entropy T*S    EENTRO =         0.00000000
  eigenvalues    EBANDS =    -10870.11887965
  atomic energy  EATOM  =    114020.06510763
  Solvation  Ediel_sol  =         0.00000000
  ---------------------------------------------------
  free energy    TOTEN  =      -327.99184063 eV

  energy without entropy =     -327.99184063  energy(sigma->0) =     -327.99184063


--------------------------------------------------------------------------------------------------------




--------------------------------------- Iteration      1(  11)  ---------------------------------------


    POTLOK:  cpu time    0.1215: real time    0.1224
    SETDIJ:  cpu time    0.0127: real time    0.0127
     EDDAV:  cpu time  129.3884: real time  130.3137
 BZINTS: Fermi energy:  4.968391;688.000000 electrons
         Band energy:***********;  BLOECHL correction:  0.000000
       DOS:  cpu time    0.0064: real time    0.0064
    CHARGE:  cpu time    1.3842: real time    1.3943
    MIXING:  cpu time    0.0014: real time    0.0014
    --------------------------------------------
      LOOP:  cpu time  130.9144: real time  131.8510

 eigenvalue-minimisations  : 20224
 total energy-change (2. order) : 0.8490544E-03  (-0.9640022E-02)
 number of electron     688.0000279 magnetization       0.0000000
 augmentation part      282.2453176 magnetization       0.0000000

 Broyden mixing:
  rms(total) = 0.56626E-01    rms(broyden)= 0.56622E-01
  rms(prec ) = 0.62541E-01
  weight for this iteration     100.00

 eigenvalues of (default mixing * dielectric matrix)
  average eigenvalue GAMMA=   1.1400
  2.1651  2.1651  0.9043  0.6496  0.6146  0.3413

 Free energy of the ion-electron system (eV)
  ---------------------------------------------------
  alpha Z        PSCENC =      2356.51358093
  Ewald energy   TEWEN  =    -62475.72461891
  -Hartree energ DENC   =    -42946.15290358
  -exchange      EXHF   =         0.00000000
  -V(xc)+E(xc)   XCENC  =      3286.40148092
  PAW double counting   =    112334.84115916  -116028.24990878
  entropy T*S    EENTRO =         0.00000000
  eigenvalues    EBANDS =    -10875.68488894
  atomic energy  EATOM  =    114020.06510763
  Solvation  Ediel_sol  =         0.00000000
  ---------------------------------------------------
  free energy    TOTEN  =      -327.99099157 eV

  energy without entropy =     -327.99099157  energy(sigma->0) =     -327.99099157


--------------------------------------------------------------------------------------------------------




--------------------------------------- Iteration      1(  12)  ---------------------------------------


    POTLOK:  cpu time    0.1173: real time    0.1223
    SETDIJ:  cpu time    0.0128: real time    0.0129
     EDDAV:  cpu time  177.5941: real time  178.7939
 BZINTS: Fermi energy:  4.970190;688.000000 electrons
         Band energy:***********;  BLOECHL correction:  0.000000
       DOS:  cpu time    0.0064: real time    0.0064
    CHARGE:  cpu time    1.3893: real time    1.3993
    MIXING:  cpu time    0.0018: real time    0.0018
    --------------------------------------------
      LOOP:  cpu time  179.1217: real time  180.3365

 eigenvalue-minimisations  : 25088
 total energy-change (2. order) :-0.2053047E-02  (-0.1769439E-02)
 number of electron     688.0000279 magnetization       0.0000000
 augmentation part      282.2074417 magnetization       0.0000000

 Broyden mixing:
  rms(total) = 0.17846E-01    rms(broyden)= 0.17845E-01
  rms(prec ) = 0.19252E-01
  weight for this iteration     100.00

 eigenvalues of (default mixing * dielectric matrix)
  average eigenvalue GAMMA=   1.1046
  2.2298  2.2298  0.9551  0.7047  0.6378  0.6378  0.3369

 Free energy of the ion-electron system (eV)
  ---------------------------------------------------
  alpha Z        PSCENC =      2356.51358093
  Ewald energy   TEWEN  =    -62475.72461891
  -Hartree energ DENC   =    -42949.76025338
  -exchange      EXHF   =         0.00000000
  -V(xc)+E(xc)   XCENC  =      3286.53092519
  PAW double counting   =    112290.76426699  -115984.73431171
  entropy T*S    EENTRO =         0.00000000
  eigenvalues    EBANDS =    -10871.64774136
  atomic energy  EATOM  =    114020.06510763
  Solvation  Ediel_sol  =         0.00000000
  ---------------------------------------------------
  free energy    TOTEN  =      -327.99304462 eV

  energy without entropy =     -327.99304462  energy(sigma->0) =     -327.99304462


--------------------------------------------------------------------------------------------------------




--------------------------------------- Iteration      1(  13)  ---------------------------------------


    POTLOK:  cpu time    0.1239: real time    0.1247
    SETDIJ:  cpu time    0.0128: real time    0.0129
     EDDAV:  cpu time  136.7350: real time  137.6823
 BZINTS: Fermi energy:  4.968973;688.000000 electrons
         Band energy:***********;  BLOECHL correction:  0.000000
       DOS:  cpu time    0.0064: real time    0.0065
    CHARGE:  cpu time    1.3822: real time    1.3924
    MIXING:  cpu time    0.0016: real time    0.0016
    --------------------------------------------
      LOOP:  cpu time  138.2620: real time  139.2204

 eigenvalue-minimisations  : 20480
 total energy-change (2. order) :-0.3711311E-03  (-0.1397114E-03)
 number of electron     688.0000279 magnetization       0.0000000
 augmentation part      282.2275797 magnetization       0.0000000

 Broyden mixing:
  rms(total) = 0.11355E-01    rms(broyden)= 0.11355E-01
  rms(prec ) = 0.12095E-01
  weight for this iteration     100.00

 eigenvalues of (default mixing * dielectric matrix)
  average eigenvalue GAMMA=   1.1295
  2.2776  2.2776  1.1436  1.1436  0.6741  0.5920  0.5920  0.3355

 Free energy of the ion-electron system (eV)
  ---------------------------------------------------
  alpha Z        PSCENC =      2356.51358093
  Ewald energy   TEWEN  =    -62475.72461891
  -Hartree energ DENC   =    -42948.35588199
  -exchange      EXHF   =         0.00000000
  -V(xc)+E(xc)   XCENC  =      3286.49607739
  PAW double counting   =    112277.81620695  -115971.53309611
  entropy T*S    EENTRO =         0.00000000
  eigenvalues    EBANDS =    -10873.27079164
  atomic energy  EATOM  =    114020.06510763
  Solvation  Ediel_sol  =         0.00000000
  ---------------------------------------------------
  free energy    TOTEN  =      -327.99341575 eV

  energy without entropy =     -327.99341575  energy(sigma->0) =     -327.99341575


--------------------------------------------------------------------------------------------------------




--------------------------------------- Iteration      1(  14)  ---------------------------------------


    POTLOK:  cpu time    0.1212: real time    0.1222
    SETDIJ:  cpu time    0.0127: real time    0.0127
     EDDAV:  cpu time  154.5332: real time  155.5870
 BZINTS: Fermi energy:  4.968763;688.000000 electrons
         Band energy:***********;  BLOECHL correction:  0.000000
       DOS:  cpu time    0.0064: real time    0.0065
    CHARGE:  cpu time    1.3825: real time    1.3927
    MIXING:  cpu time    0.0017: real time    0.0017
    --------------------------------------------
      LOOP:  cpu time  156.0576: real time  157.1227

 eigenvalue-minimisations  : 22016
 total energy-change (2. order) :-0.3100094E-03  (-0.1048865E-03)
 number of electron     688.0000279 magnetization       0.0000000
 augmentation part      282.2258516 magnetization       0.0000000

 Broyden mixing:
  rms(total) = 0.57789E-02    rms(broyden)= 0.57786E-02
  rms(prec ) = 0.60693E-02
  weight for this iteration     100.00

 eigenvalues of (default mixing * dielectric matrix)
  average eigenvalue GAMMA=   1.1850
  2.4392  2.4392  1.4246  1.4246  0.3354  0.6026  0.6026  0.7275  0.6693

 Free energy of the ion-electron system (eV)
  ---------------------------------------------------
  alpha Z        PSCENC =      2356.51358093
  Ewald energy   TEWEN  =    -62475.72461891
  -Hartree energ DENC   =    -42948.66778358
  -exchange      EXHF   =         0.00000000
  -V(xc)+E(xc)   XCENC  =      3286.50082936
  PAW double counting   =    112268.71984872  -115962.55104305
  entropy T*S    EENTRO =         0.00000000
  eigenvalues    EBANDS =    -10872.84964686
  atomic energy  EATOM  =    114020.06510763
  Solvation  Ediel_sol  =         0.00000000
  ---------------------------------------------------
  free energy    TOTEN  =      -327.99372576 eV

  energy without entropy =     -327.99372576  energy(sigma->0) =     -327.99372576


--------------------------------------------------------------------------------------------------------




--------------------------------------- Iteration      1(  15)  ---------------------------------------


    POTLOK:  cpu time    0.1206: real time    0.1222
    SETDIJ:  cpu time    0.0127: real time    0.0127
     EDDAV:  cpu time  126.9485: real time  127.8495
 BZINTS: Fermi energy:  4.968389;688.000000 electrons
         Band energy:***********;  BLOECHL correction:  0.000000
       DOS:  cpu time    0.0065: real time    0.0065
    CHARGE:  cpu time    1.3821: real time    1.3922
    MIXING:  cpu time    0.0017: real time    0.0017
    --------------------------------------------
      LOOP:  cpu time  128.4721: real time  129.3848

 eigenvalue-minimisations  : 19712
 total energy-change (2. order) :-0.1128809E-03  (-0.3271442E-04)
 number of electron     688.0000279 magnetization       0.0000000
 augmentation part      282.2199128 magnetization       0.0000000

 Broyden mixing:
  rms(total) = 0.38175E-02    rms(broyden)= 0.38173E-02
  rms(prec ) = 0.42525E-02
  weight for this iteration     100.00

 eigenvalues of (default mixing * dielectric matrix)
  average eigenvalue GAMMA=   1.1967
  2.7322  2.2976  1.7202  1.1837  1.1837  0.3352  0.5963  0.5963  0.7028  0.6192

 Free energy of the ion-electron system (eV)
  ---------------------------------------------------
  alpha Z        PSCENC =      2356.51358093
  Ewald energy   TEWEN  =    -62475.72461891
  -Hartree energ DENC   =    -42948.83810725
  -exchange      EXHF   =         0.00000000
  -V(xc)+E(xc)   XCENC  =      3286.50281878
  PAW double counting   =    112266.35941547  -115960.19915998
  entropy T*S    EENTRO =         0.00000000
  eigenvalues    EBANDS =    -10872.67287530
  atomic energy  EATOM  =    114020.06510763
  Solvation  Ediel_sol  =         0.00000000
  ---------------------------------------------------
  free energy    TOTEN  =      -327.99383864 eV

  energy without entropy =     -327.99383864  energy(sigma->0) =     -327.99383864


--------------------------------------------------------------------------------------------------------




--------------------------------------- Iteration      1(  16)  ---------------------------------------


    POTLOK:  cpu time    0.1213: real time    0.1224
    SETDIJ:  cpu time    0.0127: real time    0.0127
     EDDAV:  cpu time  157.6899: real time  158.7695
 BZINTS: Fermi energy:  4.968295;688.000000 electrons
         Band energy:***********;  BLOECHL correction:  0.000000
       DOS:  cpu time    0.0065: real time    0.0065
    CHARGE:  cpu time    1.3864: real time    1.3959
    MIXING:  cpu time    0.0020: real time    0.0104
    --------------------------------------------
      LOOP:  cpu time  159.2188: real time  160.3175

 eigenvalue-minimisations  : 22272
 total energy-change (2. order) :-0.4619604E-04  (-0.1392458E-04)
 number of electron     688.0000279 magnetization       0.0000000
 augmentation part      282.2232300 magnetization       0.0000000

 Broyden mixing:
  rms(total) = 0.21053E-02    rms(broyden)= 0.21051E-02
  rms(prec ) = 0.22175E-02
  weight for this iteration     100.00

 eigenvalues of (default mixing * dielectric matrix)
  average eigenvalue GAMMA=   1.2340
  2.9890  2.2203  2.0445  1.2873  1.2873  0.9002  0.3352  0.5962  0.5962  0.7049
  0.6131

 Free energy of the ion-electron system (eV)
  ---------------------------------------------------
  alpha Z        PSCENC =      2356.51358093
  Ewald energy   TEWEN  =    -62475.72461891
  -Hartree energ DENC   =    -42948.71419069
  -exchange      EXHF   =         0.00000000
  -V(xc)+E(xc)   XCENC  =      3286.50311864
  PAW double counting   =    112265.36478111  -115959.18265882
  entropy T*S    EENTRO =         0.00000000
  eigenvalues    EBANDS =    -10872.81900473
  atomic energy  EATOM  =    114020.06510763
  Solvation  Ediel_sol  =         0.00000000
  ---------------------------------------------------
  free energy    TOTEN  =      -327.99388484 eV

  energy without entropy =     -327.99388484  energy(sigma->0) =     -327.99388484


--------------------------------------------------------------------------------------------------------




--------------------------------------- Iteration      1(  17)  ---------------------------------------


    POTLOK:  cpu time    0.1215: real time    0.1226
    SETDIJ:  cpu time    0.0126: real time    0.0127
     EDDAV:  cpu time  126.8128: real time  127.7106
 BZINTS: Fermi energy:  4.968298;688.000000 electrons
         Band energy:***********;  BLOECHL correction:  0.000000
       DOS:  cpu time    0.0064: real time    0.0065
    CHARGE:  cpu time    1.3833: real time    1.3921
    MIXING:  cpu time    0.0019: real time    0.0020
    --------------------------------------------
      LOOP:  cpu time  128.3386: real time  129.2463

 eigenvalue-minimisations  : 19712
 total energy-change (2. order) :-0.2862935E-04  (-0.1074206E-04)
 number of electron     688.0000279 magnetization       0.0000000
 augmentation part      282.2236429 magnetization       0.0000000

 Broyden mixing:
  rms(total) = 0.14018E-02    rms(broyden)= 0.14016E-02
  rms(prec ) = 0.15536E-02
  weight for this iteration     100.00

 eigenvalues of (default mixing * dielectric matrix)
  average eigenvalue GAMMA=   1.3433
  3.8585  2.3126  2.3126  1.5396  1.5396  1.0190  0.3353  0.6017  0.6017  0.7192
  0.6714  0.6092

 Free energy of the ion-electron system (eV)
  ---------------------------------------------------
  alpha Z        PSCENC =      2356.51358093
  Ewald energy   TEWEN  =    -62475.72461891
  -Hartree energ DENC   =    -42948.72371707
  -exchange      EXHF   =         0.00000000
  -V(xc)+E(xc)   XCENC  =      3286.50304701
  PAW double counting   =    112265.50509546  -115959.32570094
  entropy T*S    EENTRO =         0.00000000
  eigenvalues    EBANDS =    -10872.80670757
  atomic energy  EATOM  =    114020.06510763
  Solvation  Ediel_sol  =         0.00000000
  ---------------------------------------------------
  free energy    TOTEN  =      -327.99391347 eV

  energy without entropy =     -327.99391347  energy(sigma->0) =     -327.99391347


--------------------------------------------------------------------------------------------------------




--------------------------------------- Iteration      1(  18)  ---------------------------------------


    POTLOK:  cpu time    0.1210: real time    0.1218
    SETDIJ:  cpu time    0.0126: real time    0.0127
     EDDAV:  cpu time  141.4600: real time  142.4368
 BZINTS: Fermi energy:  4.968223;688.000000 electrons
         Band energy:***********;  BLOECHL correction:  0.000000
       DOS:  cpu time    0.0064: real time    0.0065
    CHARGE:  cpu time    1.3838: real time    1.3936
    MIXING:  cpu time    0.0021: real time    0.0021
    --------------------------------------------
      LOOP:  cpu time  142.9859: real time  143.9733

 eigenvalue-minimisations  : 20736
 total energy-change (2. order) :-0.9209543E-05  (-0.6554894E-05)
 number of electron     688.0000279 magnetization       0.0000000
 augmentation part      282.2232352 magnetization       0.0000000

 Broyden mixing:
  rms(total) = 0.58652E-03    rms(broyden)= 0.58620E-03
  rms(prec ) = 0.61709E-03
  weight for this iteration     100.00

 eigenvalues of (default mixing * dielectric matrix)
  average eigenvalue GAMMA=   1.3580
  4.2832  2.4039  2.4039  1.6867  1.1994  1.1994  0.9626  0.3353  0.6007  0.6007
  0.7161  0.6435  0.6190

 Free energy of the ion-electron system (eV)
  ---------------------------------------------------
  alpha Z        PSCENC =      2356.51358093
  Ewald energy   TEWEN  =    -62475.72461891
  -Hartree energ DENC   =    -42948.72033849
  -exchange      EXHF   =         0.00000000
  -V(xc)+E(xc)   XCENC  =      3286.50289465
  PAW double counting   =    112266.15818890  -115959.98206363
  entropy T*S    EENTRO =         0.00000000
  eigenvalues    EBANDS =    -10872.80667376
  atomic energy  EATOM  =    114020.06510763
  Solvation  Ediel_sol  =         0.00000000
  ---------------------------------------------------
  free energy    TOTEN  =      -327.99392267 eV

  energy without entropy =     -327.99392267  energy(sigma->0) =     -327.99392267


--------------------------------------------------------------------------------------------------------




--------------------------------------- Iteration      1(  19)  ---------------------------------------


    POTLOK:  cpu time    0.1232: real time    0.1251
    SETDIJ:  cpu time    0.0126: real time    0.0126
     EDDAV:  cpu time  134.2793: real time  135.2217
 BZINTS: Fermi energy:  4.968197;688.000000 electrons
         Band energy:***********;  BLOECHL correction:  0.000000
       DOS:  cpu time    0.0065: real time    0.0065
    CHARGE:  cpu time    1.3826: real time    1.3929
    MIXING:  cpu time    0.0020: real time    0.0020
    --------------------------------------------
      LOOP:  cpu time  135.8062: real time  136.7609

 eigenvalue-minimisations  : 20224
 total energy-change (2. order) :-0.9172800E-06  (-0.6085615E-06)
 number of electron     688.0000279 magnetization       0.0000000
 augmentation part      282.2231083 magnetization       0.0000000

 Broyden mixing:
[...]
   -.420E+02 0.122E+02 -.120E+01   0.428E+02 -.123E+02 0.121E+01   -.856E+00 0.781E-01 -.149E-01   -.953E-06 -.689E-05 0.571E-05
   -.420E+02 0.122E+02 -.120E+01   0.428E+02 -.123E+02 0.121E+01   -.856E+00 0.781E-01 -.149E-01   -.939E-06 -.689E-05 0.571E-05
   -.420E+02 0.122E+02 -.120E+01   0.428E+02 -.123E+02 0.121E+01   -.856E+00 0.781E-01 -.149E-01   -.953E-06 -.687E-05 0.571E-05
   -.420E+02 0.122E+02 -.120E+01   0.428E+02 -.123E+02 0.121E+01   -.856E+00 0.781E-01 -.149E-01   -.939E-06 -.687E-05 0.571E-05
   0.420E+02 0.122E+02 0.120E+01   -.428E+02 -.123E+02 -.121E+01   0.856E+00 0.781E-01 0.149E-01   0.946E-06 -.688E-05 -.572E-05
   0.420E+02 0.122E+02 0.120E+01   -.428E+02 -.123E+02 -.121E+01   0.856E+00 0.781E-01 0.149E-01   0.946E-06 -.688E-05 -.572E-05
   0.420E+02 0.122E+02 0.120E+01   -.428E+02 -.123E+02 -.121E+01   0.856E+00 0.781E-01 0.149E-01   0.945E-06 -.688E-05 -.571E-05
   0.420E+02 0.122E+02 0.120E+01   -.428E+02 -.123E+02 -.121E+01   0.856E+00 0.781E-01 0.149E-01   0.946E-06 -.688E-05 -.571E-05
   0.378E-07 -.329E+02 -.878E-08   0.355E-14 0.337E+02 0.888E-13   0.321E-24 -.786E+00 0.000E+00   0.100E-09 -.468E-05 0.200E-08
   0.378E-07 -.329E+02 -.879E-08   0.178E-14 0.337E+02 0.355E-14   0.105E-24 -.786E+00 -.388E-25   -.144E-09 -.468E-05 -.199E-08
   0.378E-07 -.329E+02 -.879E-08   -.568E-13 0.337E+02 -.284E-13   -.109E-24 -.786E+00 0.840E-25   0.100E-09 -.466E-05 0.200E-08
   0.378E-07 -.329E+02 -.879E-08   -.568E-13 0.337E+02 -.853E-13   -.666E-24 -.786E+00 -.129E-25   -.144E-09 -.466E-05 -.199E-08
   -.379E-08 0.516E+02 0.120E-06   -.149E-12 -.525E+02 -.533E-14   0.167E-24 0.938E+00 -.517E-25   -.883E-08 0.390E-06 0.147E-09
   -.379E-08 0.516E+02 0.120E-06   -.924E-13 -.525E+02 0.249E-13   0.138E-24 0.938E+00 0.310E-24   0.887E-08 0.390E-06 -.148E-09
   -.379E-08 0.516E+02 0.120E-06   -.114E-12 -.525E+02 0.284E-13   -.250E-25 0.938E+00 0.155E-24   -.883E-08 0.390E-06 0.147E-09
   -.379E-08 0.516E+02 0.120E-06   -.114E-12 -.525E+02 0.284E-13   0.565E-25 0.938E+00 0.620E-24   0.887E-08 0.390E-06 -.148E-09
   0.256E+01 -.114E+02 0.597E+00   -.252E+01 0.109E+02 -.608E+00   -.318E-01 0.463E+00 0.801E-02   0.795E-05 -.400E-04 0.162E-05
   0.256E+01 -.114E+02 0.597E+00   -.252E+01 0.109E+02 -.608E+00   -.318E-01 0.463E+00 0.801E-02   0.798E-05 -.400E-04 0.163E-05
   0.256E+01 -.114E+02 0.597E+00   -.252E+01 0.109E+02 -.608E+00   -.318E-01 0.463E+00 0.801E-02   0.795E-05 -.400E-04 0.162E-05
   0.256E+01 -.114E+02 0.597E+00   -.252E+01 0.109E+02 -.608E+00   -.318E-01 0.463E+00 0.801E-02   0.798E-05 -.400E-04 0.162E-05
   -.256E+01 -.114E+02 -.597E+00   0.252E+01 0.109E+02 0.608E+00   0.318E-01 0.463E+00 -.801E-02   -.799E-05 -.400E-04 -.162E-05
   -.256E+01 -.114E+02 -.597E+00   0.252E+01 0.109E+02 0.608E+00   0.318E-01 0.463E+00 -.801E-02   -.794E-05 -.400E-04 -.163E-05
   -.256E+01 -.114E+02 -.597E+00   0.252E+01 0.109E+02 0.608E+00   0.318E-01 0.463E+00 -.801E-02   -.799E-05 -.400E-04 -.162E-05
   -.256E+01 -.114E+02 -.597E+00   0.252E+01 0.109E+02 0.608E+00   0.318E-01 0.463E+00 -.801E-02   -.794E-05 -.400E-04 -.162E-05
   0.256E+01 -.114E+02 0.597E+00   -.252E+01 0.109E+02 -.608E+00   -.318E-01 0.463E+00 0.801E-02   0.794E-05 -.400E-04 0.162E-05
   0.256E+01 -.114E+02 0.597E+00   -.252E+01 0.109E+02 -.608E+00   -.318E-01 0.463E+00 0.801E-02   0.799E-05 -.400E-04 0.163E-05
   0.256E+01 -.114E+02 0.597E+00   -.252E+01 0.109E+02 -.608E+00   -.318E-01 0.463E+00 0.801E-02   0.794E-05 -.400E-04 0.162E-05
   0.256E+01 -.114E+02 0.597E+00   -.252E+01 0.109E+02 -.608E+00   -.318E-01 0.463E+00 0.801E-02   0.799E-05 -.400E-04 0.162E-05
   -.256E+01 -.114E+02 -.597E+00   0.252E+01 0.109E+02 0.608E+00   0.318E-01 0.463E+00 -.801E-02   -.798E-05 -.400E-04 -.162E-05
   -.256E+01 -.114E+02 -.597E+00   0.252E+01 0.109E+02 0.608E+00   0.318E-01 0.463E+00 -.801E-02   -.795E-05 -.400E-04 -.163E-05
   -.256E+01 -.114E+02 -.597E+00   0.252E+01 0.109E+02 0.608E+00   0.318E-01 0.463E+00 -.801E-02   -.798E-05 -.400E-04 -.161E-05
   -.256E+01 -.114E+02 -.597E+00   0.252E+01 0.109E+02 0.608E+00   0.318E-01 0.463E+00 -.801E-02   -.795E-05 -.400E-04 -.162E-05
   -.306E+01 -.114E+02 0.669E+00   0.300E+01 0.107E+02 -.686E+00   0.614E-01 0.612E+00 0.137E-01   0.161E-04 -.128E-05 0.186E-05
   -.306E+01 -.114E+02 0.669E+00   0.300E+01 0.107E+02 -.686E+00   0.614E-01 0.612E+00 0.137E-01   0.162E-04 -.128E-05 0.185E-05
   -.306E+01 -.114E+02 0.669E+00   0.300E+01 0.107E+02 -.686E+00   0.614E-01 0.612E+00 0.137E-01   0.161E-04 -.125E-05 0.186E-05
   -.306E+01 -.114E+02 0.669E+00   0.300E+01 0.107E+02 -.686E+00   0.614E-01 0.612E+00 0.137E-01   0.162E-04 -.125E-05 0.186E-05
   0.306E+01 -.114E+02 -.669E+00   -.300E+01 0.107E+02 0.686E+00   -.614E-01 0.612E+00 -.137E-01   -.162E-04 -.128E-05 -.186E-05
   0.306E+01 -.114E+02 -.669E+00   -.300E+01 0.107E+02 0.686E+00   -.614E-01 0.612E+00 -.137E-01   -.161E-04 -.128E-05 -.185E-05
   0.306E+01 -.114E+02 -.669E+00   -.300E+01 0.107E+02 0.686E+00   -.614E-01 0.612E+00 -.137E-01   -.162E-04 -.125E-05 -.186E-05
   0.306E+01 -.114E+02 -.669E+00   -.300E+01 0.107E+02 0.686E+00   -.614E-01 0.612E+00 -.137E-01   -.161E-04 -.125E-05 -.186E-05
   -.306E+01 -.114E+02 0.669E+00   0.300E+01 0.107E+02 -.686E+00   0.614E-01 0.612E+00 0.137E-01   0.161E-04 -.128E-05 0.186E-05
   -.306E+01 -.114E+02 0.669E+00   0.300E+01 0.107E+02 -.686E+00   0.614E-01 0.612E+00 0.137E-01   0.162E-04 -.128E-05 0.185E-05
   -.306E+01 -.114E+02 0.669E+00   0.300E+01 0.107E+02 -.686E+00   0.614E-01 0.612E+00 0.137E-01   0.161E-04 -.125E-05 0.186E-05
   -.306E+01 -.114E+02 0.669E+00   0.300E+01 0.107E+02 -.686E+00   0.614E-01 0.612E+00 0.137E-01   0.162E-04 -.125E-05 0.186E-05
   0.306E+01 -.114E+02 -.669E+00   -.300E+01 0.107E+02 0.686E+00   -.614E-01 0.612E+00 -.137E-01   -.162E-04 -.128E-05 -.186E-05
   0.306E+01 -.114E+02 -.669E+00   -.300E+01 0.107E+02 0.686E+00   -.614E-01 0.612E+00 -.137E-01   -.161E-04 -.128E-05 -.185E-05
   0.306E+01 -.114E+02 -.669E+00   -.300E+01 0.107E+02 0.686E+00   -.614E-01 0.612E+00 -.137E-01   -.162E-04 -.125E-05 -.186E-05
   0.306E+01 -.114E+02 -.669E+00   -.300E+01 0.107E+02 0.686E+00   -.614E-01 0.612E+00 -.137E-01   -.161E-04 -.125E-05 -.186E-05
 -----------------------------------------------------------------------------------------------
   0.302E-06 -.197E+02 0.253E-03   0.104E-12 -.385E-12 -.187E-12   0.548E-15 0.197E+02 0.347E-17   0.261E-11 -.805E-03 -.779E-11
 
 
 POSITION                                       TOTAL-FORCE (eV/Angst)
 -----------------------------------------------------------------------------------
      1.34952      1.29191      1.32741        -0.000152     -0.001505      0.000489
      6.60589      1.29191      1.41916        -0.000152     -0.001505      0.000489
      1.34952      6.55108      1.32741        -0.000152     -0.001505      0.000489
      6.60589      6.55108      1.41916        -0.000152     -0.001505      0.000489
      3.95226      3.92149      1.36626         0.000152     -0.001505     -0.000489
      9.20862      3.92149      1.45801         0.000152     -0.001505     -0.000489
      3.95226      9.18066      1.36626         0.000152     -0.001505     -0.000489
      9.20862      9.18066      1.45801         0.000152     -0.001505     -0.000489
      1.47305      3.91674      9.12966        -0.000000     -0.001182     -0.000000
      6.72941      3.91674      9.22141        -0.000000     -0.001182     -0.000000
      1.47305      9.17590      9.12966        -0.000000     -0.001182     -0.000000
      6.72941      9.17590      9.22141        -0.000000     -0.001182     -0.000000
      4.10123      1.31005      9.17553        -0.000000      0.000731     -0.000000
      9.35760      1.31005      9.26728        -0.000000      0.000731     -0.000000
      4.10123      6.56921      9.17553        -0.000000      0.000731     -0.000000
      9.35760      6.56921      9.26728        -0.000000      0.000731     -0.000000
      1.41491      1.29191      6.52423         0.000152     -0.001505     -0.000489
      6.67127      1.29191      6.61598         0.000152     -0.001505     -0.000489
      1.41491      6.55108      6.52423         0.000152     -0.001505     -0.000489
      6.67127      6.55108      6.61598         0.000152     -0.001505     -0.000489
      4.06854      3.92149      6.57712        -0.000152     -0.001505      0.000489
      9.32491      3.92149      6.66887        -0.000152     -0.001505      0.000489
      4.06854      9.18066      6.57712        -0.000152     -0.001505      0.000489
      9.32491      9.18066      6.66887        -0.000152     -0.001505      0.000489
      4.01040      1.28716      3.97169        -0.000000     -0.001182     -0.000000
      9.26676      1.28716      4.06344        -0.000000     -0.001182     -0.000000
      4.01040      6.54632      3.97169        -0.000000     -0.001182     -0.000000
      9.26676      6.54632      4.06344        -0.000000     -0.001182     -0.000000
      1.38222      3.93963      3.92582        -0.000000      0.000731     -0.000000
      6.63858      3.93963      4.01757        -0.000000      0.000731     -0.000000
      1.38222      9.19879      3.92582        -0.000000      0.000731     -0.000000
      6.63858      9.19879      4.01757        -0.000000      0.000731     -0.000000
     10.59682      0.02017      5.38727        -0.000107     -0.000181     -0.002531
      5.34045      0.02017      5.29552        -0.000107     -0.000181     -0.002531
     10.59682      5.27934      5.38727        -0.000107     -0.000181     -0.002531
      5.34045      5.27934      5.29552        -0.000107     -0.000181     -0.002531
      2.68035      0.02017      2.64786         0.000107     -0.000181      0.002531
      7.93671      0.02017      2.73961         0.000107     -0.000181      0.002531
      2.68035      5.27934      2.64786         0.000107     -0.000181      0.002531
      7.93671      5.27934      2.73961         0.000107     -0.000181      0.002531
      2.62143      2.64976      0.04581        -0.000107     -0.000181     -0.002531
      7.87780      2.64976      0.13756        -0.000107     -0.000181     -0.002531
      2.62143      7.90892      0.04581        -0.000107     -0.000181     -0.002531
      7.87780      7.90892      0.13756        -0.000107     -0.000181     -0.002531
      0.14300      2.64976      7.80583         0.000107     -0.000181      0.002531
      5.39936      2.64976      7.89758         0.000107     -0.000181      0.002531
      0.14300      7.90892      7.80583         0.000107     -0.000181      0.002531
      5.39936      7.90892      7.89758         0.000107     -0.000181      0.002531
     10.50905      0.01889      0.18475         0.000431      0.001912     -0.004152
      5.25269      0.01889      0.09300         0.000431      0.001912     -0.004152
     10.50905      5.27805      0.18475         0.000431      0.001912     -0.004152
      5.25269      5.27805      0.09300         0.000431      0.001912     -0.004152
      2.76811      0.01889      7.85039        -0.000431      0.001912      0.004152
      8.02448      0.01889      7.94214        -0.000431      0.001912      0.004152
      2.76811      5.27805      7.85039        -0.000431      0.001912      0.004152
      8.02448      5.27805      7.94214        -0.000431      0.001912      0.004152
      2.71534      2.64847      5.25096         0.000431      0.001912     -0.004152
      7.97170      2.64847      5.34271         0.000431      0.001912     -0.004152
      2.71534      7.90763      5.25096         0.000431      0.001912     -0.004152
      7.97170      7.90763      5.34271         0.000431      0.001912     -0.004152
      0.04909      2.64847      2.60067        -0.000431      0.001912      0.004152
      5.30546      2.64847      2.69242        -0.000431      0.001912      0.004152
      0.04909      7.90763      2.60067        -0.000431      0.001912      0.004152
      5.30546      7.90763      2.69242        -0.000431      0.001912      0.004152
 -----------------------------------------------------------------------------------
    total drift:                                0.000000     -0.022408      0.000253


--------------------------------------------------------------------------------------------------------



  FREE ENERGIE OF THE ION-ELECTRON SYSTEM (eV)
  ---------------------------------------------------
  free  energy   TOTEN  =      -327.99392382 eV

  energy  without entropy=     -327.99392382  energy(sigma->0) =     -327.99392382
 


--------------------------------------------------------------------------------------------------------


    POTLOK:  cpu time    0.1311: real time    0.1317


--------------------------------------------------------------------------------------------------------


 writing wavefunctions
     LOOP+:  cpu time 3503.5322: real time 3528.3593
    4ORBIT:  cpu time    0.0000: real time    0.0000
 


 total charge     
 
# of ion       s       p       d       tot
------------------------------------------
    1        1.314   2.410   0.000   3.724
    2        1.314   2.410   0.000   3.724
    3        1.314   2.410   0.000   3.724
    4        1.314   2.410   0.000   3.724
    5        1.314   2.410   0.000   3.724
    6        1.314   2.410   0.000   3.724
    7        1.314   2.410   0.000   3.724
    8        1.314   2.410   0.000   3.724
    9        1.314   2.408   0.000   3.722
   10        1.314   2.408   0.000   3.722
   11        1.314   2.408   0.000   3.722
   12        1.314   2.408   0.000   3.722
   13        1.313   2.412   0.000   3.724
   14        1.313   2.412   0.000   3.724
   15        1.313   2.412   0.000   3.724
   16        1.313   2.412   0.000   3.724
   17        1.314   2.410   0.000   3.724
   18        1.314   2.410   0.000   3.724
   19        1.314   2.410   0.000   3.724
   20        1.314   2.410   0.000   3.724
   21        1.314   2.410   0.000   3.724
   22        1.314   2.410   0.000   3.724
   23        1.314   2.410   0.000   3.724
   24        1.314   2.410   0.000   3.724
   25        1.314   2.408   0.000   3.722
   26        1.314   2.408   0.000   3.722
   27        1.314   2.408   0.000   3.722
   28        1.314   2.408   0.000   3.722
   29        1.313   2.412   0.000   3.724
   30        1.313   2.412   0.000   3.724
   31        1.313   2.412   0.000   3.724
   32        1.313   2.412   0.000   3.724
   33        0.259   6.202   8.917  15.378
   34        0.259   6.202   8.917  15.378
   35        0.259   6.202   8.917  15.378
   36        0.259   6.202   8.917  15.378
   37        0.259   6.202   8.917  15.378
   38        0.259   6.202   8.917  15.378
   39        0.259   6.202   8.917  15.378
   40        0.259   6.202   8.917  15.378
   41        0.259   6.202   8.917  15.378
   42        0.259   6.202   8.917  15.378
   43        0.259   6.202   8.917  15.378
   44        0.259   6.202   8.917  15.378
   45        0.259   6.202   8.917  15.378
   46        0.259   6.202   8.917  15.378
   47        0.259   6.202   8.917  15.378
   48        0.259   6.202   8.917  15.378
   49        0.350   6.351   5.820  12.521
   50        0.350   6.351   5.820  12.521
   51        0.350   6.351   5.820  12.521
   52        0.350   6.351   5.820  12.521
   53        0.350   6.351   5.820  12.521
   54        0.350   6.351   5.820  12.521
   55        0.350   6.351   5.820  12.521
   56        0.350   6.351   5.820  12.521
   57        0.350   6.351   5.820  12.521
   58        0.350   6.351   5.820  12.521
   59        0.350   6.351   5.820  12.521
   60        0.350   6.351   5.820  12.521
   61        0.350   6.351   5.820  12.521
   62        0.350   6.351   5.820  12.521
   63        0.350   6.351   5.820  12.521
   64        0.350   6.351   5.820  12.521
--------------------------------------------------
tot         51.787 277.958 235.788 565.533
 


 magnetization (x)
 
# of ion       s       p       d       tot
------------------------------------------
    1       -0.000  -0.008   0.000  -0.008
    2       -0.000  -0.008   0.000  -0.008
    3       -0.000  -0.008   0.000  -0.008
    4       -0.000  -0.008   0.000  -0.008
    5        0.000   0.008   0.000   0.008
    6        0.000   0.008   0.000   0.008
    7        0.000   0.008   0.000   0.008
    8        0.000   0.008   0.000   0.008
    9       -0.000  -0.000   0.000  -0.000
   10       -0.000   0.000   0.000   0.000
   11       -0.000   0.000   0.000   0.000
   12       -0.000   0.000   0.000   0.000
   13        0.000  -0.000   0.000  -0.000
   14        0.000  -0.000   0.000  -0.000
   15       -0.000  -0.000   0.000  -0.000
   16       -0.000  -0.000   0.000  -0.000
   17        0.000   0.008   0.000   0.008
   18        0.000   0.008   0.000   0.008
   19        0.000   0.008   0.000   0.008
   20        0.000   0.008   0.000   0.008
   21       -0.000  -0.008   0.000  -0.008
   22       -0.000  -0.008   0.000  -0.008
   23       -0.000  -0.008   0.000  -0.008
   24       -0.000  -0.008   0.000  -0.008
   25       -0.000   0.000   0.000   0.000
   26       -0.000   0.000   0.000   0.000
   27       -0.000   0.000   0.000   0.000
   28       -0.000   0.000   0.000   0.000
   29        0.000   0.000   0.000   0.000
   30        0.000  -0.000   0.000  -0.000
   31        0.000   0.000   0.000   0.000
   32        0.000  -0.000   0.000  -0.000
   33        0.000   0.001  -0.001  -0.000
   34        0.000   0.001  -0.001  -0.000
   35        0.000   0.001  -0.001  -0.000
   36        0.000   0.001  -0.001  -0.000
   37       -0.000  -0.001   0.001   0.000
   38       -0.000  -0.001   0.001   0.000
   39       -0.000  -0.001   0.001   0.000
   40       -0.000  -0.001   0.001   0.000
   41        0.000   0.001  -0.001  -0.000
   42        0.000   0.001  -0.001  -0.000
   43        0.000   0.001  -0.001  -0.000
   44        0.000   0.001  -0.001  -0.000
   45       -0.000  -0.001   0.001   0.000
   46       -0.000  -0.001   0.001   0.000
   47       -0.000  -0.001   0.001   0.000
   48       -0.000  -0.001   0.001   0.000
   49        0.020   0.054   3.670   3.744
   50        0.020   0.054   3.670   3.744
   51        0.020   0.054   3.670   3.744
   52        0.020   0.054   3.670   3.744
   53       -0.020  -0.054  -3.670  -3.744
   54       -0.020  -0.054  -3.670  -3.744
   55       -0.020  -0.054  -3.670  -3.744
   56       -0.020  -0.054  -3.670  -3.744
   57        0.020   0.054   3.670   3.744
   58        0.020   0.054   3.670   3.744
   59        0.020   0.054   3.670   3.744
   60        0.020   0.054   3.670   3.744
   61       -0.020  -0.054  -3.670  -3.744
   62       -0.020  -0.054  -3.670  -3.744
   63       -0.020  -0.054  -3.670  -3.744
   64       -0.020  -0.054  -3.670  -3.744
--------------------------------------------------
tot         -0.000   0.000  -0.000  -0.000
 
 BZINTS: Fermi energy:  4.968181;688.000000 electrons
         Band energy:***********;  BLOECHL correction:  0.000000

 total amount of memory used by VASP MPI-rank0   349631. kBytes
=======================================================================

   base      :      30000. kBytes
   nonl-proj :     217907. kBytes
   fftplans  :       4588. kBytes
   grid      :      69719. kBytes
   one-center:       1990. kBytes
   wavefun   :      25427. kBytes
 
  
  
 General timing and accounting informations for this job:
 ========================================================
  
                  Total CPU time used (sec):     3563.121
                            User time (sec):     3551.701
                          System time (sec):       11.420
                         Elapsed time (sec):     3589.708
  
                   Maximum memory used (kb):      706476.
                   Average memory used (kb):           0.
  
                          Minor page faults:       652228
                          Major page faults:         5734
                 Voluntary context switches:         7127
