 vasp.5.4.4.18Apr17-6-g9f103f2a35 (build Oct 30 2023 17:30:16) complex          
  
 executed on             LinuxIFC date 2024.06.29  01:10:15
 running on  256 total cores
 distrk:  each k-point on  256 cores,    1 groups
 distr:  one band on NCORES_PER_BAND=   1 cores,  256 groups


--------------------------------------------------------------------------------------------------------


 INCAR:
 POTCAR:    PAW_PBE S 06Sep2000                   
 POTCAR:     PAW_PBE Cu_pv 06Sep2000              
 POTCAR:     PAW_PBE Fe_pv 02Aug2007              

 ----------------------------------------------------------------------------- 
|                                                                             |
|           W    W    AA    RRRRR   N    N  II  N    N   GGGG   !!!           |
|           W    W   A  A   R    R  NN   N  II  NN   N  G    G  !!!           |
|           W    W  A    A  R    R  N N  N  II  N N  N  G       !!!           |
|           W WW W  AAAAAA  RRRRR   N  N N  II  N  N N  G  GGG   !            |
|           WW  WW  A    A  R   R   N   NN  II  N   NN  G    G                |
|           W    W  A    A  R    R  N    N  II  N    N   GGGG   !!!           |
|                                                                             |
|      For optimal performance we recommend to set                            |
|        NCORE= 4 - approx SQRT( number of cores)                             |
|      NCORE specifies how many cores store one orbital (NPAR=cpu/NCORE).     |
|      This setting can  greatly improve the performance of VASP for DFT.     |
|      The default,   NCORE=1            might be grossly inefficient         |
|      on modern multi-core architectures or massively parallel machines.     |
|      Do your own testing !!!!                                               |
|      Unfortunately you need to use the default for GW and RPA calculations. |
|      (for HF NCORE is supported but not extensively tested yet)             |
|                                                                             |
 ----------------------------------------------------------------------------- 

 POTCAR:    PAW_PBE S 06Sep2000                   
   SHA256 =  0fc7481fb0695f01bdc6462160264c5c84044ae9ec85a907d398b887a2bc3132 S/
   COPYR  = (c) Copyright 06Sep2000 Georg Kresse                                
   COPYR  = This file is part of the software VASP. Any use, copying, and all ot
   COPYR  = If you do not have a valid VASP license, you may not use, copy or di
   VRHFIN =S : s2p4                                                             
   LEXCH  = PE                                                                  
   EATOM  =   276.8230 eV,   20.3459 Ry                                         
                                                                                
   TITEL  = PAW_PBE S 06Sep2000                                                 
   LULTRA =        F    use ultrasoft PP ?                                      
   IUNSCR =        1    unscreen: 0-lin 1-nonlin 2-no                           
   RPACOR =    1.500    partial core radius                                     
   POMASS =   32.066; ZVAL   =    6.000    mass and valenz                      
   RCORE  =    1.900    outmost cutoff radius                                   
   RWIGS  =    2.200; RWIGS  =    1.164    wigner-seitz radius (au A)           
   ENMAX  =  258.689; ENMIN  =  194.016 eV                                      
   ICORE  =        2    local potential                                         
   LCOR   =        T    correct aug charges                                     
   LPAW   =        T    paw PP                                                  
   EAUG   =  335.092                                                            
   DEXC   =    0.000                                                            
   RMAX   =    1.942    core radius for proj-oper                               
   RAUG   =    1.300    factor for augmentation sphere                          
   RDEP   =    1.954    radius for radial grids                                 
   RDEPT  =    1.744    core radius for aug-charge                              
                                                                                
   Atomic configuration                                                         
    6 entries                                                                   
     n  l   j            E        occ.                                          
     1  0  0.50     -2405.8406   2.0000                                         
     2  0  0.50      -211.7007   2.0000                                         
     2  1  1.50      -156.4958   6.0000                                         
     3  0  0.50       -17.2562   2.0000                                         
     3  1  0.50        -7.0085   4.0000                                         
     3  2  1.50        -6.8029   0.0000                                         
   Description                                                                  
     l       E           TYP  RCUT    TYP  RCUT                                 
     0    -17.2561641     23  1.900                                             
     0    -15.8743224     23  1.900                                             
     1     -7.0085400     23  1.900                                             
     1     -2.7779785     23  1.900                                             
     2     -6.8029130     23  1.900                                             
  local pseudopotential read in
  partial core-charges read in
  partial kinetic energy density read in
  atomic valenz-charges read in
  non local Contribution for L=           0  read in
    real space projection operators read in
  non local Contribution for L=           0  read in
    real space projection operators read in
  non local Contribution for L=           1  read in
    real space projection operators read in
  non local Contribution for L=           1  read in
    real space projection operators read in
    PAW grid and wavefunctions read in
 
   number of l-projection  operators is LMAX  =           4
   number of lm-projection operators is LMMAX =           8
 
 POTCAR:     PAW_PBE Cu_pv 06Sep2000              
   SHA256 =  cb7b504e2ea725fe1f25c85a9ac77d4012ce94cd394135b722c4e25ec297f1cb Cu
   COPYR  = (c) Copyright 06Sep2000 Georg Kresse                                
   COPYR  = This file is part of the software VASP. Any use, copying, and all ot
   COPYR  = If you do not have a valid VASP license, you may not use, copy or di
   VRHFIN =Cu: d10 p1                                                           
   LEXCH  = PE                                                                  
   EATOM  =  4120.1201 eV,  302.8203 Ry                                         
                                                                                
   TITEL  = PAW_PBE Cu_pv 06Sep2000                                             
   LULTRA =        F    use ultrasoft PP ?                                      
   IUNSCR =        1    unscreen: 0-lin 1-nonlin 2-no                           
   RPACOR =    1.500    partial core radius                                     
   POMASS =   63.546; ZVAL   =   17.000    mass and valenz                      
   RCORE  =    2.000    outmost cutoff radius                                   
   RWIGS  =    2.000; RWIGS  =    1.058    wigner-seitz radius (au A)           
   ENMAX  =  368.648; ENMIN  =  276.486 eV                                      
   RCLOC  =    1.304    cutoff for local pot                                    
   LCOR   =        T    correct aug charges                                     
   LPAW   =        T    paw PP                                                  
   EAUG   =  758.233                                                            
   DEXC   =    0.000                                                            
   RMAX   =    2.046    core radius for proj-oper                               
   RAUG   =    1.300    factor for augmentation sphere                          
   RDEP   =    2.025    radius for radial grids                                 
   RDEPT  =    1.558    core radius for aug-charge                              
                                                                                
   Atomic configuration                                                         
    8 entries                                                                   
     n  l   j            E        occ.                                          
     1  0  0.50     -8850.2467   2.0000                                         
     2  0  0.50     -1062.3498   2.0000                                         
     2  1  1.50      -916.8226   6.0000                                         
     3  0  0.50      -114.6929   2.0000                                         
     3  1  1.50       -72.1325   6.0000                                         
     3  2  2.50        -5.0394  10.0000                                         
     4  0  0.50        -4.6097   1.0000                                         
     4  3  2.50        -1.3606   0.0000                                         
   Description                                                                  
     l       E           TYP  RCUT    TYP  RCUT                                 
     1    -72.1324777     23  1.700                                             
     1     -1.3605826     23  1.700                                             
     2     -5.0393776     23  2.000                                             
     2     -6.3999602     23  2.000                                             
     0     -4.6097062     23  1.800                                             
     0     14.1620818     23  1.800                                             
  local pseudopotential read in
  partial core-charges read in
  partial kinetic energy density read in
  atomic valenz-charges read in
  non local Contribution for L=           1  read in
    real space projection operators read in
  non local Contribution for L=           1  read in
    real space projection operators read in
  non local Contribution for L=           2  read in
    real space projection operators read in
  non local Contribution for L=           2  read in
    real space projection operators read in
  non local Contribution for L=           0  read in
    real space projection operators read in
  non local Contribution for L=           0  read in
    real space projection operators read in
    PAW grid and wavefunctions read in
 
   number of l-projection  operators is LMAX  =           6
   number of lm-projection operators is LMMAX =          18
 
 POTCAR:     PAW_PBE Fe_pv 02Aug2007              
   SHA256 =  5d22e414b1f82158bf2c7ecb8b97b28fd0923e48cadc1c3bf74d524558f5dd32 Fe
   COPYR  = (c) Copyright 02Aug2007 Georg Kresse                                
   COPYR  = This file is part of the software VASP. Any use, copying, and all ot
   COPYR  = If you do not have a valid VASP license, you may not use, copy or di
   VRHFIN =Fe:  3pd7s1                                                          
   LEXCH  = PE                                                                  
   EATOM  =  2457.4239 eV,  180.6156 Ry                                         
                                                                                
   TITEL  = PAW_PBE Fe_pv 02Aug2007                                             
   LULTRA =        F    use ultrasoft PP ?                                      
   IUNSCR =        1    unscreen: 0-lin 1-nonlin 2-no                           
   RPACOR =    1.750    partial core radius                                     
   POMASS =   55.847; ZVAL   =   14.000    mass and valenz                      
   RCORE  =    2.200    outmost cutoff radius                                   
   RWIGS  =    2.200; RWIGS  =    1.164    wigner-seitz radius (au A)           
   ENMAX  =  293.238; ENMIN  =  219.928 eV                                      
   ICORE  =        3    local potential                                         
   LCOR   =        T    correct aug charges                                     
   LPAW   =        T    paw PP                                                  
   EAUG   =  578.342                                                            
   DEXC   =    0.000                                                            
   RMAX   =    2.249    core radius for proj-oper                               
   RAUG   =    1.300    factor for augmentation sphere                          
   RDEP   =    2.296    radius for radial grids                                 
   RDEPT  =    1.766    core radius for aug-charge                              
                                                                                
   Atomic configuration                                                         
    8 entries                                                                   
     n  l   j            E        occ.                                          
     1  0  0.50     -6993.8440   2.0000                                         
     2  0  0.50      -814.6047   2.0000                                         
     2  1  1.50      -693.3689   6.0000                                         
     3  0  0.50       -89.4732   2.0000                                         
     3  1  1.50       -55.6373   6.0000                                         
     3  2  2.50        -3.8151   7.0000                                         
     4  0  0.50        -4.2551   1.0000                                         
     4  3  2.50        -1.3606   0.0000                                         
   Description                                                                  
     l       E           TYP  RCUT    TYP  RCUT                                 
     1    -55.6372668     23  2.000                                             
     1     -5.4423304     23  2.000                                             
     2     -3.8151096     23  2.200                                             
     2     -5.1756922     23  2.200                                             
     0     -4.2550951     23  2.200                                             
     0     27.2116520     23  2.200                                             
     3     -1.3605826     23  2.200                                             
  local pseudopotential read in
  partial core-charges read in
  partial kinetic energy density read in
  atomic valenz-charges read in
  non local Contribution for L=           1  read in
    real space projection operators read in
  non local Contribution for L=           1  read in
    real space projection operators read in
  non local Contribution for L=           2  read in
    real space projection operators read in
  non local Contribution for L=           2  read in
    real space projection operators read in
  non local Contribution for L=           0  read in
    real space projection operators read in
  non local Contribution for L=           0  read in
    real space projection operators read in
    PAW grid and wavefunctions read in
 
   number of l-projection  operators is LMAX  =           6
   number of lm-projection operators is LMMAX =          18
 

 ----------------------------------------------------------------------------- 
|                                                                             |
|  ADVICE TO THIS USER RUNNING 'VASP/VAMP'   (HEAR YOUR MASTER'S VOICE ...):  |
|                                                                             |
|      You have a (more or less) 'large supercell' and for larger cells       |
|      it might be more efficient to use real space projection opertators     |
|      So try LREAL= Auto  in the INCAR   file.                               |
|      Mind:          For very  accurate calculation you might also keep the  |
|      reciprocal projection scheme          (i.e. LREAL=.FALSE.)             |
|                                                                             |
 ----------------------------------------------------------------------------- 


 ----------------------------------------------------------------------------- 
|                                                                             |
|  ADVICE TO THIS USER RUNNING 'VASP/VAMP'   (HEAR YOUR MASTER'S VOICE ...):  |
|                                                                             |
|      You enforced a specific xc-type in the INCAR file,                     |
|      a different type was found on the POTCAR file                          |
|          I HOPE YOU KNOW, WHAT YOU ARE  DOING                               |
|                                                                             |
 ----------------------------------------------------------------------------- 

  PAW_PBE S 06Sep2000                   :
 energy of atom  1       EATOM= -276.8230
 kinetic energy error for atom=    0.0007 (will be added to EATOM!!)
   PAW_PBE Cu_pv 06Sep2000              :
 energy of atom  2       EATOM=-4120.1201
 kinetic energy error for atom=    0.0094 (will be added to EATOM!!)
   PAW_PBE Fe_pv 02Aug2007              :
 energy of atom  3       EATOM=-2457.4239
 kinetic energy error for atom=    0.0025 (will be added to EATOM!!)
 
 
 POSCAR: Fe16 Cu16 S32                           
  positions in direct lattice
  No initial velocities read in
 exchange correlation table for  LEXCH =       14
   RHO(1)=    0.500       N(1)  =     2000
   RHO(2)=  100.500       N(2)  =     4000
 


--------------------------------------------------------------------------------------------------------


 ion  position               nearest neighbor table
   1  0.126  0.126  0.117-  37 2.25  61 2.27  41 2.28  49 2.30
   2  0.626  0.126  0.117-  38 2.25  62 2.27  42 2.28  50 2.30
   3  0.126  0.626  0.117-  39 2.25  63 2.27  43 2.28  51 2.30
   4  0.626  0.626  0.117-  40 2.25  64 2.27  44 2.28  52 2.30
   5  0.374  0.374  0.117-  39 2.25  62 2.27  41 2.28  52 2.30
   6  0.874  0.374  0.117-  40 2.25  61 2.27  42 2.28  51 2.30
   7  0.374  0.874  0.117-  37 2.25  64 2.27  43 2.28  50 2.30
   8  0.874  0.874  0.117-  38 2.25  63 2.27  44 2.28  49 2.30
   9  0.124  0.374  0.867-  41 2.25  51 2.27  45 2.28  55 2.30
  10  0.624  0.374  0.867-  42 2.25  52 2.27  46 2.28  56 2.30
  11  0.124  0.874  0.867-  43 2.25  49 2.27  47 2.28  53 2.30
  12  0.624  0.874  0.867-  44 2.25  50 2.27  48 2.28  54 2.30
  13  0.376  0.126  0.867-  41 2.25  50 2.27  46 2.28  53 2.30
  14  0.876  0.126  0.867-  42 2.25  49 2.27  45 2.28  54 2.30
  15  0.376  0.626  0.867-  43 2.25  52 2.27  48 2.28  55 2.30
  16  0.876  0.626  0.867-  44 2.25  51 2.27  47 2.28  56 2.30
  17  0.124  0.124  0.617-  45 2.25  53 2.27  33 2.28  57 2.30
  18  0.624  0.124  0.617-  46 2.25  54 2.27  34 2.28  58 2.30
  19  0.124  0.624  0.617-  47 2.25  55 2.27  35 2.28  59 2.30
  20  0.624  0.624  0.617-  48 2.25  56 2.27  36 2.28  60 2.30
  21  0.376  0.376  0.617-  46 2.25  55 2.27  36 2.28  57 2.30
  22  0.876  0.376  0.617-  45 2.25  56 2.27  35 2.28  58 2.30
  23  0.376  0.876  0.617-  48 2.25  53 2.27  34 2.28  59 2.30
  24  0.876  0.876  0.617-  47 2.25  54 2.27  33 2.28  60 2.30
  25  0.374  0.124  0.367-  34 2.25  57 2.27  37 2.28  62 2.30
  26  0.874  0.124  0.367-  33 2.25  58 2.27  38 2.28  61 2.30
  27  0.374  0.624  0.367-  36 2.25  59 2.27  39 2.28  64 2.30
  28  0.874  0.624  0.367-  35 2.25  60 2.27  40 2.28  63 2.30
  29  0.126  0.376  0.367-  35 2.25  57 2.27  39 2.28  61 2.30
  30  0.626  0.376  0.367-  36 2.25  58 2.27  40 2.28  62 2.30
  31  0.126  0.876  0.367-  33 2.25  59 2.27  37 2.28  63 2.30
  32  0.626  0.876  0.367-  34 2.25  60 2.27  38 2.28  64 2.30
  33  0.000  0.000  0.507-  26 2.25  31 2.25  17 2.28  24 2.28
  34  0.500  0.000  0.507-  25 2.25  32 2.25  18 2.28  23 2.28
  35  0.000  0.500  0.507-  28 2.25  29 2.25  19 2.28  22 2.28
  36  0.500  0.500  0.507-  27 2.25  30 2.25  20 2.28  21 2.28
  37  0.250  0.000  0.257-   1 2.25   7 2.25  25 2.28  31 2.28
  38  0.750  0.000  0.257-   2 2.25   8 2.25  26 2.28  32 2.28
  39  0.250  0.500  0.257-   3 2.25   5 2.25  27 2.28  29 2.28
  40  0.750  0.500  0.257-   4 2.25   6 2.25  28 2.28  30 2.28
  41  0.250  0.250  0.007-   9 2.25  13 2.25   1 2.28   5 2.28
  42  0.750  0.250  0.007-  10 2.25  14 2.25   2 2.28   6 2.28
  43  0.250  0.750  0.007-  11 2.25  15 2.25   3 2.28   7 2.28
  44  0.750  0.750  0.007-  12 2.25  16 2.25   4 2.28   8 2.28
  45  0.000  0.250  0.757-  17 2.25  22 2.25   9 2.28  14 2.28
  46  0.500  0.250  0.757-  18 2.25  21 2.25  10 2.28  13 2.28
  47  0.000  0.750  0.757-  19 2.25  24 2.25  11 2.28  16 2.28
  48  0.500  0.750  0.757-  20 2.25  23 2.25  12 2.28  15 2.28
  49  0.000  0.000  0.009-  11 2.27  14 2.27   1 2.30   8 2.30
  50  0.500  0.000  0.009-  12 2.27  13 2.27   2 2.30   7 2.30
  51  0.000  0.500  0.009-   9 2.27  16 2.27   3 2.30   6 2.30
  52  0.500  0.500  0.009-  10 2.27  15 2.27   4 2.30   5 2.30
  53  0.250  0.000  0.759-  17 2.27  23 2.27  11 2.30  13 2.30
  54  0.750  0.000  0.759-  18 2.27  24 2.27  12 2.30  14 2.30
  55  0.250  0.500  0.759-  19 2.27  21 2.27   9 2.30  15 2.30
  56  0.750  0.500  0.759-  20 2.27  22 2.27  10 2.30  16 2.30
  57  0.250  0.250  0.509-  25 2.27  29 2.27  17 2.30  21 2.30
  58  0.750  0.250  0.509-  26 2.27  30 2.27  18 2.30  22 2.30
  59  0.250  0.750  0.509-  27 2.27  31 2.27  19 2.30  23 2.30
  60  0.750  0.750  0.509-  28 2.27  32 2.27  20 2.30  24 2.30
  61  0.000  0.250  0.259-   1 2.27   6 2.27  26 2.30  29 2.30
  62  0.500  0.250  0.259-   2 2.27   5 2.27  25 2.30  30 2.30
  63  0.000  0.750  0.259-   3 2.27   8 2.27  28 2.30  31 2.30
  64  0.500  0.750  0.259-   4 2.27   7 2.27  27 2.30  32 2.30
 
  LATTYP: Found a base centered orthorhombic cell.
 ALAT       =    13.7895764253
 B/A-ratio  =     1.1503930537
 C/A-ratio  =     0.7574259483
  
  Lattice vectors:
  
 A1 = (  10.4839220000,   0.7332190000,   0.0000000000)
 A2 = (  -0.7332190000, -10.4839220000,   0.0000000000)
 A3 = (   0.0000000000,   0.0000000000, -10.4445830000)


Analysis of symmetry for initial positions (statically):
=====================================================================
 Subroutine PRICEL returns following result:
 
  LATTYP: Found a face centered orthorhombic cell.
 ALAT       =     6.8947882126
 B/A-ratio  =     1.1503930537
 C/A-ratio  =     1.5148518965
  
  Lattice vectors:
  
 A1 = (  -2.8042852500,  -2.8042852500,   5.2222915000)
 A2 = (  -2.4376757500,   2.4376757500,   5.2222915000)
 A3 = (  -5.2419610000,  -0.3666095000,  -0.0000000000)
 
   8 primitive cells build up your supercell.
 

 Routine SETGRP: Setting up the symmetry group for a 
 base centered orthorhombic supercell.


 Subroutine GETGRP returns: Found  4 space group operations
 (whereof  2 operations were pure point group operations)
 out of a pool of  8 trial point group operations.


The static configuration has the point symmetry C_2 .
 The point group associated with its full space group is C_2v.


Analysis of symmetry for dynamics (positions and initial velocities):
=====================================================================
 Subroutine PRICEL returns following result:
 
  LATTYP: Found a face centered orthorhombic cell.
 ALAT       =     6.8947882126
 B/A-ratio  =     1.1503930537
 C/A-ratio  =     1.5148518965
  
  Lattice vectors:
  
 A1 = (  -2.8042852500,  -2.8042852500,   5.2222915000)
 A2 = (  -2.4376757500,   2.4376757500,   5.2222915000)
 A3 = (  -5.2419610000,  -0.3666095000,  -0.0000000000)
 
   8 primitive cells build up your supercell.
 

 Routine SETGRP: Setting up the symmetry group for a 
 base centered orthorhombic supercell.


 Subroutine GETGRP returns: Found  4 space group operations
 (whereof  2 operations were pure point group operations)
 out of a pool of  8 trial point group operations.


The dynamic configuration has the point symmetry C_2 .
 The point group associated with its full space group is C_2v.


Analysis of structural, dynamic, and magnetic symmetry:
=====================================================================
 Subroutine PRICEL returns following result:
 
  LATTYP: Found a face centered orthorhombic cell.
 ALAT       =     6.8947882126
 B/A-ratio  =     1.1503930537
 C/A-ratio  =     1.5148518965
  
  Lattice vectors:
  
 A1 = (  -2.8042852500,  -2.8042852500,   5.2222915000)
 A2 = (  -2.4376757500,   2.4376757500,   5.2222915000)
 A3 = (  -5.2419610000,  -0.3666095000,  -0.0000000000)
 
   8 primitive cells build up your supercell.
 

 Routine SETGRP: Setting up the symmetry group for a 
 base centered orthorhombic supercell.


 Subroutine GETGRP returns: Found  4 space group operations
 (whereof  2 operations were pure point group operations)
 out of a pool of  8 trial point group operations.


The magnetic configuration has the point symmetry C_2 .
 The point group associated with its full space group is C_2v.


 Subroutine INISYM returns: Found  4 space group operations
 (whereof  2 operations are pure point group operations),
 and found     8 'primitive' translations

 
 
 KPOINTS: Automatic mesh                          

Automatic generation of k-mesh.
Space group operators:
 irot       det(A)        alpha          n_x          n_y          n_z        tau_x        tau_y        tau_z
    1     1.000000     0.000001     1.000000     0.000000     0.000000     0.000000     0.000000     0.000000
    2     1.000000   180.000000     0.000000     0.000000     1.000000     0.000000     0.000000     0.000000
    3    -1.000000   179.999999     0.707107     0.707107     0.000000    -0.750000     0.000000     0.750000
    4    -1.000000   179.999999     0.707107    -0.707107     0.000000    -0.750000     0.000000     0.750000
 
 Subroutine IBZKPT returns following result:
 ===========================================
 
 Found      6 irreducible k-points:
 
 Following reciprocal coordinates:
            Coordinates               Weight
  0.000000  0.000000  0.000000      1.000000
  0.500000  0.000000  0.000000      2.000000
  0.500000  0.500000  0.000000      1.000000
  0.000000  0.000000  0.500000      1.000000
  0.500000  0.000000  0.500000      2.000000
  0.500000  0.500000  0.500000      1.000000
 
 Following cartesian coordinates:
            Coordinates               Weight
  0.000000  0.000000  0.000000      1.000000
  0.047926 -0.003352  0.000000      2.000000
  0.044575  0.044575  0.000000      1.000000
  0.000000  0.000000  0.047872      1.000000
  0.047926 -0.003352  0.047872      2.000000
  0.044575  0.044575  0.047872      1.000000
 
 TETIRR: Found     12 inequivalent tetrahedra from       48
 
 Subroutine IBZKPT_HF returns following result:
 ==============================================
 
 Found      8 k-points in 1st BZ
 the following      8 k-points will be used (e.g. in the exchange kernel)
 Following reciprocal coordinates:   # in IRBZ
  0.000000  0.000000  0.000000    0.12500000   1 t-inv F
  0.500000  0.000000  0.000000    0.12500000   2 t-inv F
  0.500000  0.500000  0.000000    0.12500000   3 t-inv F
  0.000000  0.000000  0.500000    0.12500000   4 t-inv F
  0.500000  0.000000  0.500000    0.12500000   5 t-inv F
  0.500000  0.500000  0.500000    0.12500000   6 t-inv F
 -0.000000 -0.500000  0.000000    0.12500000   2 t-inv F spinflp
 -0.000000 -0.500000  0.500000    0.12500000   5 t-inv F spinflp


--------------------------------------------------------------------------------------------------------




 Dimension of arrays:
   k-points           NKPTS =      6   k-points in BZ     NKDIM =      6   number of bands    NBANDS=    512
   number of dos      NEDOS =    301   number of ions     NIONS =     64
   non local maximal  LDIM  =      6   non local SUM 2l+1 LMDIM =     18
   total plane-waves  NPLWV = 829440
   max r-space proj   IRMAX =      1   max aug-charges    IRDMAX=  23071
   dimension x,y,z NGX =    96 NGY =   96 NGZ =   90
   dimension x,y,z NGXF=   192 NGYF=  192 NGZF=  180
   support grid    NGXF=   192 NGYF=  192 NGZF=  180
   ions per type =              32  16  16
   NGX,Y,Z   is equivalent  to a cutoff of  15.19, 15.19, 14.33 a.u.
   NGXF,Y,Z  is equivalent  to a cutoff of  30.37, 30.37, 28.65 a.u.

 SYSTEM =  CuFeS2                                  
 POSCAR =  Fe16 Cu16 S32                           

 Startparameter for this run:
   NWRITE =      2    write-flag & timer
   PREC   = accura    normal or accurate (medium, high low for compatibility)
   ISTART =      0    job   : 0-new  1-cont  2-samecut
   ICHARG =      1    charge: 1-file 2-atom 10-const
   ISPIN  =      2    spin polarized calculation?
   LNONCOLLINEAR =      F non collinear calculations
   LSORBIT =      F    spin-orbit coupling
   INIWAV =      1    electr: 0-lowe 1-rand  2-diag
   LASPH  =      F    aspherical Exc in radial PAW
   METAGGA=      F    non-selfconsistent MetaGGA calc.

 Electronic Relaxation 1
   ENCUT  =  700.0 eV  51.45 Ry    7.17 a.u.  22.67 22.67 22.53*2*pi/ulx,y,z
   ENINI  =  700.0     initial cutoff
   ENAUG  =  758.2 eV  augmentation charge cutoff
   NELM   =    500;   NELMIN=  2; NELMDL=  0     # of ELM steps 
   EDIFF  = 0.1E-07   stopping-criterion for ELM
   LREAL  =      F    real-space projection
   NLSPLINE    = F    spline interpolate recip. space projectors
   LCOMPAT=      F    compatible to vasp.4.4
   GGA_COMPAT  = T    GGA compatible to vasp.4.4-vasp.4.6
   LMAXPAW     = -100 max onsite density
   LMAXMIX     =    4 max onsite mixed and CHGCAR
   VOSKOWN=      0    Vosko Wilk Nusair interpolation
   ROPT   =    0.00000   0.00000   0.00000
 Ionic relaxation
   EDIFFG = -.1E-04   stopping-criterion for IOM
   NSW    =      0    number of steps for IOM
   NBLOCK =      1;   KBLOCK =      1    inner block; outer block 
   IBRION =     -1    ionic relax: 0-MD 1-quasi-New 2-CG
   NFREE  =      0    steps in history (QN), initial steepest desc. (CG)
   ISIF   =      2    stress and relaxation
   IWAVPR =     10    prediction:  0-non 1-charg 2-wave 3-comb
   ISYM   =      2    0-nonsym 1-usesym 2-fastsym
   LCORR  =      T    Harris-Foulkes like correction to forces

   POTIM  = 0.5000    time-step for ionic-motion
   TEIN   =    0.0    initial temperature
   TEBEG  =    0.0;   TEEND  =   0.0 temperature during run
   SMASS  =  -3.00    Nose mass-parameter (am)
   estimated Nose-frequenzy (Omega)   =  0.10E-29 period in steps =****** mass=  -0.252E-26a.u.
   SCALEE = 1.0000    scale energy and forces
   NPACO  =    256;   APACO  = 16.0  distance and # of slots for P.C.
   PSTRESS=    0.0 pullay stress

  Mass of Ions in am
   POMASS =  32.07 63.55 55.85
  Ionic Valenz
   ZVAL   =   6.00 17.00 14.00
  Atomic Wigner-Seitz radii
   RWIGS  =  -1.00 -1.00 -1.00
  virtual crystal weights 
   VCA    =   1.00  1.00  1.00
   NELECT =     688.0000    total number of electrons
   NUPDOWN=      -1.0000    fix difference up-down

 DOS related values:
   EMIN   =  10.00;   EMAX   =-10.00  energy-range for DOS
   EFERMI =   0.00
   ISMEAR =    -5;   SIGMA  =   0.03  broadening in eV -4-tet -1-fermi 0-gaus

 Electronic relaxation 2 (details)
   IALGO  =     38    algorithm
   LDIAG  =      T    sub-space diagonalisation (order eigenvalues)
   LSUBROT=      F    optimize rotation matrix (better conditioning)
   TURBO    =      0    0=normal 1=particle mesh
   IRESTART =      0    0=no restart 2=restart with 2 vectors
   NREBOOT  =      0    no. of reboots
   NMIN     =      0    reboot dimension
   EREF     =   0.00    reference energy to select bands
   IMIX   =      4    mixing-type and parameters
     AMIX     =   0.40;   BMIX     =  1.00
     AMIX_MAG =   1.60;   BMIX_MAG =  1.00
     AMIN     =   0.10
     WC   =   100.;   INIMIX=   1;  MIXPRE=   1;  MAXMIX= -45

 Intra band minimization:
   WEIMIN = 0.0000     energy-eigenvalue tresh-hold
   EBREAK =  0.49E-11  absolut break condition
   DEPER  =   0.30     relativ break condition  

   TIME   =   0.40     timestep for ELM

  volume/ion in A,a.u.               =      17.85       120.46
  Fermi-wavevector in a.u.,A,eV,Ry     =   1.382509  2.612563 26.005232  1.911331
  Thomas-Fermi vector in A             =   2.507193
 
 Write flags
   LWAVE        =      T    write WAVECAR
   LDOWNSAMPLE  =      F    k-point downsampling of WAVECAR
   LCHARG       =      T    write CHGCAR
   LVTOT        =      F    write LOCPOT, total local potential
   LVHAR        =      F    write LOCPOT, Hartree potential only
   LELF         =      F    write electronic localiz. function (ELF)
   LORBIT       =     11    0 simple, 1 ext, 2 COOP (PROOUT), +10 PAW based schemes


 Dipole corrections
   LMONO  =      F    monopole corrections only (constant potential shift)
   LDIPOL =      F    correct potential (dipole corrections)
   IDIPOL =      0    1-x, 2-y, 3-z, 4-all directions 
   EPSILON=  1.0000000 bulk dielectric constant

 LDA+U is selected, type is set to LDAUTYPE =  2
   angular momentum for each species LDAUL =     2    2    2
   U (eV)           for each species LDAUU =   0.0  0.1  4.7
   J (eV)           for each species LDAUJ =   0.0  0.0  0.0
 Exchange correlation treatment:
   GGA     =    PS    GGA type
   LEXCH   =    14    internal setting for exchange type
   VOSKOWN=      0    Vosko Wilk Nusair interpolation
   LHFCALC =     F    Hartree Fock is set to
   LHFONE  =     F    Hartree Fock one center treatment
   AEXX    =    0.0000 exact exchange contribution

 Linear response parameters
   LEPSILON=     F    determine dielectric tensor
   LRPA    =     F    only Hartree local field effects (RPA)
   LNABLA  =     F    use nabla operator in PAW spheres
   LVEL    =     F    velocity operator in full k-point grid
   LINTERFAST=   F  fast interpolation
   KINTER  =     0    interpolate to denser k-point grid
   CSHIFT  =0.1000    complex shift for real part using Kramers Kronig
   OMEGAMAX=  -1.0    maximum frequency
   DEG_THRESHOLD= 0.2000000E-02 threshold for treating states as degnerate
   RTIME   =   -0.100 relaxation time in fs
  (WPLASMAI=    0.000 imaginary part of plasma frequency in eV, 0.658/RTIME)
   DFIELD  = 0.0000000 0.0000000 0.0000000 field for delta impulse in time
 
 Orbital magnetization related:
   ORBITALMAG=     F  switch on orbital magnetization
   LCHIMAG   =     F  perturbation theory with respect to B field
   DQ        =  0.001000  dq finite difference perturbation B field
   LLRAUG    =     F  two centre corrections for induced B field

 PEAD related settings:
   LPEAD      =     T    switch on PEAD
   IPEAD      =     4    finite difference order for dpsi/dk
   LCALCPOL   =     T    calculate macroscopic polarization
   LCALCEPS   =     F    calculate dielectric tensor
   EFIELD_PEAD=    0.0000    0.0000    0.0000
   SKIP_EDOTP =     F
   LRPA       =     F
   SKIP_SCF   =     F


--------------------------------------------------------------------------------------------------------


 Static calculation
 charge density and potential will be updated during run
 spin polarized calculation
 Variant of blocked Davidson
 Davidson routine will perform the subspace rotation
 perform sub-space diagonalisation
    after iterative eigenvector-optimisation
 modified Broyden-mixing scheme, WC =      100.0
 initial mixing is a Kerker type mixing with AMIX =  0.4000 and BMIX =      1.0000
 Hartree-type preconditioning will be used
 using additional bands          168
 reciprocal scheme for non local part
 use partial core corrections
 calculate Harris-corrections to forces 
   (improved forces if not selfconsistent)
 use gradient corrections 
 use of overlap-Matrix (Vanderbilt PP)
 Fermi weights with tetrahedron method with Bloechl corrections


--------------------------------------------------------------------------------------------------------


  energy-cutoff  :      700.00
  volume of cell :     1142.38
      direct lattice vectors                 reciprocal lattice vectors
    10.483922000  0.733219000  0.000000000     0.095852992 -0.006703716  0.000000000
     0.733219000 10.483922000  0.000000000    -0.006703716  0.095852992  0.000000000
     0.000000000  0.000000000 10.444583000     0.000000000  0.000000000  0.095743411

  length of vectors
    10.509530465 10.509530465 10.444583000     0.096087127  0.096087127  0.095743411


 
 k-points in units of 2pi/SCALE and weight: Automatic mesh                          
   0.00000000  0.00000000  0.00000000       0.125
   0.04792650 -0.00335186  0.00000000       0.250
   0.04457464  0.04457464  0.00000000       0.125
   0.00000000  0.00000000  0.04787171       0.125
   0.04792650 -0.00335186  0.04787171       0.250
   0.04457464  0.04457464  0.04787171       0.125
 
 k-points in reciprocal lattice and weights: Automatic mesh                          
   0.00000000  0.00000000  0.00000000       0.125
   0.50000000  0.00000000  0.00000000       0.250
   0.50000000  0.50000000  0.00000000       0.125
   0.00000000  0.00000000  0.50000000       0.125
   0.50000000  0.00000000  0.50000000       0.250
   0.50000000  0.50000000  0.50000000       0.125
 
 position of ions in fractional coordinates (direct lattice) 
   0.12601900  0.12579800  0.11740600
   0.62601900  0.12579800  0.11740600
   0.12601900  0.62579800  0.11740600
   0.62601900  0.62579800  0.11740600
   0.37398100  0.37420200  0.11740600
   0.87398100  0.37420200  0.11740600
   0.37398100  0.87420200  0.11740600
   0.87398100  0.87420200  0.11740600
   0.12420200  0.37398100  0.86740600
   0.62420200  0.37398100  0.86740600
   0.12420200  0.87398100  0.86740600
   0.62420200  0.87398100  0.86740600
   0.37579800  0.12601900  0.86740600
   0.87579800  0.12601900  0.86740600
   0.37579800  0.62601900  0.86740600
   0.87579800  0.62601900  0.86740600
   0.12398100  0.12420200  0.61740600
   0.62398100  0.12420200  0.61740600
   0.12398100  0.62420200  0.61740600
   0.62398100  0.62420200  0.61740600
   0.37601900  0.37579800  0.61740600
   0.87601900  0.37579800  0.61740600
   0.37601900  0.87579800  0.61740600
   0.87601900  0.87579800  0.61740600
   0.37420200  0.12398100  0.36740600
   0.87420200  0.12398100  0.36740600
   0.37420200  0.62398100  0.36740600
   0.87420200  0.62398100  0.36740600
   0.12579800  0.37601900  0.36740600
   0.62579800  0.37601900  0.36740600
   0.12579800  0.87601900  0.36740600
   0.62579800  0.87601900  0.36740600
   0.00000000  0.00000000  0.50655700
   0.50000000  0.00000000  0.50655700
   0.00000000  0.50000000  0.50655700
   0.50000000  0.50000000  0.50655700
   0.25000000  0.00000000  0.25655700
   0.75000000  0.00000000  0.25655700
   0.25000000  0.50000000  0.25655700
   0.75000000  0.50000000  0.25655700
   0.25000000  0.25000000  0.00655700
   0.75000000  0.25000000  0.00655700
   0.25000000  0.75000000  0.00655700
   0.75000000  0.75000000  0.00655700
   0.00000000  0.25000000  0.75655700
   0.50000000  0.25000000  0.75655700
   0.00000000  0.75000000  0.75655700
   0.50000000  0.75000000  0.75655700
   0.00000000  0.00000000  0.00863100
   0.50000000  0.00000000  0.00863100
   0.00000000  0.50000000  0.00863100
   0.50000000  0.50000000  0.00863100
   0.25000000  0.00000000  0.75863100
   0.75000000  0.00000000  0.75863100
   0.25000000  0.50000000  0.75863100
   0.75000000  0.50000000  0.75863100
   0.25000000  0.25000000  0.50863100
   0.75000000  0.25000000  0.50863100
   0.25000000  0.75000000  0.50863100
   0.75000000  0.75000000  0.50863100
   0.00000000  0.25000000  0.25863100
   0.50000000  0.25000000  0.25863100
   0.00000000  0.75000000  0.25863100
   0.50000000  0.75000000  0.25863100
 
 position of ions in cartesian coordinates  (Angst):
   1.41341085  1.41125594  1.22625671
   6.65537185  1.77786544  1.22625671
   1.78002035  6.65321694  1.22625671
   7.02198135  7.01982644  1.22625671
   4.19515965  4.19731456  1.22625671
   9.43712065  4.56392406  1.22625671
   4.56176915  9.43927556  1.22625671
   9.80373015  9.80588506  1.22625671
   1.57633406  4.01185490  9.05969396
   6.81829506  4.37846440  9.05969396
   1.94294356  9.25381590  9.05969396
   7.18490456  9.62042540  9.05969396
   4.03223644  1.59671560  9.05969396
   9.27419744  1.96332510  9.05969396
   4.39884594  6.83867660  9.05969396
   9.64080694  7.20528610  9.05969396
   1.39087440  1.39302931  6.44854821
   6.63283540  1.75963881  6.44854821
   1.75748390  6.63499031  6.44854821
   6.99944490  7.00159981  6.44854821
   4.21769610  4.21554119  6.44854821
   9.45965710  4.58215069  6.44854821
   4.58430560  9.45750219  6.44854821
   9.82626660  9.82411169  6.44854821
   4.01400981  1.57417915  3.83740246
   9.25597081  1.94078865  3.83740246
   4.38061931  6.81614015  3.83740246
   9.62258031  7.18274965  3.83740246
   1.59456069  4.03439135  3.83740246
   6.83652169  4.40100085  3.83740246
   1.96117019  9.27635235  3.83740246
   7.20313119  9.64296185  3.83740246
   0.00000000  0.00000000  5.29077663
   5.24196100  0.36660950  5.29077663
   0.36660950  5.24196100  5.29077663
   5.60857050  5.60857050  5.29077663
   2.62098050  0.18330475  2.67963088
   7.86294150  0.54991425  2.67963088
   2.98759000  5.42526575  2.67963088
   8.22955100  5.79187525  2.67963088
   2.80428525  2.80428525  0.06848513
   8.04624625  3.17089475  0.06848513
   3.17089475  8.04624625  0.06848513
   8.41285575  8.41285575  0.06848513
   0.18330475  2.62098050  7.90192238
   5.42526575  2.98759000  7.90192238
   0.54991425  7.86294150  7.90192238
   5.79187525  8.22955100  7.90192238
   0.00000000  0.00000000  0.09014720
   5.24196100  0.36660950  0.09014720
   0.36660950  5.24196100  0.09014720
   5.60857050  5.60857050  0.09014720
   2.62098050  0.18330475  7.92358445
   7.86294150  0.54991425  7.92358445
   2.98759000  5.42526575  7.92358445
   8.22955100  5.79187525  7.92358445
   2.80428525  2.80428525  5.31243870
   8.04624625  3.17089475  5.31243870
   3.17089475  8.04624625  5.31243870
   8.41285575  8.41285575  5.31243870
   0.18330475  2.62098050  2.70129295
   5.42526575  2.98759000  2.70129295
   0.54991425  7.86294150  2.70129295
   5.79187525  8.22955100  2.70129295
 


--------------------------------------------------------------------------------------------------------


 k-point  1 :   0.0000 0.0000 0.0000  plane waves:   47987
 k-point  2 :   0.5000 0.0000 0.0000  plane waves:   48072
 k-point  3 :   0.5000 0.5000 0.0000  plane waves:   48068
 k-point  4 :   0.0000 0.0000 0.5000  plane waves:   48082
 k-point  5 :   0.5000 0.0000 0.5000  plane waves:   48000
 k-point  6 :   0.5000 0.5000 0.5000  plane waves:   47948

 maximum and minimum number of plane-waves per node :     48082    47948

 maximum number of plane-waves:     48082
 maximum index in each direction: 
   IXMAX=   22   IYMAX=   22   IZMAX=   22
   IXMIN=  -23   IYMIN=  -23   IZMIN=  -23


 serial   3D FFT for wavefunctions
 parallel 3D FFT for charge:
    minimum data exchange during FFTs selected (reduces bandwidth)


 total amount of memory used by VASP MPI-rank0   299201. kBytes
=======================================================================

   base      :      30000. kBytes
   nonl-proj :     174030. kBytes
   fftplans  :       4588. kBytes
   grid      :      69719. kBytes
   one-center:       1990. kBytes
   wavefun   :      18874. kBytes
 
     INWAV:  cpu time    0.0000: real time    0.0000
 Broyden mixing: mesh for mixing (old mesh)
   NGX = 45   NGY = 45   NGZ = 45
  (NGX  =192   NGY  =192   NGZ  =180)
  gives a total of  91125 points

 initial charge density was supplied:
 charge density of overlapping atoms calculated
 number of electron     688.0000000 magnetization       0.0000000
 keeping initial charge density in first step


--------------------------------------------------------------------------------------------------------


 Maximum index for augmentation-charges          890 (set IRDMAX)


--------------------------------------------------------------------------------------------------------


 First call to EWALD:  gamma=   0.170
 Maximum number of real-space cells 3x 3x 3
 Maximum number of reciprocal cells 3x 3x 3

    FEWALD:  cpu time    0.0025: real time    0.0029


--------------------------------------- Iteration      1(   1)  ---------------------------------------


    POTLOK:  cpu time    0.3510: real time    0.4114
    SETDIJ:  cpu time    0.0145: real time    0.0147
     EDDAV:  cpu time   63.1066: real time   63.6922
 BZINTS: Fermi energy: 16.913741;688.000000 electrons
         Band energy:***********;  BLOECHL correction: -0.018037
       DOS:  cpu time    0.0202: real time    0.0203
    --------------------------------------------
      LOOP:  cpu time   63.4923: real time   64.1387

 eigenvalue-minimisations  : 12288
 total energy-change (2. order) : 0.6198724E+04  (-0.5034139E+05)
 number of electron     688.0000000 magnetization       0.0000000
 augmentation part      688.0000000 magnetization       0.0000000

 Free energy of the ion-electron system (eV)
  ---------------------------------------------------
  alpha Z        PSCENC =      2373.25509001
  Ewald energy   TEWEN  =    -62705.19294517
  -Hartree energ DENC   =    -44161.99889391
  -exchange      EXHF   =         0.00000000
  -V(xc)+E(xc)   XCENC  =      3319.93689474
  PAW double counting   =     94592.23312189   -98164.79192727
  entropy T*S    EENTRO =         0.00000000
  eigenvalues    EBANDS =     -3074.78262721
  atomic energy  EATOM  =    114020.06510763
  Solvation  Ediel_sol  =         0.00000000
  ---------------------------------------------------
  free energy    TOTEN  =      6198.72382070 eV

  energy without entropy =     6198.72382070  energy(sigma->0) =     6198.72382070


--------------------------------------------------------------------------------------------------------




--------------------------------------- Iteration      1(   2)  ---------------------------------------


     EDDAV:  cpu time   72.9502: real time   73.5149
 BZINTS: Fermi energy:  6.890348;688.000000 electrons
         Band energy:***********;  BLOECHL correction:  0.000000
       DOS:  cpu time    0.0032: real time    0.0032
    --------------------------------------------
      LOOP:  cpu time   72.9534: real time   73.5181

 eigenvalue-minimisations  : 13312
 total energy-change (2. order) :-0.6294097E+04  (-0.6162268E+04)
 number of electron     688.0000000 magnetization       0.0000000
 augmentation part      688.0000000 magnetization       0.0000000

 Free energy of the ion-electron system (eV)
  ---------------------------------------------------
  alpha Z        PSCENC =      2373.25509001
  Ewald energy   TEWEN  =    -62705.19294517
  -Hartree energ DENC   =    -44161.99889391
  -exchange      EXHF   =         0.00000000
  -V(xc)+E(xc)   XCENC  =      3319.93689474
  PAW double counting   =     94592.23312189   -98164.79192727
  entropy T*S    EENTRO =         0.00000000
  eigenvalues    EBANDS =     -9368.87935593
  atomic energy  EATOM  =    114020.06510763
  Solvation  Ediel_sol  =         0.00000000
  ---------------------------------------------------
  free energy    TOTEN  =       -95.37290802 eV

  energy without entropy =      -95.37290802  energy(sigma->0) =      -95.37290802


--------------------------------------------------------------------------------------------------------




--------------------------------------- Iteration      1(   3)  ---------------------------------------


     EDDAV:  cpu time  117.2402: real time  118.0481
 BZINTS: Fermi energy:  6.222366;688.000000 electrons
         Band energy:***********;  BLOECHL correction:  0.000000
       DOS:  cpu time    0.0032: real time    0.0032
    --------------------------------------------
      LOOP:  cpu time  117.2434: real time  118.0513

 eigenvalue-minimisations  : 16896
 total energy-change (2. order) :-0.2754185E+03  (-0.2742956E+03)
 number of electron     688.0000000 magnetization       0.0000000
 augmentation part      688.0000000 magnetization       0.0000000

 Free energy of the ion-electron system (eV)
  ---------------------------------------------------
  alpha Z        PSCENC =      2373.25509001
  Ewald energy   TEWEN  =    -62705.19294517
  -Hartree energ DENC   =    -44161.99889391
  -exchange      EXHF   =         0.00000000
  -V(xc)+E(xc)   XCENC  =      3319.93689474
  PAW double counting   =     94592.23312189   -98164.79192727
  entropy T*S    EENTRO =         0.00000000
  eigenvalues    EBANDS =     -9644.29781713
  atomic energy  EATOM  =    114020.06510763
  Solvation  Ediel_sol  =         0.00000000
  ---------------------------------------------------
  free energy    TOTEN  =      -370.79136922 eV

  energy without entropy =     -370.79136922  energy(sigma->0) =     -370.79136922


--------------------------------------------------------------------------------------------------------




--------------------------------------- Iteration      1(   4)  ---------------------------------------


     EDDAV:  cpu time   89.7970: real time   90.4534
 BZINTS: Fermi energy:  6.297288;688.000000 electrons
         Band energy:***********;  BLOECHL correction:  0.000000
       DOS:  cpu time    0.0032: real time    0.0033
    --------------------------------------------
      LOOP:  cpu time   89.8002: real time   90.4567

 eigenvalue-minimisations  : 14336
 total energy-change (2. order) :-0.3927862E+01  (-0.3927533E+01)
 number of electron     688.0000000 magnetization       0.0000000
 augmentation part      688.0000000 magnetization       0.0000000

 Free energy of the ion-electron system (eV)
  ---------------------------------------------------
  alpha Z        PSCENC =      2373.25509001
  Ewald energy   TEWEN  =    -62705.19294517
  -Hartree energ DENC   =    -44161.99889391
  -exchange      EXHF   =         0.00000000
  -V(xc)+E(xc)   XCENC  =      3319.93689474
  PAW double counting   =     94592.23312189   -98164.79192727
  entropy T*S    EENTRO =         0.00000000
  eigenvalues    EBANDS =     -9648.22567955
  atomic energy  EATOM  =    114020.06510763
  Solvation  Ediel_sol  =         0.00000000
  ---------------------------------------------------
  free energy    TOTEN  =      -374.71923165 eV

  energy without entropy =     -374.71923165  energy(sigma->0) =     -374.71923165


--------------------------------------------------------------------------------------------------------




--------------------------------------- Iteration      1(   5)  ---------------------------------------


     EDDAV:  cpu time  114.6091: real time  115.4025
 BZINTS: Fermi energy:  6.275486;688.000000 electrons
         Band energy:***********;  BLOECHL correction:  0.000000
       DOS:  cpu time    0.0032: real time    0.0032
    CHARGE:  cpu time    1.2118: real time    1.2188
    MIXING:  cpu time    0.0044: real time    0.0045
    --------------------------------------------
      LOOP:  cpu time  115.8285: real time  116.6290

 eigenvalue-minimisations  : 16384
 total energy-change (2. order) :-0.1039460E+00  (-0.1039454E+00)
 number of electron     688.0000366 magnetization      -0.0000000
 augmentation part      260.9286094 magnetization      -0.0000000

 Broyden mixing:
  rms(total) = 0.75195E+01    rms(broyden)= 0.75195E+01
  rms(prec ) = 0.90272E+01
  weight for this iteration     100.00

 Free energy of the ion-electron system (eV)
  ---------------------------------------------------
  alpha Z        PSCENC =      2373.25509001
  Ewald energy   TEWEN  =    -62705.19294517
  -Hartree energ DENC   =    -44161.99889391
  -exchange      EXHF   =         0.00000000
  -V(xc)+E(xc)   XCENC  =      3319.93689474
  PAW double counting   =     94592.23312189   -98164.79192727
  entropy T*S    EENTRO =         0.00000000
  eigenvalues    EBANDS =     -9648.32962558
  atomic energy  EATOM  =    114020.06510763
  Solvation  Ediel_sol  =         0.00000000
  ---------------------------------------------------
  free energy    TOTEN  =      -374.82317768 eV

  energy without entropy =     -374.82317768  energy(sigma->0) =     -374.82317768


--------------------------------------------------------------------------------------------------------




--------------------------------------- Iteration      1(   6)  ---------------------------------------


    POTLOK:  cpu time    0.1414: real time    0.1423
    SETDIJ:  cpu time    0.0132: real time    0.0133
     EDDAV:  cpu time   65.7037: real time   66.2192
 BZINTS: Fermi energy:  4.425490;688.000000 electrons
         Band energy:***********;  BLOECHL correction:  0.000000
       DOS:  cpu time    0.0053: real time    0.0053
    CHARGE:  cpu time    1.2065: real time    1.2136
    MIXING:  cpu time    0.0028: real time    0.0252
    --------------------------------------------
      LOOP:  cpu time   67.0729: real time   67.6189

 eigenvalue-minimisations  : 12288
 total energy-change (2. order) : 0.4128580E+02  (-0.5968606E+02)
 number of electron     688.0000383 magnetization      -0.0000000
 augmentation part      297.0431669 magnetization      -0.0000000

 Broyden mixing:
  rms(total) = 0.10090E+02    rms(broyden)= 0.10090E+02
  rms(prec ) = 0.10592E+02
  weight for this iteration     100.00

 eigenvalues of (default mixing * dielectric matrix)
  average eigenvalue GAMMA=   0.1734
  0.1734

 Free energy of the ion-electron system (eV)
  ---------------------------------------------------
  alpha Z        PSCENC =      2373.25509001
  Ewald energy   TEWEN  =    -62705.19294517
  -Hartree energ DENC   =    -42194.35926461
  -exchange      EXHF   =         0.00000000
  -V(xc)+E(xc)   XCENC  =      3267.21205784
  PAW double counting   =     96366.54852514   -99723.98977657
  entropy T*S    EENTRO =         0.00000000
  eigenvalues    EBANDS =    -11737.07616978
  atomic energy  EATOM  =    114020.06510763
  Solvation  Ediel_sol  =         0.00000000
  ---------------------------------------------------
  free energy    TOTEN  =      -333.53737552 eV

  energy without entropy =     -333.53737552  energy(sigma->0) =     -333.53737552


--------------------------------------------------------------------------------------------------------




--------------------------------------- Iteration      1(   7)  ---------------------------------------


    POTLOK:  cpu time    0.1338: real time    0.1381
    SETDIJ:  cpu time    0.0132: real time    0.0133
     EDDAV:  cpu time   64.4466: real time   64.9551
 BZINTS: Fermi energy:  4.795298;688.000000 electrons
         Band energy:***********;  BLOECHL correction:  0.000000
       DOS:  cpu time    0.0032: real time    0.0032
    CHARGE:  cpu time    1.1893: real time    1.1965
    MIXING:  cpu time    0.0020: real time    0.0155
    --------------------------------------------
      LOOP:  cpu time   65.7881: real time   66.3216

 eigenvalue-minimisations  : 12288
 total energy-change (2. order) : 0.5884723E+01  (-0.1264133E+02)
 number of electron     688.0000384 magnetization       0.0000000
 augmentation part      285.8825281 magnetization       0.0000000

 Broyden mixing:
  rms(total) = 0.43816E+01    rms(broyden)= 0.43816E+01
  rms(prec ) = 0.44632E+01
  weight for this iteration     100.00

 eigenvalues of (default mixing * dielectric matrix)
  average eigenvalue GAMMA=   0.6143
  0.7744  0.4543

 Free energy of the ion-electron system (eV)
  ---------------------------------------------------
  alpha Z        PSCENC =      2373.25509001
  Ewald energy   TEWEN  =    -62705.19294517
  -Hartree energ DENC   =    -42696.28795204
  -exchange      EXHF   =         0.00000000
  -V(xc)+E(xc)   XCENC  =      3278.73570746
  PAW double counting   =     99803.41057862  -103320.02244455
  entropy T*S    EENTRO =         0.00000000
  eigenvalues    EBANDS =    -11081.61579467
  atomic energy  EATOM  =    114020.06510763
  Solvation  Ediel_sol  =         0.00000000
  ---------------------------------------------------
  free energy    TOTEN  =      -327.65265270 eV

  energy without entropy =     -327.65265270  energy(sigma->0) =     -327.65265270


--------------------------------------------------------------------------------------------------------




--------------------------------------- Iteration      1(   8)  ---------------------------------------


    POTLOK:  cpu time    0.1400: real time    0.1409
    SETDIJ:  cpu time    0.0131: real time    0.0131
     EDDAV:  cpu time  101.1167: real time  101.8430
 BZINTS: Fermi energy:  5.416199;688.000000 electrons
         Band energy:***********;  BLOECHL correction:  0.000000
       DOS:  cpu time    0.0028: real time    0.0028
    CHARGE:  cpu time    1.2064: real time    1.2137
    MIXING:  cpu time    0.0030: real time    0.0030
    --------------------------------------------
      LOOP:  cpu time  102.4820: real time  103.2166

 eigenvalue-minimisations  : 15360
 total energy-change (2. order) :-0.6269492E+00  (-0.4432245E+01)
 number of electron     688.0000373 magnetization       0.0000000
 augmentation part      281.6134288 magnetization       0.0000000

 Broyden mixing:
  rms(total) = 0.34750E+01    rms(broyden)= 0.34750E+01
  rms(prec ) = 0.38325E+01
  weight for this iteration     100.00

 eigenvalues of (default mixing * dielectric matrix)
  average eigenvalue GAMMA=   0.8296
  1.4435  0.6187  0.4268

 Free energy of the ion-electron system (eV)
  ---------------------------------------------------
  alpha Z        PSCENC =      2373.25509001
  Ewald energy   TEWEN  =    -62705.19294517
  -Hartree energ DENC   =    -42954.23671058
  -exchange      EXHF   =         0.00000000
  -V(xc)+E(xc)   XCENC  =      3291.53571153
  PAW double counting   =    105198.20398590  -108812.87758403
  entropy T*S    EENTRO =         0.00000000
  eigenvalues    EBANDS =    -10739.03225718
  atomic energy  EATOM  =    114020.06510763
  Solvation  Ediel_sol  =         0.00000000
  ---------------------------------------------------
  free energy    TOTEN  =      -328.27960189 eV

  energy without entropy =     -328.27960189  energy(sigma->0) =     -328.27960189


--------------------------------------------------------------------------------------------------------




--------------------------------------- Iteration      1(   9)  ---------------------------------------


    POTLOK:  cpu time    0.1475: real time    0.1485
    SETDIJ:  cpu time    0.0156: real time    0.0157
     EDDAV:  cpu time   93.6439: real time   94.3328
 BZINTS: Fermi energy:  4.812348;688.000000 electrons
         Band energy:***********;  BLOECHL correction:  0.000000
       DOS:  cpu time    0.0032: real time    0.0033
    CHARGE:  cpu time    1.2070: real time    1.2141
    MIXING:  cpu time    0.0018: real time    0.0018
    --------------------------------------------
      LOOP:  cpu time   95.0191: real time   95.7162

 eigenvalue-minimisations  : 15360
 total energy-change (2. order) :-0.1320719E+01  (-0.1211799E+02)
 number of electron     688.0000386 magnetization       0.0000000
 augmentation part      282.2039628 magnetization       0.0000000

 Broyden mixing:
  rms(total) = 0.23987E+01    rms(broyden)= 0.23986E+01
  rms(prec ) = 0.28506E+01
  weight for this iteration     100.00

 eigenvalues of (default mixing * dielectric matrix)
  average eigenvalue GAMMA=   0.9741
  2.3753  0.6499  0.5506  0.3207

 Free energy of the ion-electron system (eV)
  ---------------------------------------------------
  alpha Z        PSCENC =      2373.25509001
  Ewald energy   TEWEN  =    -62705.19294517
  -Hartree energ DENC   =    -42735.60882871
  -exchange      EXHF   =         0.00000000
  -V(xc)+E(xc)   XCENC  =      3283.84653291
  PAW double counting   =    109282.34229983  -112930.13819407
  entropy T*S    EENTRO =         0.00000000
  eigenvalues    EBANDS =    -10918.16938299
  atomic energy  EATOM  =    114020.06510763
  Solvation  Ediel_sol  =         0.00000000
  ---------------------------------------------------
  free energy    TOTEN  =      -329.60032055 eV

  energy without entropy =     -329.60032055  energy(sigma->0) =     -329.60032055


--------------------------------------------------------------------------------------------------------




--------------------------------------- Iteration      1(  10)  ---------------------------------------


    POTLOK:  cpu time    0.1409: real time    0.1420
    SETDIJ:  cpu time    0.0131: real time    0.0132
     EDDAV:  cpu time  102.0621: real time  102.8025
 BZINTS: Fermi energy:  5.256948;688.000000 electrons
         Band energy:***********;  BLOECHL correction:  0.000000
       DOS:  cpu time    0.0032: real time    0.0032
    CHARGE:  cpu time    1.1914: real time    1.1992
    MIXING:  cpu time    0.0021: real time    0.0035
    --------------------------------------------
      LOOP:  cpu time  103.4128: real time  104.1635

 eigenvalue-minimisations  : 15872
 total energy-change (2. order) : 0.3711268E+01  (-0.2051212E+01)
 number of electron     688.0000381 magnetization       0.0000000
 augmentation part      282.4886353 magnetization       0.0000000

 Broyden mixing:
  rms(total) = 0.28613E+00    rms(broyden)= 0.28609E+00
  rms(prec ) = 0.34102E+00
  weight for this iteration     100.00

 eigenvalues of (default mixing * dielectric matrix)
  average eigenvalue GAMMA=   0.9247
  2.3440  0.7989  0.5827  0.5827  0.3150

 Free energy of the ion-electron system (eV)
  ---------------------------------------------------
  alpha Z        PSCENC =      2373.25509001
  Ewald energy   TEWEN  =    -62705.19294517
  -Hartree energ DENC   =    -42761.49563159
  -exchange      EXHF   =         0.00000000
  -V(xc)+E(xc)   XCENC  =      3286.98105732
  PAW double counting   =    113071.94654013  -116767.72929520
  entropy T*S    EENTRO =         0.00000000
  eigenvalues    EBANDS =    -10843.71897529
  atomic energy  EATOM  =    114020.06510763
  Solvation  Ediel_sol  =         0.00000000
  ---------------------------------------------------
  free energy    TOTEN  =      -325.88905215 eV

  energy without entropy =     -325.88905215  energy(sigma->0) =     -325.88905215


--------------------------------------------------------------------------------------------------------




--------------------------------------- Iteration      1(  11)  ---------------------------------------


    POTLOK:  cpu time    0.1394: real time    0.1404
    SETDIJ:  cpu time    0.0132: real time    0.0132
     EDDAV:  cpu time  148.5142: real time  149.5273
 BZINTS: Fermi energy:  5.270167;688.000000 electrons
         Band energy:***********;  BLOECHL correction:  0.000000
       DOS:  cpu time    0.0032: real time    0.0032
    CHARGE:  cpu time    1.4116: real time    1.4198
    MIXING:  cpu time    0.0021: real time    0.0021
    --------------------------------------------
      LOOP:  cpu time  150.0836: real time  151.1061

 eigenvalue-minimisations  : 19968
 total energy-change (2. order) :-0.1006148E+00  (-0.1536968E+00)
 number of electron     688.0000380 magnetization       0.0000000
 augmentation part      282.4275940 magnetization       0.0000000

 Broyden mixing:
  rms(total) = 0.35594E+00    rms(broyden)= 0.35592E+00
  rms(prec ) = 0.38992E+00
  weight for this iteration     100.00

 eigenvalues of (default mixing * dielectric matrix)
  average eigenvalue GAMMA=   0.9014
  2.2320  0.9097  0.6919  0.6919  0.5578  0.3253

 Free energy of the ion-electron system (eV)
  ---------------------------------------------------
  alpha Z        PSCENC =      2373.25509001
  Ewald energy   TEWEN  =    -62705.19294517
  -Hartree energ DENC   =    -42783.59856059
  -exchange      EXHF   =         0.00000000
  -V(xc)+E(xc)   XCENC  =      3286.88233830
  PAW double counting   =    112874.45456335  -116570.30755519
  entropy T*S    EENTRO =         0.00000000
  eigenvalues    EBANDS =    -10821.54770529
  atomic energy  EATOM  =    114020.06510763
  Solvation  Ediel_sol  =         0.00000000
  ---------------------------------------------------
  free energy    TOTEN  =      -325.98966695 eV

  energy without entropy =     -325.98966695  energy(sigma->0) =     -325.98966695


--------------------------------------------------------------------------------------------------------




--------------------------------------- Iteration      1(  12)  ---------------------------------------


    POTLOK:  cpu time    0.1479: real time    0.1514
    SETDIJ:  cpu time    0.0142: real time    0.0143
     EDDAV:  cpu time  106.5230: real time  107.2804
 BZINTS: Fermi energy:  5.252608;688.000000 electrons
         Band energy:***********;  BLOECHL correction:  0.000000
       DOS:  cpu time    0.0032: real time    0.0032
    CHARGE:  cpu time    1.2044: real time    1.2117
    MIXING:  cpu time    0.0020: real time    0.0020
    --------------------------------------------
      LOOP:  cpu time  107.8947: real time  108.6630

 eigenvalue-minimisations  : 15872
 total energy-change (2. order) : 0.1020205E-02  (-0.4605870E-01)
 number of electron     688.0000381 magnetization       0.0000000
 augmentation part      282.2858908 magnetization       0.0000000

 Broyden mixing:
  rms(total) = 0.13340E+00    rms(broyden)= 0.13340E+00
  rms(prec ) = 0.14707E+00
  weight for this iteration     100.00

 eigenvalues of (default mixing * dielectric matrix)
  average eigenvalue GAMMA=   0.9523
  2.2576  1.1331  1.1331  0.6285  0.6285  0.5609  0.3244

 Free energy of the ion-electron system (eV)
  ---------------------------------------------------
  alpha Z        PSCENC =      2373.25509001
  Ewald energy   TEWEN  =    -62705.19294517
  -Hartree energ DENC   =    -42785.33875264
  -exchange      EXHF   =         0.00000000
  -V(xc)+E(xc)   XCENC  =      3286.37382150
  PAW double counting   =    112485.46817338  -116177.91732299
  entropy T*S    EENTRO =         0.00000000
  eigenvalues    EBANDS =    -10822.70181847
  atomic energy  EATOM  =    114020.06510763
  Solvation  Ediel_sol  =         0.00000000
  ---------------------------------------------------
  free energy    TOTEN  =      -325.98864675 eV

  energy without entropy =     -325.98864675  energy(sigma->0) =     -325.98864675


--------------------------------------------------------------------------------------------------------




--------------------------------------- Iteration      1(  13)  ---------------------------------------


    POTLOK:  cpu time    0.1414: real time    0.1424
    SETDIJ:  cpu time    0.0131: real time    0.0131
     EDDAV:  cpu time  100.5628: real time  101.2863
 BZINTS: Fermi energy:  5.251380;688.000000 electrons
         Band energy:***********;  BLOECHL correction:  0.000000
       DOS:  cpu time    0.0032: real time    0.0032
    CHARGE:  cpu time    1.1895: real time    1.1971
    MIXING:  cpu time    0.0021: real time    0.0021
    --------------------------------------------
      LOOP:  cpu time  101.9122: real time  102.6443

 eigenvalue-minimisations  : 15360
 total energy-change (2. order) :-0.1450915E-01  (-0.4176718E-02)
 number of electron     688.0000381 magnetization      -0.0000000
 augmentation part      282.3064735 magnetization      -0.0000000

 Broyden mixing:
  rms(total) = 0.89370E-01    rms(broyden)= 0.89369E-01
  rms(prec ) = 0.96302E-01
  weight for this iteration     100.00

 eigenvalues of (default mixing * dielectric matrix)
  average eigenvalue GAMMA=   1.1309
  2.5460  2.5460  0.3243  0.9540  0.6965  0.6965  0.7279  0.5560

 Free energy of the ion-electron system (eV)
  ---------------------------------------------------
  alpha Z        PSCENC =      2373.25509001
  Ewald energy   TEWEN  =    -62705.19294517
  -Hartree energ DENC   =    -42789.35375837
  -exchange      EXHF   =         0.00000000
  -V(xc)+E(xc)   XCENC  =      3286.42616608
  PAW double counting   =    112264.95020538  -115957.14045214
  entropy T*S    EENTRO =         0.00000000
  eigenvalues    EBANDS =    -10819.01256931
  atomic energy  EATOM  =    114020.06510763
  Solvation  Ediel_sol  =         0.00000000
  ---------------------------------------------------
  free energy    TOTEN  =      -326.00315589 eV

  energy without entropy =     -326.00315589  energy(sigma->0) =     -326.00315589


--------------------------------------------------------------------------------------------------------




--------------------------------------- Iteration      1(  14)  ---------------------------------------


    POTLOK:  cpu time    0.1353: real time    0.1401
    SETDIJ:  cpu time    0.0131: real time    0.0131
     EDDAV:  cpu time  113.1064: real time  113.9026
 BZINTS: Fermi energy:  5.253157;688.000000 electrons
         Band energy:***********;  BLOECHL correction:  0.000000
       DOS:  cpu time    0.0032: real time    0.0032
    CHARGE:  cpu time    1.1899: real time    1.1970
    MIXING:  cpu time    0.0021: real time    0.0022
    --------------------------------------------
      LOOP:  cpu time  114.4500: real time  115.2583

 eigenvalue-minimisations  : 16384
 total energy-change (2. order) :-0.1592285E-01  (-0.1115503E-01)
 number of electron     688.0000381 magnetization      -0.0000000
 augmentation part      282.2770841 magnetization      -0.0000000

 Broyden mixing:
  rms(total) = 0.48038E-01    rms(broyden)= 0.48028E-01
  rms(prec ) = 0.54211E-01
  weight for this iteration     100.00

 eigenvalues of (default mixing * dielectric matrix)
  average eigenvalue GAMMA=   1.0685
  2.4274  2.4274  0.9652  0.9652  0.3243  0.6584  0.6584  0.5574  0.6325

 Free energy of the ion-electron system (eV)
  ---------------------------------------------------
  alpha Z        PSCENC =      2373.25509001
  Ewald energy   TEWEN  =    -62705.19294517
  -Hartree energ DENC   =    -42799.23241789
  -exchange      EXHF   =         0.00000000
  -V(xc)+E(xc)   XCENC  =      3286.29167765
  PAW double counting   =    111997.75263107  -115688.87211368
  entropy T*S    EENTRO =         0.00000000
  eigenvalues    EBANDS =    -10810.08610836
  atomic energy  EATOM  =    114020.06510763
  Solvation  Ediel_sol  =         0.00000000
  ---------------------------------------------------
  free energy    TOTEN  =      -326.01907874 eV

  energy without entropy =     -326.01907874  energy(sigma->0) =     -326.01907874


--------------------------------------------------------------------------------------------------------




--------------------------------------- Iteration      1(  15)  ---------------------------------------


    POTLOK:  cpu time    0.1399: real time    0.1408
    SETDIJ:  cpu time    0.0131: real time    0.0131
     EDDAV:  cpu time   92.2187: real time   92.8927
 BZINTS: Fermi energy:  5.248519;688.000000 electrons
         Band energy:***********;  BLOECHL correction:  0.000000
       DOS:  cpu time    0.0032: real time    0.0032
    CHARGE:  cpu time    1.4061: real time    1.4137
    MIXING:  cpu time    0.0023: real time    0.0023
    --------------------------------------------
      LOOP:  cpu time   93.7832: real time   94.4659

 eigenvalue-minimisations  : 14336
 total energy-change (2. order) :-0.5865712E-03  (-0.7407870E-03)
 number of electron     688.0000381 magnetization      -0.0000000
 augmentation part      282.2609560 magnetization      -0.0000000

 Broyden mixing:
  rms(total) = 0.22968E-01    rms(broyden)= 0.22967E-01
  rms(prec ) = 0.25684E-01
  weight for this iteration     100.00

 eigenvalues of (default mixing * dielectric matrix)
  average eigenvalue GAMMA=   1.0362
  2.3653  2.3653  1.0356  1.0356  0.3243  0.6876  0.6876  0.5562  0.6522  0.6522

 Free energy of the ion-electron system (eV)
  ---------------------------------------------------
  alpha Z        PSCENC =      2373.25509001
  Ewald energy   TEWEN  =    -62705.19294517
  -Hartree energ DENC   =    -42799.40470738
  -exchange      EXHF   =         0.00000000
  -V(xc)+E(xc)   XCENC  =      3286.27766506
  PAW double counting   =    112077.40576669  -115768.88506129
  entropy T*S    EENTRO =         0.00000000
  eigenvalues    EBANDS =    -10809.54058087
  atomic energy  EATOM  =    114020.06510763
  Solvation  Ediel_sol  =         0.00000000
  ---------------------------------------------------
  free energy    TOTEN  =      -326.01966531 eV

  energy without entropy =     -326.01966531  energy(sigma->0) =     -326.01966531


--------------------------------------------------------------------------------------------------------




--------------------------------------- Iteration      1(  16)  ---------------------------------------


    POTLOK:  cpu time    0.1530: real time    0.1552
    SETDIJ:  cpu time    0.0150: real time    0.0150
     EDDAV:  cpu time  134.7774: real time  135.6850
 BZINTS: Fermi energy:  5.240391;688.000000 electrons
         Band energy:***********;  BLOECHL correction:  0.000000
       DOS:  cpu time    0.0032: real time    0.0032
    CHARGE:  cpu time    1.1888: real time    1.1964
    MIXING:  cpu time    0.0024: real time    0.0030
    --------------------------------------------
      LOOP:  cpu time  136.1398: real time  137.0579

 eigenvalue-minimisations  : 17664
 total energy-change (2. order) :-0.5660981E-03  (-0.1357189E-03)
 number of electron     688.0000381 magnetization       0.0000000
 augmentation part      282.2613817 magnetization       0.0000000

 Broyden mixing:
  rms(total) = 0.14767E-01    rms(broyden)= 0.14767E-01
  rms(prec ) = 0.15772E-01
  weight for this iteration     100.00

 eigenvalues of (default mixing * dielectric matrix)
  average eigenvalue GAMMA=   1.2167
  3.2281  2.2569  2.2569  1.0076  1.0076  0.3243  0.6857  0.6857  0.7608  0.5564
  0.6137

 Free energy of the ion-electron system (eV)
  ---------------------------------------------------
  alpha Z        PSCENC =      2373.25509001
  Ewald energy   TEWEN  =    -62705.19294517
  -Hartree energ DENC   =    -42799.57498836
  -exchange      EXHF   =         0.00000000
  -V(xc)+E(xc)   XCENC  =      3286.30492010
  PAW double counting   =    112098.02751915  -115789.51273978
  entropy T*S    EENTRO =         0.00000000
  eigenvalues    EBANDS =    -10809.39219499
  atomic energy  EATOM  =    114020.06510763
  Solvation  Ediel_sol  =         0.00000000
  ---------------------------------------------------
  free energy    TOTEN  =      -326.02023141 eV

  energy without entropy =     -326.02023141  energy(sigma->0) =     -326.02023141


--------------------------------------------------------------------------------------------------------




--------------------------------------- Iteration      1(  17)  ---------------------------------------


    POTLOK:  cpu time    0.1401: real time    0.1411
    SETDIJ:  cpu time    0.0131: real time    0.0131
     EDDAV:  cpu time   95.3189: real time   96.0077
 BZINTS: Fermi energy:  5.234909;688.000000 electrons
         Band energy:***********;  BLOECHL correction:  0.000000
       DOS:  cpu time    0.0032: real time    0.0032
    CHARGE:  cpu time    1.1938: real time    1.2008
    MIXING:  cpu time    0.0027: real time    0.0028
    --------------------------------------------
      LOOP:  cpu time   96.6718: real time   97.3688

 eigenvalue-minimisations  : 14848
 total energy-change (2. order) :-0.1166807E-02  (-0.7141981E-03)
 number of electron     688.0000381 magnetization       0.0000000
 augmentation part      282.2591670 magnetization       0.0000000

 Broyden mixing:
  rms(total) = 0.63627E-02    rms(broyden)= 0.63595E-02
  rms(prec ) = 0.67490E-02
  weight for this iteration     100.00

 eigenvalues of (default mixing * dielectric matrix)
  average eigenvalue GAMMA=   1.2173
  3.8197  2.1479  2.1479  1.1034  1.1034  0.3243  0.6659  0.6659  0.5581  0.6980
  0.6980  0.6752

 Free energy of the ion-electron system (eV)
  ---------------------------------------------------
  alpha Z        PSCENC =      2373.25509001
  Ewald energy   TEWEN  =    -62705.19294517
  -Hartree energ DENC   =    -42801.16520448
  -exchange      EXHF   =         0.00000000
  -V(xc)+E(xc)   XCENC  =      3286.36466845
  PAW double counting   =    112083.16713166  -115774.28336096
  entropy T*S    EENTRO =         0.00000000
  eigenvalues    EBANDS =    -10808.23188536
  atomic energy  EATOM  =    114020.06510763
  Solvation  Ediel_sol  =         0.00000000
  ---------------------------------------------------
  free energy    TOTEN  =      -326.02139822 eV

  energy without entropy =     -326.02139822  energy(sigma->0) =     -326.02139822


--------------------------------------------------------------------------------------------------------




--------------------------------------- Iteration      1(  18)  ---------------------------------------


    POTLOK:  cpu time    0.1417: real time    0.1426
    SETDIJ:  cpu time    0.0130: real time    0.0131
     EDDAV:  cpu time  105.3420: real time  106.0943
 BZINTS: Fermi energy:  5.231158;688.000000 electrons
         Band energy:***********;  BLOECHL correction:  0.000000
       DOS:  cpu time    0.0032: real time    0.0032
    CHARGE:  cpu time    1.1891: real time    1.1964
    MIXING:  cpu time    0.0024: real time    0.0024
    --------------------------------------------
      LOOP:  cpu time  106.6915: real time  107.4520

 eigenvalue-minimisations  : 15360
 total energy-change (2. order) :-0.7538423E-04  (-0.4350723E-04)
 number of electron     688.0000381 magnetization       0.0000000
 augmentation part      282.2649383 magnetization       0.0000000

 Broyden mixing:
  rms(total) = 0.68807E-02    rms(broyden)= 0.68804E-02
  rms(prec ) = 0.79441E-02
  weight for this iteration     100.00

 eigenvalues of (default mixing * dielectric matrix)
  average eigenvalue GAMMA=   1.1819
  3.9445  2.1188  2.1188  1.0890  1.0890  0.3243  0.7191  0.7191  0.7545  0.6750
  0.6750  0.5690  0.5690

 Free energy of the ion-electron system (eV)
  ---------------------------------------------------
  alpha Z        PSCENC =      2373.25509001
  Ewald energy   TEWEN  =    -62705.19294517
  -Hartree energ DENC   =    -42801.12781794
  -exchange      EXHF   =         0.00000000
  -V(xc)+E(xc)   XCENC  =      3286.36891208
  PAW double counting   =    112082.48665546  -115773.59727631
  entropy T*S    EENTRO =         0.00000000
  eigenvalues    EBANDS =    -10808.27919936
  atomic energy  EATOM  =    114020.06510763
  Solvation  Ediel_sol  =         0.00000000
  ---------------------------------------------------
  free energy    TOTEN  =      -326.02147360 eV

  energy without entropy =     -326.02147360  energy(sigma->0) =     -326.02147360


--------------------------------------------------------------------------------------------------------




--------------------------------------- Iteration      1(  19)  ---------------------------------------


    POTLOK:  cpu time    0.1386: real time    0.1422
    SETDIJ:  cpu time    0.0130: real time    0.0131
     EDDAV:  cpu time  132.1991: real time  133.1007
 BZINTS: Fermi energy:  5.224719;688.000000 electrons
         Band energy:***********;  BLOECHL correction:  0.000000
       DOS:  cpu time    0.0032: real time    0.0032
    CHARGE:  cpu time    1.2060: real time    1.2132
    MIXING:  cpu time    0.0025: real time    0.0025
    --------------------------------------------
      LOOP:  cpu time  133.5624: real time  134.4749

 eigenvalue-minimisations  : 17408
 total energy-change (2. order) : 0.2506378E-05  (-0.1007514E-04)
 number of electron     688.0000381 magnetization       0.0000000
 augmentation part      282.2637723 magnetization       0.0000000

 Broyden mixing:
  rms(total) = 0.38280E-02    rms(broyden)= 0.38279E-02
  rms(prec ) = 0.41667E-02
  weight for this iteration     100.00

 eigenvalues of (default mixing * dielectric matrix)
  average eigenvalue GAMMA=   1.2502
  4.0450  2.2774  2.2774  1.3845  1.3845  0.9854  0.9854  0.3243  0.6809  0.6809
[...]
   -.414E+02 0.127E+01 0.426E+02   0.423E+02 -.122E+01 -.430E+02   -.814E+00 -.436E-01 0.414E+00   0.138E-04 -.778E-06 0.166E-05
   -.414E+02 0.127E+01 0.426E+02   0.423E+02 -.122E+01 -.430E+02   -.814E+00 -.436E-01 0.414E+00   0.138E-04 -.778E-06 0.166E-05
   -.414E+02 0.127E+01 0.426E+02   0.423E+02 -.122E+01 -.430E+02   -.814E+00 -.436E-01 0.414E+00   0.138E-04 -.778E-06 0.166E-05
   -.414E+02 0.127E+01 0.426E+02   0.423E+02 -.122E+01 -.430E+02   -.814E+00 -.436E-01 0.414E+00   0.138E-04 -.778E-06 0.166E-05
   0.414E+02 -.127E+01 0.426E+02   -.423E+02 0.122E+01 -.430E+02   0.814E+00 0.436E-01 0.414E+00   -.138E-04 0.778E-06 0.166E-05
   0.414E+02 -.127E+01 0.426E+02   -.423E+02 0.122E+01 -.430E+02   0.814E+00 0.436E-01 0.414E+00   -.138E-04 0.778E-06 0.166E-05
   0.414E+02 -.127E+01 0.426E+02   -.423E+02 0.122E+01 -.430E+02   0.814E+00 0.436E-01 0.414E+00   -.138E-04 0.778E-06 0.166E-05
   0.414E+02 -.127E+01 0.426E+02   -.423E+02 0.122E+01 -.430E+02   0.814E+00 0.436E-01 0.414E+00   -.138E-04 0.778E-06 0.166E-05
   0.127E+01 -.414E+02 0.426E+02   -.122E+01 0.423E+02 -.430E+02   -.436E-01 -.814E+00 0.414E+00   -.778E-06 0.138E-04 0.166E-05
   0.127E+01 -.414E+02 0.426E+02   -.122E+01 0.423E+02 -.430E+02   -.436E-01 -.814E+00 0.414E+00   -.778E-06 0.138E-04 0.166E-05
   0.127E+01 -.414E+02 0.426E+02   -.122E+01 0.423E+02 -.430E+02   -.436E-01 -.814E+00 0.414E+00   -.778E-06 0.138E-04 0.166E-05
   0.127E+01 -.414E+02 0.426E+02   -.122E+01 0.423E+02 -.430E+02   -.436E-01 -.814E+00 0.414E+00   -.778E-06 0.138E-04 0.166E-05
   -.127E+01 0.414E+02 0.426E+02   0.122E+01 -.423E+02 -.430E+02   0.436E-01 0.814E+00 0.414E+00   0.778E-06 -.138E-04 0.166E-05
   -.127E+01 0.414E+02 0.426E+02   0.122E+01 -.423E+02 -.430E+02   0.436E-01 0.814E+00 0.414E+00   0.778E-06 -.138E-04 0.166E-05
   -.127E+01 0.414E+02 0.426E+02   0.122E+01 -.423E+02 -.430E+02   0.436E-01 0.814E+00 0.414E+00   0.778E-06 -.138E-04 0.166E-05
   -.127E+01 0.414E+02 0.426E+02   0.122E+01 -.423E+02 -.430E+02   0.436E-01 0.814E+00 0.414E+00   0.778E-06 -.138E-04 0.166E-05
   -.215E-06 -.108E-06 -.500E+02   0.245E-12 0.355E-13 0.480E+02   -.331E-25 0.258E-25 0.200E+01   0.209E-12 -.190E-13 0.134E-04
   -.215E-06 -.108E-06 -.500E+02   0.217E-12 0.568E-13 0.480E+02   -.157E-26 -.404E-27 0.200E+01   -.392E-12 0.138E-12 0.134E-04
   -.215E-06 -.108E-06 -.500E+02   0.245E-12 0.284E-13 0.480E+02   -.182E-25 0.291E-25 0.200E+01   0.207E-12 -.279E-12 0.134E-04
   -.215E-06 -.108E-06 -.500E+02   0.259E-12 0.568E-13 0.480E+02   -.468E-25 -.630E-25 0.200E+01   -.276E-12 -.348E-12 0.134E-04
   -.108E-06 -.215E-06 -.500E+02   -.568E-13 0.199E-12 0.480E+02   0.135E-25 0.646E-26 0.200E+01   0.146E-14 0.190E-13 0.134E-04
   -.108E-06 -.215E-06 -.500E+02   -.853E-13 0.128E-12 0.480E+02   -.646E-26 -.258E-25 0.200E+01   0.116E-12 0.112E-12 0.134E-04
   -.108E-06 -.215E-06 -.500E+02   -.711E-13 0.185E-12 0.480E+02   0.146E-25 -.238E-25 0.200E+01   0.173E-12 -.306E-12 0.134E-04
   -.108E-06 -.215E-06 -.500E+02   -.284E-13 0.171E-12 0.480E+02   0.499E-25 -.808E-26 0.200E+01   0.386E-13 -.425E-12 0.134E-04
   -.215E-06 -.108E-06 -.500E+02   0.242E-12 -.178E-14 0.480E+02   -.969E-26 0.129E-25 0.200E+01   0.797E-13 -.218E-12 0.134E-04
   -.215E-06 -.108E-06 -.500E+02   0.270E-12 -.302E-13 0.480E+02   -.499E-25 -.485E-25 0.200E+01   -.113E-12 -.150E-12 0.134E-04
   -.215E-06 -.108E-06 -.500E+02   0.284E-12 0.639E-13 0.480E+02   0.477E-25 -.388E-25 0.200E+01   -.103E-12 -.507E-13 0.134E-04
   -.215E-06 -.108E-06 -.500E+02   0.313E-12 0.284E-13 0.480E+02   -.408E-25 0.355E-25 0.200E+01   0.316E-13 -.198E-12 0.134E-04
   -.108E-06 -.215E-06 -.500E+02   -.882E-14 0.119E-12 0.480E+02   0.194E-25 -.258E-25 0.200E+01   0.241E-12 -.262E-12 0.134E-04
   -.108E-06 -.215E-06 -.500E+02   0.222E-13 0.133E-12 0.480E+02   -.434E-25 0.162E-26 0.200E+01   -.194E-12 -.144E-12 0.134E-04
   -.108E-06 -.215E-06 -.500E+02   0.265E-13 0.136E-12 0.480E+02   0.384E-25 0.129E-25 0.200E+01   0.284E-12 -.118E-12 0.134E-04
   -.108E-06 -.215E-06 -.500E+02   0.291E-13 0.150E-12 0.480E+02   0.727E-26 0.000E+00 0.200E+01   -.273E-12 -.181E-12 0.134E-04
   0.604E-07 -.157E-07 -.403E+02   0.391E-13 -.171E-12 0.379E+02   0.339E-25 0.103E-24 0.233E+01   0.290E-12 -.797E-14 0.121E-04
   0.604E-07 -.157E-07 -.403E+02   -.266E-14 -.171E-12 0.379E+02   0.727E-26 -.388E-25 0.233E+01   -.202E-12 0.211E-12 0.121E-04
   0.604E-07 -.157E-07 -.403E+02   0.355E-13 -.171E-12 0.379E+02   0.501E-25 -.646E-25 0.233E+01   0.264E-12 -.181E-12 0.121E-04
   0.604E-07 -.157E-07 -.403E+02   0.799E-14 -.199E-12 0.379E+02   -.102E-24 -.775E-25 0.233E+01   -.130E-12 -.251E-12 0.121E-04
   -.157E-07 0.604E-07 -.403E+02   -.497E-13 0.114E-12 0.379E+02   -.162E-24 0.388E-25 0.233E+01   0.570E-15 0.670E-13 0.121E-04
   -.157E-07 0.604E-07 -.403E+02   -.711E-13 0.853E-13 0.379E+02   -.117E-24 -.258E-25 0.233E+01   0.198E-13 0.155E-12 0.121E-04
   -.157E-07 0.604E-07 -.403E+02   -.462E-13 0.888E-13 0.379E+02   0.442E-25 0.646E-25 0.233E+01   0.777E-13 -.129E-12 0.121E-04
   -.157E-07 0.604E-07 -.403E+02   -.817E-13 0.888E-13 0.379E+02   -.856E-25 -.775E-25 0.233E+01   -.930E-14 -.202E-12 0.121E-04
   0.604E-07 -.157E-07 -.403E+02   0.320E-13 -.215E-12 0.379E+02   0.120E-24 0.258E-25 0.233E+01   0.172E-12 -.125E-12 0.121E-04
   0.604E-07 -.157E-07 -.403E+02   0.604E-13 -.272E-12 0.379E+02   0.828E-25 0.258E-25 0.233E+01   0.167E-13 -.303E-13 0.121E-04
   0.604E-07 -.157E-07 -.403E+02   0.284E-13 -.279E-12 0.379E+02   -.808E-25 0.517E-25 0.233E+01   0.946E-13 -.171E-14 0.121E-04
   0.604E-07 -.157E-07 -.403E+02   -.142E-13 -.250E-12 0.379E+02   0.242E-25 0.103E-24 0.233E+01   0.994E-13 -.685E-13 0.121E-04
   -.157E-07 0.604E-07 -.403E+02   -.285E-13 -.550E-14 0.379E+02   -.598E-25 0.194E-25 0.233E+01   0.186E-12 -.157E-12 0.121E-04
   -.157E-07 0.604E-07 -.403E+02   -.107E-12 -.548E-14 0.379E+02   0.695E-25 -.129E-25 0.233E+01   -.172E-12 -.730E-13 0.121E-04
   -.157E-07 0.604E-07 -.403E+02   -.810E-13 0.129E-13 0.379E+02   -.626E-25 -.323E-25 0.233E+01   0.218E-12 0.550E-13 0.121E-04
   -.157E-07 0.604E-07 -.403E+02   -.603E-13 0.130E-13 0.379E+02   -.767E-26 0.116E-24 0.233E+01   -.291E-12 -.690E-13 0.121E-04
 -----------------------------------------------------------------------------------------------
   -.221E-05 -.221E-05 -.827E+02   0.289E-12 -.497E-12 -.165E-11   0.278E-16 -.144E-14 0.826E+02   0.191E-11 -.300E-11 0.460E-03
 
 
 POSITION                                       TOTAL-FORCE (eV/Angst)
 -----------------------------------------------------------------------------------
      1.41341      1.41126      1.22626        -0.000702     -0.000395      0.000188
      6.65537      1.77787      1.22626        -0.000702     -0.000395      0.000188
      1.78002      6.65322      1.22626        -0.000702     -0.000395      0.000188
      7.02198      7.01983      1.22626        -0.000702     -0.000395      0.000188
      4.19516      4.19731      1.22626         0.000702      0.000395      0.000188
      9.43712      4.56392      1.22626         0.000702      0.000395      0.000188
      4.56177      9.43928      1.22626         0.000702      0.000395      0.000188
      9.80373      9.80589      1.22626         0.000702      0.000395      0.000188
      1.57633      4.01185      9.05969         0.000395      0.000702      0.000188
      6.81830      4.37846      9.05969         0.000395      0.000702      0.000188
      1.94294      9.25382      9.05969         0.000395      0.000702      0.000188
      7.18490      9.62043      9.05969         0.000395      0.000702      0.000188
      4.03224      1.59672      9.05969        -0.000395     -0.000702      0.000188
      9.27420      1.96333      9.05969        -0.000395     -0.000702      0.000188
      4.39885      6.83868      9.05969        -0.000395     -0.000702      0.000188
      9.64081      7.20529      9.05969        -0.000395     -0.000702      0.000188
      1.39087      1.39303      6.44855         0.000702      0.000395      0.000188
      6.63284      1.75964      6.44855         0.000702      0.000395      0.000188
      1.75748      6.63499      6.44855         0.000702      0.000395      0.000188
      6.99944      7.00160      6.44855         0.000702      0.000395      0.000188
      4.21770      4.21554      6.44855        -0.000702     -0.000395      0.000188
      9.45966      4.58215      6.44855        -0.000702     -0.000395      0.000188
      4.58431      9.45750      6.44855        -0.000702     -0.000395      0.000188
      9.82627      9.82411      6.44855        -0.000702     -0.000395      0.000188
      4.01401      1.57418      3.83740         0.000395      0.000702      0.000188
      9.25597      1.94079      3.83740         0.000395      0.000702      0.000188
      4.38062      6.81614      3.83740         0.000395      0.000702      0.000188
      9.62258      7.18275      3.83740         0.000395      0.000702      0.000188
      1.59456      4.03439      3.83740        -0.000395     -0.000702      0.000188
      6.83652      4.40100      3.83740        -0.000395     -0.000702      0.000188
      1.96117      9.27635      3.83740        -0.000395     -0.000702      0.000188
      7.20313      9.64296      3.83740        -0.000395     -0.000702      0.000188
      0.00000      0.00000      5.29078         0.000000      0.000000     -0.000385
      5.24196      0.36661      5.29078         0.000000      0.000000     -0.000385
      0.36661      5.24196      5.29078         0.000000      0.000000     -0.000385
      5.60857      5.60857      5.29078         0.000000      0.000000     -0.000385
      2.62098      0.18330      2.67963         0.000000      0.000000     -0.000385
      7.86294      0.54991      2.67963         0.000000      0.000000     -0.000385
      2.98759      5.42527      2.67963         0.000000      0.000000     -0.000385
      8.22955      5.79188      2.67963         0.000000      0.000000     -0.000385
      2.80429      2.80429      0.06849         0.000000      0.000000     -0.000385
      8.04625      3.17089      0.06849         0.000000      0.000000     -0.000385
      3.17089      8.04625      0.06849         0.000000      0.000000     -0.000385
      8.41286      8.41286      0.06849         0.000000      0.000000     -0.000385
      0.18330      2.62098      7.90192         0.000000      0.000000     -0.000385
      5.42527      2.98759      7.90192         0.000000      0.000000     -0.000385
      0.54991      7.86294      7.90192         0.000000      0.000000     -0.000385
      5.79188      8.22955      7.90192         0.000000      0.000000     -0.000385
      0.00000      0.00000      0.09015         0.000000      0.000000      0.000010
      5.24196      0.36661      0.09015         0.000000      0.000000      0.000010
      0.36661      5.24196      0.09015         0.000000      0.000000      0.000010
      5.60857      5.60857      0.09015         0.000000      0.000000      0.000010
      2.62098      0.18330      7.92358         0.000000      0.000000      0.000010
      7.86294      0.54991      7.92358         0.000000      0.000000      0.000010
      2.98759      5.42527      7.92358         0.000000      0.000000      0.000010
      8.22955      5.79188      7.92358         0.000000      0.000000      0.000010
      2.80429      2.80429      5.31244         0.000000      0.000000      0.000010
      8.04625      3.17089      5.31244         0.000000      0.000000      0.000010
      3.17089      8.04625      5.31244         0.000000      0.000000      0.000010
      8.41286      8.41286      5.31244         0.000000      0.000000      0.000010
      0.18330      2.62098      2.70129         0.000000      0.000000      0.000010
      5.42527      2.98759      2.70129         0.000000      0.000000      0.000010
      0.54991      7.86294      2.70129         0.000000      0.000000      0.000010
      5.79188      8.22955      2.70129         0.000000      0.000000      0.000010
 -----------------------------------------------------------------------------------
    total drift:                               -0.000002     -0.000002     -0.032524


--------------------------------------------------------------------------------------------------------



  FREE ENERGIE OF THE ION-ELECTRON SYSTEM (eV)
  ---------------------------------------------------
  free  energy   TOTEN  =      -326.02147889 eV

  energy  without entropy=     -326.02147889  energy(sigma->0) =     -326.02147889
 


--------------------------------------------------------------------------------------------------------


    POTLOK:  cpu time    0.1583: real time    0.1590


--------------------------------------------------------------------------------------------------------


 writing wavefunctions
     LOOP+:  cpu time 3123.6332: real time 3146.0425
    4ORBIT:  cpu time    0.0000: real time    0.0000
 


 total charge     
 
# of ion       s       p       d       tot
------------------------------------------
    1        1.316   2.404   0.000   3.719
    2        1.316   2.404   0.000   3.719
    3        1.316   2.404   0.000   3.719
    4        1.316   2.404   0.000   3.719
    5        1.316   2.404   0.000   3.719
    6        1.316   2.404   0.000   3.719
    7        1.316   2.404   0.000   3.719
    8        1.316   2.404   0.000   3.719
    9        1.316   2.404   0.000   3.720
   10        1.316   2.404   0.000   3.720
   11        1.316   2.404   0.000   3.720
   12        1.316   2.404   0.000   3.720
   13        1.316   2.404   0.000   3.720
   14        1.316   2.404   0.000   3.720
   15        1.316   2.404   0.000   3.720
   16        1.316   2.404   0.000   3.720
   17        1.316   2.404   0.000   3.719
   18        1.316   2.404   0.000   3.719
   19        1.316   2.404   0.000   3.719
   20        1.316   2.404   0.000   3.719
   21        1.316   2.404   0.000   3.719
   22        1.316   2.404   0.000   3.719
   23        1.316   2.404   0.000   3.719
   24        1.316   2.404   0.000   3.719
   25        1.316   2.404   0.000   3.720
   26        1.316   2.404   0.000   3.720
   27        1.316   2.404   0.000   3.720
   28        1.316   2.404   0.000   3.720
   29        1.316   2.404   0.000   3.720
   30        1.316   2.404   0.000   3.720
   31        1.316   2.404   0.000   3.720
   32        1.316   2.404   0.000   3.720
   33        0.258   6.200   8.916  15.374
   34        0.258   6.200   8.916  15.374
   35        0.258   6.200   8.916  15.374
   36        0.258   6.200   8.916  15.374
   37        0.257   6.200   8.917  15.374
   38        0.257   6.200   8.917  15.374
   39        0.257   6.200   8.917  15.374
   40        0.257   6.200   8.917  15.374
   41        0.258   6.200   8.916  15.374
   42        0.258   6.200   8.916  15.374
   43        0.258   6.200   8.916  15.374
   44        0.258   6.200   8.916  15.374
   45        0.257   6.200   8.917  15.374
   46        0.257   6.200   8.917  15.374
   47        0.257   6.200   8.917  15.374
   48        0.257   6.200   8.917  15.374
   49        0.345   6.343   5.824  12.512
   50        0.345   6.343   5.824  12.512
   51        0.345   6.343   5.824  12.512
   52        0.345   6.343   5.824  12.512
   53        0.345   6.343   5.824  12.512
   54        0.345   6.343   5.824  12.512
   55        0.345   6.343   5.824  12.512
   56        0.345   6.343   5.824  12.512
   57        0.345   6.343   5.824  12.512
   58        0.345   6.343   5.824  12.512
   59        0.345   6.343   5.824  12.512
   60        0.345   6.343   5.824  12.512
   61        0.345   6.343   5.824  12.512
   62        0.345   6.343   5.824  12.512
   63        0.345   6.343   5.824  12.512
   64        0.345   6.343   5.824  12.512
--------------------------------------------------
tot         51.740 277.610 235.846 565.195
 


 magnetization (x)
 
# of ion       s       p       d       tot
------------------------------------------
    1       -0.002  -0.034   0.000  -0.036
    2       -0.002  -0.034   0.000  -0.036
    3       -0.002  -0.034   0.000  -0.036
    4       -0.002  -0.034   0.000  -0.036
    5       -0.002  -0.034   0.000  -0.036
    6       -0.002  -0.034   0.000  -0.036
    7       -0.002  -0.034   0.000  -0.036
    8       -0.002  -0.034   0.000  -0.036
    9        0.002   0.034   0.000   0.036
   10        0.002   0.034   0.000   0.036
   11        0.002   0.034   0.000   0.036
   12        0.002   0.034   0.000   0.036
   13        0.002   0.034   0.000   0.036
   14        0.002   0.034   0.000   0.036
   15        0.002   0.034   0.000   0.036
   16        0.002   0.034   0.000   0.036
   17       -0.002  -0.034   0.000  -0.036
   18       -0.002  -0.034   0.000  -0.036
   19       -0.002  -0.034   0.000  -0.036
   20       -0.002  -0.034   0.000  -0.036
   21       -0.002  -0.034   0.000  -0.036
   22       -0.002  -0.034   0.000  -0.036
   23       -0.002  -0.034   0.000  -0.036
   24       -0.002  -0.034   0.000  -0.036
   25        0.002   0.034   0.000   0.036
   26        0.002   0.034   0.000   0.036
   27        0.002   0.034   0.000   0.036
   28        0.002   0.034   0.000   0.036
   29        0.002   0.034   0.000   0.036
   30        0.002   0.034   0.000   0.036
   31        0.002   0.034   0.000   0.036
   32        0.002   0.034   0.000   0.036
   33       -0.000  -0.001   0.006   0.005
   34       -0.000  -0.001   0.006   0.005
   35       -0.000  -0.001   0.006   0.005
   36       -0.000  -0.001   0.006   0.005
   37        0.000   0.001  -0.007  -0.006
   38        0.000   0.001  -0.007  -0.006
   39        0.000   0.001  -0.007  -0.006
   40        0.000   0.001  -0.007  -0.006
   41       -0.000  -0.001   0.006   0.005
   42       -0.000  -0.001   0.006   0.005
   43       -0.000  -0.001   0.006   0.005
   44       -0.000  -0.001   0.006   0.005
   45        0.000   0.001  -0.007  -0.006
   46        0.000   0.001  -0.007  -0.006
   47        0.000   0.001  -0.007  -0.006
   48        0.000   0.001  -0.007  -0.006
   49        0.020   0.052   3.666   3.738
   50        0.020   0.052   3.666   3.738
   51        0.020   0.052   3.666   3.738
   52        0.020   0.052   3.666   3.738
   53       -0.020  -0.052  -3.665  -3.738
   54       -0.020  -0.052  -3.665  -3.738
   55       -0.020  -0.052  -3.665  -3.738
   56       -0.020  -0.052  -3.665  -3.738
   57        0.020   0.052   3.666   3.738
   58        0.020   0.052   3.666   3.738
   59        0.020   0.052   3.666   3.738
   60        0.020   0.052   3.666   3.738
   61       -0.020  -0.052  -3.665  -3.738
   62       -0.020  -0.052  -3.665  -3.738
   63       -0.020  -0.052  -3.665  -3.738
   64       -0.020  -0.052  -3.665  -3.738
--------------------------------------------------
tot         -0.002   0.002  -0.002  -0.002
 
 BZINTS: Fermi energy:  5.212591;688.000000 electrons
         Band energy:***********;  BLOECHL correction:  0.000000

 total amount of memory used by VASP MPI-rank0   299201. kBytes
=======================================================================

   base      :      30000. kBytes
   nonl-proj :     174030. kBytes
   fftplans  :       4588. kBytes
   grid      :      69719. kBytes
   one-center:       1990. kBytes
   wavefun   :      18874. kBytes
 
  
  
 General timing and accounting informations for this job:
 ========================================================
  
                  Total CPU time used (sec):     3167.314
                            User time (sec):     3157.283
                          System time (sec):       10.032
                         Elapsed time (sec):     3191.099
  
                   Maximum memory used (kb):      665264.
                   Average memory used (kb):           0.
  
                          Minor page faults:       597406
                          Major page faults:         5749
                 Voluntary context switches:         7210
