       N       E                     dE             d eps       ncg     rms          rms(c)
DAV:   1     0.619847066974E+04    0.61985E+04   -0.50392E+05 61440   0.194E+03
DAV:   2    -0.929550851508E+02   -0.62914E+04   -0.61603E+04 66304   0.439E+02
DAV:   3    -0.372426369777E+03   -0.27947E+03   -0.27826E+03 86784   0.101E+02
DAV:   4    -0.376334135854E+03   -0.39078E+01   -0.39075E+01 70144   0.122E+01
DAV:   5    -0.376438686781E+03   -0.10455E+00   -0.10455E+00 83712   0.202E+00    0.750E+01
DAV:   6    -0.334871611770E+03    0.41567E+02   -0.58997E+02 61440   0.812E+01    0.999E+01
DAV:   7    -0.329894123243E+03    0.49775E+01   -0.10833E+02 61440   0.272E+01    0.436E+01
DAV:   8    -0.329639088954E+03    0.25503E+00   -0.33317E+01 81152   0.202E+01    0.314E+01
DAV:   9    -0.331575715399E+03   -0.19366E+01   -0.92690E+01 75008   0.234E+01    0.231E+01
DAV:  10    -0.327993506753E+03    0.35822E+01   -0.21648E+01 81408   0.157E+01    0.286E+00
DAV:  11    -0.328120025110E+03   -0.12652E+00   -0.10635E+00 80128   0.167E+00    0.352E+00
DAV:  12    -0.328107504573E+03    0.12521E-01   -0.47335E-01 80640   0.178E+00    0.135E+00
DAV:  13    -0.328112101357E+03   -0.45968E-02   -0.50464E-02 77312   0.435E-01    0.944E-01
DAV:  14    -0.328121500740E+03   -0.93994E-02   -0.46776E-02 88320   0.354E-01    0.393E-01
DAV:  15    -0.328121115161E+03    0.38558E-03   -0.55503E-03 69632   0.189E-01    0.161E-01
DAV:  16    -0.328121218942E+03   -0.10378E-03   -0.41248E-04 86272   0.301E-02    0.120E-01
DAV:  17    -0.328121561593E+03   -0.34265E-03   -0.12870E-03 73984   0.526E-02    0.888E-02
DAV:  18    -0.328121605049E+03   -0.43456E-04   -0.12273E-04 77824   0.194E-02    0.464E-02
DAV:  19    -0.328121609722E+03   -0.46722E-05   -0.29468E-05 85504   0.735E-03    0.263E-02
DAV:  20    -0.328121610891E+03   -0.11689E-05   -0.41779E-06 70912   0.245E-03    0.226E-02
DAV:  21    -0.328121609182E+03    0.17084E-05   -0.24241E-05 87552   0.926E-03    0.108E-02
DAV:  22    -0.328121609400E+03   -0.21765E-06   -0.24688E-06 69632   0.438E-03    0.873E-03
DAV:  23    -0.328121609560E+03   -0.16065E-06   -0.29294E-07 81408   0.106E-03    0.662E-03
DAV:  24    -0.328121609392E+03    0.16863E-06   -0.16392E-07 97024   0.886E-04    0.272E-03
DAV:  25    -0.328121609366E+03    0.25844E-07   -0.17256E-07 84736   0.858E-04    0.674E-04
DAV:  26    -0.328121609368E+03   -0.20227E-08   -0.12916E-08 63488   0.182E-04
   1 F= -.32812161E+03 E0= -.32812161E+03  d E =0.000000E+00  mag=     0.0000
