 vasp.5.4.4.18Apr17-6-g9f103f2a35 (build Oct 30 2023 17:30:16) complex          
  
 executed on             LinuxIFC date 2024.06.29  18:38:31
 running on  256 total cores
 distrk:  each k-point on  256 cores,    1 groups
 distr:  one band on NCORES_PER_BAND=   1 cores,  256 groups


--------------------------------------------------------------------------------------------------------


 INCAR:
 POTCAR:    PAW_PBE S 06Sep2000                   
 POTCAR:     PAW_PBE Cu_pv 06Sep2000              
 POTCAR:     PAW_PBE Fe_pv 02Aug2007              

 ----------------------------------------------------------------------------- 
|                                                                             |
|           W    W    AA    RRRRR   N    N  II  N    N   GGGG   !!!           |
|           W    W   A  A   R    R  NN   N  II  NN   N  G    G  !!!           |
|           W    W  A    A  R    R  N N  N  II  N N  N  G       !!!           |
|           W WW W  AAAAAA  RRRRR   N  N N  II  N  N N  G  GGG   !            |
|           WW  WW  A    A  R   R   N   NN  II  N   NN  G    G                |
|           W    W  A    A  R    R  N    N  II  N    N   GGGG   !!!           |
|                                                                             |
|      For optimal performance we recommend to set                            |
|        NCORE= 4 - approx SQRT( number of cores)                             |
|      NCORE specifies how many cores store one orbital (NPAR=cpu/NCORE).     |
|      This setting can  greatly improve the performance of VASP for DFT.     |
|      The default,   NCORE=1            might be grossly inefficient         |
|      on modern multi-core architectures or massively parallel machines.     |
|      Do your own testing !!!!                                               |
|      Unfortunately you need to use the default for GW and RPA calculations. |
|      (for HF NCORE is supported but not extensively tested yet)             |
|                                                                             |
 ----------------------------------------------------------------------------- 

 POTCAR:    PAW_PBE S 06Sep2000                   
   SHA256 =  0fc7481fb0695f01bdc6462160264c5c84044ae9ec85a907d398b887a2bc3132 S/
   COPYR  = (c) Copyright 06Sep2000 Georg Kresse                                
   COPYR  = This file is part of the software VASP. Any use, copying, and all ot
   COPYR  = If you do not have a valid VASP license, you may not use, copy or di
   VRHFIN =S : s2p4                                                             
   LEXCH  = PE                                                                  
   EATOM  =   276.8230 eV,   20.3459 Ry                                         
                                                                                
   TITEL  = PAW_PBE S 06Sep2000                                                 
   LULTRA =        F    use ultrasoft PP ?                                      
   IUNSCR =        1    unscreen: 0-lin 1-nonlin 2-no                           
   RPACOR =    1.500    partial core radius                                     
   POMASS =   32.066; ZVAL   =    6.000    mass and valenz                      
   RCORE  =    1.900    outmost cutoff radius                                   
   RWIGS  =    2.200; RWIGS  =    1.164    wigner-seitz radius (au A)           
   ENMAX  =  258.689; ENMIN  =  194.016 eV                                      
   ICORE  =        2    local potential                                         
   LCOR   =        T    correct aug charges                                     
   LPAW   =        T    paw PP                                                  
   EAUG   =  335.092                                                            
   DEXC   =    0.000                                                            
   RMAX   =    1.942    core radius for proj-oper                               
   RAUG   =    1.300    factor for augmentation sphere                          
   RDEP   =    1.954    radius for radial grids                                 
   RDEPT  =    1.744    core radius for aug-charge                              
                                                                                
   Atomic configuration                                                         
    6 entries                                                                   
     n  l   j            E        occ.                                          
     1  0  0.50     -2405.8406   2.0000                                         
     2  0  0.50      -211.7007   2.0000                                         
     2  1  1.50      -156.4958   6.0000                                         
     3  0  0.50       -17.2562   2.0000                                         
     3  1  0.50        -7.0085   4.0000                                         
     3  2  1.50        -6.8029   0.0000                                         
   Description                                                                  
     l       E           TYP  RCUT    TYP  RCUT                                 
     0    -17.2561641     23  1.900                                             
     0    -15.8743224     23  1.900                                             
     1     -7.0085400     23  1.900                                             
     1     -2.7779785     23  1.900                                             
     2     -6.8029130     23  1.900                                             
  local pseudopotential read in
  partial core-charges read in
  partial kinetic energy density read in
  atomic valenz-charges read in
  non local Contribution for L=           0  read in
    real space projection operators read in
  non local Contribution for L=           0  read in
    real space projection operators read in
  non local Contribution for L=           1  read in
    real space projection operators read in
  non local Contribution for L=           1  read in
    real space projection operators read in
    PAW grid and wavefunctions read in
 
   number of l-projection  operators is LMAX  =           4
   number of lm-projection operators is LMMAX =           8
 
 POTCAR:     PAW_PBE Cu_pv 06Sep2000              
   SHA256 =  cb7b504e2ea725fe1f25c85a9ac77d4012ce94cd394135b722c4e25ec297f1cb Cu
   COPYR  = (c) Copyright 06Sep2000 Georg Kresse                                
   COPYR  = This file is part of the software VASP. Any use, copying, and all ot
   COPYR  = If you do not have a valid VASP license, you may not use, copy or di
   VRHFIN =Cu: d10 p1                                                           
   LEXCH  = PE                                                                  
   EATOM  =  4120.1201 eV,  302.8203 Ry                                         
                                                                                
   TITEL  = PAW_PBE Cu_pv 06Sep2000                                             
   LULTRA =        F    use ultrasoft PP ?                                      
   IUNSCR =        1    unscreen: 0-lin 1-nonlin 2-no                           
   RPACOR =    1.500    partial core radius                                     
   POMASS =   63.546; ZVAL   =   17.000    mass and valenz                      
   RCORE  =    2.000    outmost cutoff radius                                   
   RWIGS  =    2.000; RWIGS  =    1.058    wigner-seitz radius (au A)           
   ENMAX  =  368.648; ENMIN  =  276.486 eV                                      
   RCLOC  =    1.304    cutoff for local pot                                    
   LCOR   =        T    correct aug charges                                     
   LPAW   =        T    paw PP                                                  
   EAUG   =  758.233                                                            
   DEXC   =    0.000                                                            
   RMAX   =    2.046    core radius for proj-oper                               
   RAUG   =    1.300    factor for augmentation sphere                          
   RDEP   =    2.025    radius for radial grids                                 
   RDEPT  =    1.558    core radius for aug-charge                              
                                                                                
   Atomic configuration                                                         
    8 entries                                                                   
     n  l   j            E        occ.                                          
     1  0  0.50     -8850.2467   2.0000                                         
     2  0  0.50     -1062.3498   2.0000                                         
     2  1  1.50      -916.8226   6.0000                                         
     3  0  0.50      -114.6929   2.0000                                         
     3  1  1.50       -72.1325   6.0000                                         
     3  2  2.50        -5.0394  10.0000                                         
     4  0  0.50        -4.6097   1.0000                                         
     4  3  2.50        -1.3606   0.0000                                         
   Description                                                                  
     l       E           TYP  RCUT    TYP  RCUT                                 
     1    -72.1324777     23  1.700                                             
     1     -1.3605826     23  1.700                                             
     2     -5.0393776     23  2.000                                             
     2     -6.3999602     23  2.000                                             
     0     -4.6097062     23  1.800                                             
     0     14.1620818     23  1.800                                             
  local pseudopotential read in
  partial core-charges read in
  partial kinetic energy density read in
  atomic valenz-charges read in
  non local Contribution for L=           1  read in
    real space projection operators read in
  non local Contribution for L=           1  read in
    real space projection operators read in
  non local Contribution for L=           2  read in
    real space projection operators read in
  non local Contribution for L=           2  read in
    real space projection operators read in
  non local Contribution for L=           0  read in
    real space projection operators read in
  non local Contribution for L=           0  read in
    real space projection operators read in
    PAW grid and wavefunctions read in
 
   number of l-projection  operators is LMAX  =           6
   number of lm-projection operators is LMMAX =          18
 
 POTCAR:     PAW_PBE Fe_pv 02Aug2007              
   SHA256 =  5d22e414b1f82158bf2c7ecb8b97b28fd0923e48cadc1c3bf74d524558f5dd32 Fe
   COPYR  = (c) Copyright 02Aug2007 Georg Kresse                                
   COPYR  = This file is part of the software VASP. Any use, copying, and all ot
   COPYR  = If you do not have a valid VASP license, you may not use, copy or di
   VRHFIN =Fe:  3pd7s1                                                          
   LEXCH  = PE                                                                  
   EATOM  =  2457.4239 eV,  180.6156 Ry                                         
                                                                                
   TITEL  = PAW_PBE Fe_pv 02Aug2007                                             
   LULTRA =        F    use ultrasoft PP ?                                      
   IUNSCR =        1    unscreen: 0-lin 1-nonlin 2-no                           
   RPACOR =    1.750    partial core radius                                     
   POMASS =   55.847; ZVAL   =   14.000    mass and valenz                      
   RCORE  =    2.200    outmost cutoff radius                                   
   RWIGS  =    2.200; RWIGS  =    1.164    wigner-seitz radius (au A)           
   ENMAX  =  293.238; ENMIN  =  219.928 eV                                      
   ICORE  =        3    local potential                                         
   LCOR   =        T    correct aug charges                                     
   LPAW   =        T    paw PP                                                  
   EAUG   =  578.342                                                            
   DEXC   =    0.000                                                            
   RMAX   =    2.249    core radius for proj-oper                               
   RAUG   =    1.300    factor for augmentation sphere                          
   RDEP   =    2.296    radius for radial grids                                 
   RDEPT  =    1.766    core radius for aug-charge                              
                                                                                
   Atomic configuration                                                         
    8 entries                                                                   
     n  l   j            E        occ.                                          
     1  0  0.50     -6993.8440   2.0000                                         
     2  0  0.50      -814.6047   2.0000                                         
     2  1  1.50      -693.3689   6.0000                                         
     3  0  0.50       -89.4732   2.0000                                         
     3  1  1.50       -55.6373   6.0000                                         
     3  2  2.50        -3.8151   7.0000                                         
     4  0  0.50        -4.2551   1.0000                                         
     4  3  2.50        -1.3606   0.0000                                         
   Description                                                                  
     l       E           TYP  RCUT    TYP  RCUT                                 
     1    -55.6372668     23  2.000                                             
     1     -5.4423304     23  2.000                                             
     2     -3.8151096     23  2.200                                             
     2     -5.1756922     23  2.200                                             
     0     -4.2550951     23  2.200                                             
     0     27.2116520     23  2.200                                             
     3     -1.3605826     23  2.200                                             
  local pseudopotential read in
  partial core-charges read in
  partial kinetic energy density read in
  atomic valenz-charges read in
  non local Contribution for L=           1  read in
    real space projection operators read in
  non local Contribution for L=           1  read in
    real space projection operators read in
  non local Contribution for L=           2  read in
    real space projection operators read in
  non local Contribution for L=           2  read in
    real space projection operators read in
  non local Contribution for L=           0  read in
    real space projection operators read in
  non local Contribution for L=           0  read in
    real space projection operators read in
    PAW grid and wavefunctions read in
 
   number of l-projection  operators is LMAX  =           6
   number of lm-projection operators is LMMAX =          18
 

 ----------------------------------------------------------------------------- 
|                                                                             |
|  ADVICE TO THIS USER RUNNING 'VASP/VAMP'   (HEAR YOUR MASTER'S VOICE ...):  |
|                                                                             |
|      You have a (more or less) 'large supercell' and for larger cells       |
|      it might be more efficient to use real space projection opertators     |
|      So try LREAL= Auto  in the INCAR   file.                               |
|      Mind:          For very  accurate calculation you might also keep the  |
|      reciprocal projection scheme          (i.e. LREAL=.FALSE.)             |
|                                                                             |
 ----------------------------------------------------------------------------- 


 ----------------------------------------------------------------------------- 
|                                                                             |
|  ADVICE TO THIS USER RUNNING 'VASP/VAMP'   (HEAR YOUR MASTER'S VOICE ...):  |
|                                                                             |
|      You enforced a specific xc-type in the INCAR file,                     |
|      a different type was found on the POTCAR file                          |
|          I HOPE YOU KNOW, WHAT YOU ARE  DOING                               |
|                                                                             |
 ----------------------------------------------------------------------------- 

  PAW_PBE S 06Sep2000                   :
 energy of atom  1       EATOM= -276.8230
 kinetic energy error for atom=    0.0007 (will be added to EATOM!!)
   PAW_PBE Cu_pv 06Sep2000              :
 energy of atom  2       EATOM=-4120.1201
 kinetic energy error for atom=    0.0094 (will be added to EATOM!!)
   PAW_PBE Fe_pv 02Aug2007              :
 energy of atom  3       EATOM=-2457.4239
 kinetic energy error for atom=    0.0025 (will be added to EATOM!!)
 
 
 POSCAR: Fe16 Cu16 S32                           
  positions in direct lattice
  No initial velocities read in
 exchange correlation table for  LEXCH =       14
   RHO(1)=    0.500       N(1)  =     2000
   RHO(2)=  100.500       N(2)  =     4000
 


--------------------------------------------------------------------------------------------------------


 ion  position               nearest neighbor table
   1  0.126  0.125  0.125-  37 2.26  41 2.26  61 2.28  49 2.28
   2  0.626  0.125  0.125-  38 2.26  42 2.26  62 2.28  50 2.28
   3  0.126  0.625  0.125-  39 2.26  43 2.26  63 2.28  51 2.28
   4  0.626  0.625  0.125-  40 2.26  44 2.26  64 2.28  52 2.28
   5  0.374  0.375  0.125-  39 2.26  41 2.26  62 2.28  52 2.28
   6  0.874  0.375  0.125-  40 2.26  42 2.26  61 2.28  51 2.28
   7  0.374  0.875  0.125-  37 2.26  43 2.26  64 2.28  50 2.28
   8  0.874  0.875  0.125-  38 2.26  44 2.26  63 2.28  49 2.28
   9  0.125  0.374  0.875-  41 2.26  45 2.26  51 2.28  55 2.28
  10  0.625  0.374  0.875-  42 2.26  46 2.26  52 2.28  56 2.28
  11  0.125  0.874  0.875-  43 2.26  47 2.26  49 2.28  53 2.28
  12  0.625  0.874  0.875-  44 2.26  48 2.26  50 2.28  54 2.28
  13  0.375  0.126  0.875-  41 2.26  46 2.26  50 2.28  53 2.28
  14  0.875  0.126  0.875-  42 2.26  45 2.26  49 2.28  54 2.28
  15  0.375  0.626  0.875-  43 2.26  48 2.26  52 2.28  55 2.28
  16  0.875  0.626  0.875-  44 2.26  47 2.26  51 2.28  56 2.28
  17  0.124  0.125  0.625-  45 2.26  33 2.26  53 2.28  57 2.28
  18  0.624  0.125  0.625-  46 2.26  34 2.26  54 2.28  58 2.28
  19  0.124  0.625  0.625-  47 2.26  35 2.26  55 2.28  59 2.28
  20  0.624  0.625  0.625-  48 2.26  36 2.26  56 2.28  60 2.28
  21  0.376  0.375  0.625-  46 2.26  36 2.26  55 2.28  57 2.28
  22  0.876  0.375  0.625-  45 2.26  35 2.26  56 2.28  58 2.28
  23  0.376  0.875  0.625-  48 2.26  34 2.26  53 2.28  59 2.28
  24  0.876  0.875  0.625-  47 2.26  33 2.26  54 2.28  60 2.28
  25  0.375  0.124  0.375-  34 2.26  37 2.26  57 2.28  62 2.28
  26  0.875  0.124  0.375-  33 2.26  38 2.26  58 2.28  61 2.28
  27  0.375  0.624  0.375-  36 2.26  39 2.26  59 2.28  64 2.28
  28  0.875  0.624  0.375-  35 2.26  40 2.26  60 2.28  63 2.28
  29  0.125  0.376  0.375-  35 2.26  39 2.26  57 2.28  61 2.28
  30  0.625  0.376  0.375-  36 2.26  40 2.26  58 2.28  62 2.28
  31  0.125  0.876  0.375-  33 2.26  37 2.26  59 2.28  63 2.28
  32  0.625  0.876  0.375-  34 2.26  38 2.26  60 2.28  64 2.28
  33  0.000  0.000  0.500-  26 2.26  31 2.26  17 2.26  24 2.26
  34  0.500  0.000  0.500-  25 2.26  32 2.26  18 2.26  23 2.26
  35  0.000  0.500  0.500-  28 2.26  29 2.26  19 2.26  22 2.26
  36  0.500  0.500  0.500-  27 2.26  30 2.26  20 2.26  21 2.26
  37  0.250  0.000  0.250-   1 2.26   7 2.26  25 2.26  31 2.26
  38  0.750  0.000  0.250-   2 2.26   8 2.26  26 2.26  32 2.26
  39  0.250  0.500  0.250-   3 2.26   5 2.26  27 2.26  29 2.26
  40  0.750  0.500  0.250-   4 2.26   6 2.26  28 2.26  30 2.26
  41  0.250  0.250  0.000-   9 2.26  13 2.26   1 2.26   5 2.26
  42  0.750  0.250  0.000-  10 2.26  14 2.26   2 2.26   6 2.26
  43  0.250  0.750  0.000-  11 2.26  15 2.26   3 2.26   7 2.26
  44  0.750  0.750  0.000-  12 2.26  16 2.26   4 2.26   8 2.26
  45  0.000  0.250  0.750-  17 2.26  22 2.26   9 2.26  14 2.26
  46  0.500  0.250  0.750-  18 2.26  21 2.26  10 2.26  13 2.26
  47  0.000  0.750  0.750-  19 2.26  24 2.26  11 2.26  16 2.26
  48  0.500  0.750  0.750-  20 2.26  23 2.26  12 2.26  15 2.26
  49  0.000  0.000  0.001-  11 2.28  14 2.28   1 2.28   8 2.28
  50  0.500  0.000  0.001-  12 2.28  13 2.28   2 2.28   7 2.28
  51  0.000  0.500  0.001-   9 2.28  16 2.28   3 2.28   6 2.28
  52  0.500  0.500  0.001-  10 2.28  15 2.28   4 2.28   5 2.28
  53  0.250  0.000  0.751-  17 2.28  23 2.28  11 2.28  13 2.28
  54  0.750  0.000  0.751-  18 2.28  24 2.28  12 2.28  14 2.28
  55  0.250  0.500  0.751-  19 2.28  21 2.28   9 2.28  15 2.28
  56  0.750  0.500  0.751-  20 2.28  22 2.28  10 2.28  16 2.28
  57  0.250  0.250  0.501-  25 2.28  29 2.28  17 2.28  21 2.28
  58  0.750  0.250  0.501-  26 2.28  30 2.28  18 2.28  22 2.28
  59  0.250  0.750  0.501-  27 2.28  31 2.28  19 2.28  23 2.28
  60  0.750  0.750  0.501-  28 2.28  32 2.28  20 2.28  24 2.28
  61  0.000  0.250  0.251-   1 2.28   6 2.28  26 2.28  29 2.28
  62  0.500  0.250  0.251-   2 2.28   5 2.28  25 2.28  30 2.28
  63  0.000  0.750  0.251-   3 2.28   8 2.28  28 2.28  31 2.28
  64  0.500  0.750  0.251-   4 2.28   7 2.28  27 2.28  32 2.28
 
  LATTYP: Found a base centered orthorhombic cell.
 ALAT       =    14.8041403060
 B/A-ratio  =     1.0087553548
 C/A-ratio  =     0.7033986294
  
  Lattice vectors:
  
 A1 = (  10.5139340000,   0.0458260000,   0.0000000000)
 A2 = (  -0.0458260000, -10.5139340000,   0.0000000000)
 A3 = (   0.0000000000,   0.0000000000, -10.4132120000)


Analysis of symmetry for initial positions (statically):
=====================================================================
 Subroutine PRICEL returns following result:
 
  LATTYP: Found a face centered orthorhombic cell.
 ALAT       =     7.4020701530
 B/A-ratio  =     1.0087553548
 C/A-ratio  =     1.4067972587
  
  Lattice vectors:
  
 A1 = (  -2.6399400000,  -2.6399400000,   5.2066060000)
 A2 = (  -2.6170270000,   2.6170270000,   5.2066060000)
 A3 = (  -5.2569670000,  -0.0229130000,  -0.0000000000)
 
   8 primitive cells build up your supercell.
 

 Routine SETGRP: Setting up the symmetry group for a 
 base centered orthorhombic supercell.


 Subroutine GETGRP returns: Found  4 space group operations
 (whereof  2 operations were pure point group operations)
 out of a pool of  8 trial point group operations.


The static configuration has the point symmetry C_2 .
 The point group associated with its full space group is C_2v.


Analysis of symmetry for dynamics (positions and initial velocities):
=====================================================================
 Subroutine PRICEL returns following result:
 
  LATTYP: Found a face centered orthorhombic cell.
 ALAT       =     7.4020701530
 B/A-ratio  =     1.0087553548
 C/A-ratio  =     1.4067972587
  
  Lattice vectors:
  
 A1 = (  -2.6399400000,  -2.6399400000,   5.2066060000)
 A2 = (  -2.6170270000,   2.6170270000,   5.2066060000)
 A3 = (  -5.2569670000,  -0.0229130000,  -0.0000000000)
 
   8 primitive cells build up your supercell.
 

 Routine SETGRP: Setting up the symmetry group for a 
 base centered orthorhombic supercell.


 Subroutine GETGRP returns: Found  4 space group operations
 (whereof  2 operations were pure point group operations)
 out of a pool of  8 trial point group operations.


The dynamic configuration has the point symmetry C_2 .
 The point group associated with its full space group is C_2v.


Analysis of structural, dynamic, and magnetic symmetry:
=====================================================================
 Subroutine PRICEL returns following result:
 
  LATTYP: Found a face centered orthorhombic cell.
 ALAT       =     7.4020701530
 B/A-ratio  =     1.0087553548
 C/A-ratio  =     1.4067972587
  
  Lattice vectors:
  
 A1 = (  -2.6399400000,  -2.6399400000,   5.2066060000)
 A2 = (  -2.6170270000,   2.6170270000,   5.2066060000)
 A3 = (  -5.2569670000,  -0.0229130000,  -0.0000000000)
 
   8 primitive cells build up your supercell.
 

 Routine SETGRP: Setting up the symmetry group for a 
 base centered orthorhombic supercell.


 Subroutine GETGRP returns: Found  4 space group operations
 (whereof  2 operations were pure point group operations)
 out of a pool of  8 trial point group operations.


The magnetic configuration has the point symmetry C_2 .
 The point group associated with its full space group is C_2v.


 Subroutine INISYM returns: Found  4 space group operations
 (whereof  2 operations are pure point group operations),
 and found     8 'primitive' translations

 
 
 KPOINTS: Automatic mesh                          

Automatic generation of k-mesh.
Space group operators:
 irot       det(A)        alpha          n_x          n_y          n_z        tau_x        tau_y        tau_z
    1     1.000000     0.000000     1.000000     0.000000     0.000000     0.000000     0.000000     0.000000
    2     1.000000   180.000000     0.000000     0.000000     1.000000     0.000000     0.000000     0.000000
    3    -1.000000   180.000000     0.707107     0.707107     0.000000    -0.750000     0.000000     0.750000
    4    -1.000000   180.000000     0.707107    -0.707107     0.000000    -0.750000     0.000000     0.750000
 
 Subroutine IBZKPT returns following result:
 ===========================================
 
 Found      6 irreducible k-points:
 
 Following reciprocal coordinates:
            Coordinates               Weight
  0.000000  0.000000  0.000000      1.000000
  0.500000  0.000000  0.000000      2.000000
  0.500000  0.500000  0.000000      1.000000
  0.000000  0.000000  0.500000      1.000000
  0.500000  0.000000  0.500000      2.000000
  0.500000  0.500000  0.500000      1.000000
 
 Following cartesian coordinates:
            Coordinates               Weight
  0.000000  0.000000  0.000000      1.000000
  0.047557 -0.000207  0.000000      2.000000
  0.047350  0.047350  0.000000      1.000000
  0.000000  0.000000  0.048016      1.000000
  0.047557 -0.000207  0.048016      2.000000
  0.047350  0.047350  0.048016      1.000000
 
 TETIRR: Found     12 inequivalent tetrahedra from       48
 
 Subroutine IBZKPT_HF returns following result:
 ==============================================
 
 Found      8 k-points in 1st BZ
 the following      8 k-points will be used (e.g. in the exchange kernel)
 Following reciprocal coordinates:   # in IRBZ
  0.000000  0.000000  0.000000    0.12500000   1 t-inv F
  0.500000  0.000000  0.000000    0.12500000   2 t-inv F
  0.500000  0.500000  0.000000    0.12500000   3 t-inv F
  0.000000  0.000000  0.500000    0.12500000   4 t-inv F
  0.500000  0.000000  0.500000    0.12500000   5 t-inv F
  0.500000  0.500000  0.500000    0.12500000   6 t-inv F
  0.000000 -0.500000  0.000000    0.12500000   2 t-inv F spinflp
  0.000000 -0.500000  0.500000    0.12500000   5 t-inv F spinflp


--------------------------------------------------------------------------------------------------------




 Dimension of arrays:
   k-points           NKPTS =      6   k-points in BZ     NKDIM =      6   number of bands    NBANDS=    512
   number of dos      NEDOS =    301   number of ions     NIONS =     64
   non local maximal  LDIM  =      6   non local SUM 2l+1 LMDIM =     18
   total plane-waves  NPLWV = 829440
   max r-space proj   IRMAX =      1   max aug-charges    IRDMAX=  22898
   dimension x,y,z NGX =    96 NGY =   96 NGZ =   90
   dimension x,y,z NGXF=   192 NGYF=  192 NGZF=  180
   support grid    NGXF=   192 NGYF=  192 NGZF=  180
   ions per type =              32  16  16
   NGX,Y,Z   is equivalent  to a cutoff of  15.18, 15.18, 14.37 a.u.
   NGXF,Y,Z  is equivalent  to a cutoff of  30.36, 30.36, 28.74 a.u.

 SYSTEM =  CuFeS2                                  
 POSCAR =  Fe16 Cu16 S32                           

 Startparameter for this run:
   NWRITE =      2    write-flag & timer
   PREC   = accura    normal or accurate (medium, high low for compatibility)
   ISTART =      0    job   : 0-new  1-cont  2-samecut
   ICHARG =      1    charge: 1-file 2-atom 10-const
   ISPIN  =      2    spin polarized calculation?
   LNONCOLLINEAR =      F non collinear calculations
   LSORBIT =      F    spin-orbit coupling
   INIWAV =      1    electr: 0-lowe 1-rand  2-diag
   LASPH  =      F    aspherical Exc in radial PAW
   METAGGA=      F    non-selfconsistent MetaGGA calc.

 Electronic Relaxation 1
   ENCUT  =  700.0 eV  51.45 Ry    7.17 a.u.  22.68 22.68 22.46*2*pi/ulx,y,z
   ENINI  =  700.0     initial cutoff
   ENAUG  =  758.2 eV  augmentation charge cutoff
   NELM   =    500;   NELMIN=  2; NELMDL=  0     # of ELM steps 
   EDIFF  = 0.1E-07   stopping-criterion for ELM
   LREAL  =      F    real-space projection
   NLSPLINE    = F    spline interpolate recip. space projectors
   LCOMPAT=      F    compatible to vasp.4.4
   GGA_COMPAT  = T    GGA compatible to vasp.4.4-vasp.4.6
   LMAXPAW     = -100 max onsite density
   LMAXMIX     =    4 max onsite mixed and CHGCAR
   VOSKOWN=      0    Vosko Wilk Nusair interpolation
   ROPT   =    0.00000   0.00000   0.00000
 Ionic relaxation
   EDIFFG = -.1E-04   stopping-criterion for IOM
   NSW    =      0    number of steps for IOM
   NBLOCK =      1;   KBLOCK =      1    inner block; outer block 
   IBRION =     -1    ionic relax: 0-MD 1-quasi-New 2-CG
   NFREE  =      0    steps in history (QN), initial steepest desc. (CG)
   ISIF   =      2    stress and relaxation
   IWAVPR =     10    prediction:  0-non 1-charg 2-wave 3-comb
   ISYM   =      2    0-nonsym 1-usesym 2-fastsym
   LCORR  =      T    Harris-Foulkes like correction to forces

   POTIM  = 0.5000    time-step for ionic-motion
   TEIN   =    0.0    initial temperature
   TEBEG  =    0.0;   TEEND  =   0.0 temperature during run
   SMASS  =  -3.00    Nose mass-parameter (am)
   estimated Nose-frequenzy (Omega)   =  0.10E-29 period in steps =****** mass=  -0.253E-26a.u.
   SCALEE = 1.0000    scale energy and forces
   NPACO  =    256;   APACO  = 16.0  distance and # of slots for P.C.
   PSTRESS=    0.0 pullay stress

  Mass of Ions in am
   POMASS =  32.07 63.55 55.85
  Ionic Valenz
   ZVAL   =   6.00 17.00 14.00
  Atomic Wigner-Seitz radii
   RWIGS  =  -1.00 -1.00 -1.00
  virtual crystal weights 
   VCA    =   1.00  1.00  1.00
   NELECT =     688.0000    total number of electrons
   NUPDOWN=      -1.0000    fix difference up-down

 DOS related values:
   EMIN   =  10.00;   EMAX   =-10.00  energy-range for DOS
   EFERMI =   0.00
   ISMEAR =    -5;   SIGMA  =   0.03  broadening in eV -4-tet -1-fermi 0-gaus

 Electronic relaxation 2 (details)
   IALGO  =     38    algorithm
   LDIAG  =      T    sub-space diagonalisation (order eigenvalues)
   LSUBROT=      F    optimize rotation matrix (better conditioning)
   TURBO    =      0    0=normal 1=particle mesh
   IRESTART =      0    0=no restart 2=restart with 2 vectors
   NREBOOT  =      0    no. of reboots
   NMIN     =      0    reboot dimension
   EREF     =   0.00    reference energy to select bands
   IMIX   =      4    mixing-type and parameters
     AMIX     =   0.40;   BMIX     =  1.00
     AMIX_MAG =   1.60;   BMIX_MAG =  1.00
     AMIN     =   0.10
     WC   =   100.;   INIMIX=   1;  MIXPRE=   1;  MAXMIX= -45

 Intra band minimization:
   WEIMIN = 0.0000     energy-eigenvalue tresh-hold
   EBREAK =  0.49E-11  absolut break condition
   DEPER  =   0.30     relativ break condition  

   TIME   =   0.40     timestep for ELM

  volume/ion in A,a.u.               =      17.99       121.37
  Fermi-wavevector in a.u.,A,eV,Ry     =   1.379014  2.605958 25.873920  1.901679
  Thomas-Fermi vector in A             =   2.504022
 
 Write flags
   LWAVE        =      T    write WAVECAR
   LDOWNSAMPLE  =      F    k-point downsampling of WAVECAR
   LCHARG       =      T    write CHGCAR
   LVTOT        =      F    write LOCPOT, total local potential
   LVHAR        =      F    write LOCPOT, Hartree potential only
   LELF         =      F    write electronic localiz. function (ELF)
   LORBIT       =     11    0 simple, 1 ext, 2 COOP (PROOUT), +10 PAW based schemes


 Dipole corrections
   LMONO  =      F    monopole corrections only (constant potential shift)
   LDIPOL =      F    correct potential (dipole corrections)
   IDIPOL =      0    1-x, 2-y, 3-z, 4-all directions 
   EPSILON=  1.0000000 bulk dielectric constant

 LDA+U is selected, type is set to LDAUTYPE =  2
   angular momentum for each species LDAUL =     2    2    2
   U (eV)           for each species LDAUU =   0.0  0.1  4.7
   J (eV)           for each species LDAUJ =   0.0  0.0  0.0
 Exchange correlation treatment:
   GGA     =    PS    GGA type
   LEXCH   =    14    internal setting for exchange type
   VOSKOWN=      0    Vosko Wilk Nusair interpolation
   LHFCALC =     F    Hartree Fock is set to
   LHFONE  =     F    Hartree Fock one center treatment
   AEXX    =    0.0000 exact exchange contribution

 Linear response parameters
   LEPSILON=     F    determine dielectric tensor
   LRPA    =     F    only Hartree local field effects (RPA)
   LNABLA  =     F    use nabla operator in PAW spheres
   LVEL    =     F    velocity operator in full k-point grid
   LINTERFAST=   F  fast interpolation
   KINTER  =     0    interpolate to denser k-point grid
   CSHIFT  =0.1000    complex shift for real part using Kramers Kronig
   OMEGAMAX=  -1.0    maximum frequency
   DEG_THRESHOLD= 0.2000000E-02 threshold for treating states as degnerate
   RTIME   =   -0.100 relaxation time in fs
  (WPLASMAI=    0.000 imaginary part of plasma frequency in eV, 0.658/RTIME)
   DFIELD  = 0.0000000 0.0000000 0.0000000 field for delta impulse in time
 
 Orbital magnetization related:
   ORBITALMAG=     F  switch on orbital magnetization
   LCHIMAG   =     F  perturbation theory with respect to B field
   DQ        =  0.001000  dq finite difference perturbation B field
   LLRAUG    =     F  two centre corrections for induced B field

 PEAD related settings:
   LPEAD      =     T    switch on PEAD
   IPEAD      =     4    finite difference order for dpsi/dk
   LCALCPOL   =     T    calculate macroscopic polarization
   LCALCEPS   =     F    calculate dielectric tensor
   EFIELD_PEAD=    0.0000    0.0000    0.0000
   SKIP_EDOTP =     F
   LRPA       =     F
   SKIP_SCF   =     F


--------------------------------------------------------------------------------------------------------


 Static calculation
 charge density and potential will be updated during run
 spin polarized calculation
 Variant of blocked Davidson
 Davidson routine will perform the subspace rotation
 perform sub-space diagonalisation
    after iterative eigenvector-optimisation
 modified Broyden-mixing scheme, WC =      100.0
 initial mixing is a Kerker type mixing with AMIX =  0.4000 and BMIX =      1.0000
 Hartree-type preconditioning will be used
 using additional bands          168
 reciprocal scheme for non local part
 use partial core corrections
 calculate Harris-corrections to forces 
   (improved forces if not selfconsistent)
 use gradient corrections 
 use of overlap-Matrix (Vanderbilt PP)
 Fermi weights with tetrahedron method with Bloechl corrections


--------------------------------------------------------------------------------------------------------


  energy-cutoff  :      700.00
  volume of cell :     1151.08
      direct lattice vectors                 reciprocal lattice vectors
    10.513934000  0.045826000  0.000000000     0.095113684 -0.000414562  0.000000000
     0.045826000 10.513934000  0.000000000    -0.000414562  0.095113684  0.000000000
     0.000000000  0.000000000 10.413212000     0.000000000  0.000000000  0.096031849

  length of vectors
    10.514033868 10.514033868 10.413212000     0.095114588  0.095114588  0.096031849


 
 k-points in units of 2pi/SCALE and weight: Automatic mesh                          
   0.00000000  0.00000000  0.00000000       0.125
   0.04755684 -0.00020728  0.00000000       0.250
   0.04734956  0.04734956  0.00000000       0.125
   0.00000000  0.00000000  0.04801592       0.125
   0.04755684 -0.00020728  0.04801592       0.250
   0.04734956  0.04734956  0.04801592       0.125
 
 k-points in reciprocal lattice and weights: Automatic mesh                          
   0.00000000  0.00000000  0.00000000       0.125
   0.50000000  0.00000000  0.00000000       0.250
   0.50000000  0.50000000  0.00000000       0.125
   0.00000000  0.00000000  0.50000000       0.125
   0.50000000  0.00000000  0.50000000       0.250
   0.50000000  0.50000000  0.50000000       0.125
 
 position of ions in fractional coordinates (direct lattice) 
   0.12615200  0.12505100  0.12451700
   0.62615200  0.12505100  0.12451700
   0.12615200  0.62505100  0.12451700
   0.62615200  0.62505100  0.12451700
   0.37384800  0.37494900  0.12451700
   0.87384800  0.37494900  0.12451700
   0.37384800  0.87494900  0.12451700
   0.87384800  0.87494900  0.12451700
   0.12494900  0.37384800  0.87451700
   0.62494900  0.37384800  0.87451700
   0.12494900  0.87384800  0.87451700
   0.62494900  0.87384800  0.87451700
   0.37505100  0.12615200  0.87451700
   0.87505100  0.12615200  0.87451700
   0.37505100  0.62615200  0.87451700
   0.87505100  0.62615200  0.87451700
   0.12384800  0.12494900  0.62451700
   0.62384800  0.12494900  0.62451700
   0.12384800  0.62494900  0.62451700
   0.62384800  0.62494900  0.62451700
   0.37615200  0.37505100  0.62451700
   0.87615200  0.37505100  0.62451700
   0.37615200  0.87505100  0.62451700
   0.87615200  0.87505100  0.62451700
   0.37494900  0.12384800  0.37451700
   0.87494900  0.12384800  0.37451700
   0.37494900  0.62384800  0.37451700
   0.87494900  0.62384800  0.37451700
   0.12505100  0.37615200  0.37451700
   0.62505100  0.37615200  0.37451700
   0.12505100  0.87615200  0.37451700
   0.62505100  0.87615200  0.37451700
   0.00000000  0.00000000  0.50041900
   0.50000000  0.00000000  0.50041900
   0.00000000  0.50000000  0.50041900
   0.50000000  0.50000000  0.50041900
   0.25000000  0.00000000  0.25041900
   0.75000000  0.00000000  0.25041900
   0.25000000  0.50000000  0.25041900
   0.75000000  0.50000000  0.25041900
   0.25000000  0.25000000  0.00041900
   0.75000000  0.25000000  0.00041900
   0.25000000  0.75000000  0.00041900
   0.75000000  0.75000000  0.00041900
   0.00000000  0.25000000  0.75041900
   0.50000000  0.25000000  0.75041900
   0.00000000  0.75000000  0.75041900
   0.50000000  0.75000000  0.75041900
   0.00000000  0.00000000  0.00054800
   0.50000000  0.00000000  0.00054800
   0.00000000  0.50000000  0.00054800
   0.50000000  0.50000000  0.00054800
   0.25000000  0.00000000  0.75054800
   0.75000000  0.00000000  0.75054800
   0.25000000  0.50000000  0.75054800
   0.75000000  0.50000000  0.75054800
   0.25000000  0.25000000  0.50054800
   0.75000000  0.25000000  0.50054800
   0.25000000  0.75000000  0.50054800
   0.75000000  0.75000000  0.50054800
   0.00000000  0.25000000  0.25054800
   0.50000000  0.25000000  0.25054800
   0.00000000  0.75000000  0.25054800
   0.50000000  0.75000000  0.25054800
 
 position of ions in cartesian coordinates  (Angst):
   1.33208439  1.32055900  1.29662192
   6.58905139  1.34347200  1.29662192
   1.35499739  6.57752600  1.29662192
   6.61196439  6.60043900  1.29662192
   3.94779561  3.95932100  1.29662192
   9.20476261  3.98223400  1.29662192
   3.97070861  9.21628800  1.29662192
   9.22767561  9.23920100  1.29662192
   1.33083750  3.93633911  9.10653092
   6.58780450  3.95925211  9.10653092
   1.35375050  9.19330611  9.10653092
   6.61071750  9.21621911  9.10653092
   3.94904250  1.34354089  9.10653092
   9.20600950  1.36645389  9.10653092
   3.97195550  6.60050789  9.10653092
   9.22892250  6.62342089  9.10653092
   1.30785561  1.31938100  6.50322792
   6.56482261  1.34229400  6.50322792
   1.33076861  6.57634800  6.50322792
   6.58773561  6.59926100  6.50322792
   3.97202439  3.96049900  6.50322792
   9.22899139  3.98341200  6.50322792
   3.99493739  9.21746600  6.50322792
   9.25190439  9.24037900  6.50322792
   3.94786450  1.31931211  3.89992492
   9.20483150  1.34222511  3.89992492
   3.97077750  6.57627911  3.89992492
   9.22774450  6.59919211  3.89992492
   1.33201550  3.96056789  3.89992492
   6.58898250  3.98348089  3.89992492
   1.35492850  9.21753489  3.89992492
   6.61189550  9.24044789  3.89992492
   0.00000000  0.00000000  5.21096914
   5.25696700  0.02291300  5.21096914
   0.02291300  5.25696700  5.21096914
   5.27988000  5.27988000  5.21096914
   2.62848350  0.01145650  2.60766614
   7.88545050  0.03436950  2.60766614
   2.65139650  5.26842350  2.60766614
   7.90836350  5.29133650  2.60766614
   2.63994000  2.63994000  0.00436314
   7.89690700  2.66285300  0.00436314
   2.66285300  7.89690700  0.00436314
   7.91982000  7.91982000  0.00436314
   0.01145650  2.62848350  7.81427214
   5.26842350  2.65139650  7.81427214
   0.03436950  7.88545050  7.81427214
   5.29133650  7.90836350  7.81427214
   0.00000000  0.00000000  0.00570644
   5.25696700  0.02291300  0.00570644
   0.02291300  5.25696700  0.00570644
   5.27988000  5.27988000  0.00570644
   2.62848350  0.01145650  7.81561544
   7.88545050  0.03436950  7.81561544
   2.65139650  5.26842350  7.81561544
   7.90836350  5.29133650  7.81561544
   2.63994000  2.63994000  5.21231244
   7.89690700  2.66285300  5.21231244
   2.66285300  7.89690700  5.21231244
   7.91982000  7.91982000  5.21231244
   0.01145650  2.62848350  2.60900944
   5.26842350  2.65139650  2.60900944
   0.03436950  7.88545050  2.60900944
   5.29133650  7.90836350  2.60900944
 


--------------------------------------------------------------------------------------------------------


 k-point  1 :   0.0000 0.0000 0.0000  plane waves:   48471
 k-point  2 :   0.5000 0.0000 0.0000  plane waves:   48440
 k-point  3 :   0.5000 0.5000 0.0000  plane waves:   48396
 k-point  4 :   0.0000 0.0000 0.5000  plane waves:   48416
 k-point  5 :   0.5000 0.0000 0.5000  plane waves:   48376
 k-point  6 :   0.5000 0.5000 0.5000  plane waves:   48376

 maximum and minimum number of plane-waves per node :     48471    48376

 maximum number of plane-waves:     48471
 maximum index in each direction: 
   IXMAX=   22   IYMAX=   22   IZMAX=   22
   IXMIN=  -23   IYMIN=  -23   IZMIN=  -22


 serial   3D FFT for wavefunctions
 parallel 3D FFT for charge:
    minimum data exchange during FFTs selected (reduces bandwidth)


 total amount of memory used by VASP MPI-rank0   301249. kBytes
=======================================================================

   base      :      30000. kBytes
   nonl-proj :     175882. kBytes
   fftplans  :       4588. kBytes
   grid      :      69719. kBytes
   one-center:       1990. kBytes
   wavefun   :      19070. kBytes
 
     INWAV:  cpu time    0.0002: real time    0.0003
 Broyden mixing: mesh for mixing (old mesh)
   NGX = 45   NGY = 45   NGZ = 45
  (NGX  =192   NGY  =192   NGZ  =180)
  gives a total of  91125 points

 initial charge density was supplied:
 number of electron     688.0000452 magnetization      -0.0000000
 keeping initial charge density in first step


--------------------------------------------------------------------------------------------------------


 Maximum index for augmentation-charges          897 (set IRDMAX)


--------------------------------------------------------------------------------------------------------


 First call to EWALD:  gamma=   0.169
 Maximum number of real-space cells 3x 3x 3
 Maximum number of reciprocal cells 3x 3x 3

    FEWALD:  cpu time    0.2210: real time    0.2222


--------------------------------------- Iteration      1(   1)  ---------------------------------------


    POTLOK:  cpu time    1.1083: real time    1.1168
    SETDIJ:  cpu time    0.0427: real time    0.0429
     EDDAV:  cpu time  540.4761: real time  542.6093
 BZINTS: Fermi energy: 14.958379;688.000000 electrons
         Band energy:***********;  BLOECHL correction: -0.013298
       DOS:  cpu time    0.0269: real time    0.0270
    --------------------------------------------
      LOOP:  cpu time  541.6540: real time  543.7960

 eigenvalue-minimisations  : 12288
 total energy-change (2. order) : 0.6058528E+04  (-0.5159198E+05)
 number of electron     688.0000452 magnetization      -0.0000000
 augmentation part      688.0000452 magnetization      -0.0000000

 Free energy of the ion-electron system (eV)
  ---------------------------------------------------
  alpha Z        PSCENC =      2355.30243579
  Ewald energy   TEWEN  =    -62460.05160184
  -Hartree energ DENC   =    -42958.39407050
  -exchange      EXHF   =         0.00000000
  -V(xc)+E(xc)   XCENC  =      3286.49852316
  PAW double counting   =    112276.60512906  -115970.62800700
  entropy T*S    EENTRO =         0.00000000
  eigenvalues    EBANDS =     -4490.86936681
  atomic energy  EATOM  =    114020.06510763
  Solvation  Ediel_sol  =         0.00000000
  ---------------------------------------------------
  free energy    TOTEN  =      6058.52814948 eV

  energy without entropy =     6058.52814948  energy(sigma->0) =     6058.52814948


--------------------------------------------------------------------------------------------------------




--------------------------------------- Iteration      1(   2)  ---------------------------------------


     EDDAV:  cpu time  626.2804: real time  628.5840
 BZINTS: Fermi energy:  5.467667;688.000000 electrons
         Band energy:***********;  BLOECHL correction:  0.000000
       DOS:  cpu time    0.0049: real time    0.0049
    --------------------------------------------
      LOOP:  cpu time  626.2853: real time  628.5890

 eigenvalue-minimisations  : 14336
 total energy-change (2. order) :-0.6149031E+04  (-0.6038797E+04)
 number of electron     688.0000452 magnetization      -0.0000000
 augmentation part      688.0000452 magnetization      -0.0000000

 Free energy of the ion-electron system (eV)
  ---------------------------------------------------
  alpha Z        PSCENC =      2355.30243579
  Ewald energy   TEWEN  =    -62460.05160184
  -Hartree energ DENC   =    -42958.39407050
  -exchange      EXHF   =         0.00000000
  -V(xc)+E(xc)   XCENC  =      3286.49852316
  PAW double counting   =    112276.60512906  -115970.62800700
  entropy T*S    EENTRO =         0.00000000
  eigenvalues    EBANDS =    -10639.90047646
  atomic energy  EATOM  =    114020.06510763
  Solvation  Ediel_sol  =         0.00000000
  ---------------------------------------------------
  free energy    TOTEN  =       -90.50296016 eV

  energy without entropy =      -90.50296016  energy(sigma->0) =      -90.50296016


--------------------------------------------------------------------------------------------------------




--------------------------------------- Iteration      1(   3)  ---------------------------------------


     EDDAV:  cpu time  701.4382: real time  704.0480
 BZINTS: Fermi energy:  4.970309;688.000000 electrons
         Band energy:***********;  BLOECHL correction:  0.000000
       DOS:  cpu time    0.0048: real time    0.0048
    --------------------------------------------
      LOOP:  cpu time  701.4430: real time  704.0528

 eigenvalue-minimisations  : 16128
 total energy-change (2. order) :-0.2341982E+03  (-0.2336012E+03)
 number of electron     688.0000452 magnetization      -0.0000000
 augmentation part      688.0000452 magnetization      -0.0000000

 Free energy of the ion-electron system (eV)
  ---------------------------------------------------
  alpha Z        PSCENC =      2355.30243579
  Ewald energy   TEWEN  =    -62460.05160184
  -Hartree energ DENC   =    -42958.39407050
  -exchange      EXHF   =         0.00000000
  -V(xc)+E(xc)   XCENC  =      3286.49852316
  PAW double counting   =    112276.60512906  -115970.62800700
  entropy T*S    EENTRO =         0.00000000
  eigenvalues    EBANDS =    -10874.09871827
  atomic energy  EATOM  =    114020.06510763
  Solvation  Ediel_sol  =         0.00000000
  ---------------------------------------------------
  free energy    TOTEN  =      -324.70120198 eV

  energy without entropy =     -324.70120198  energy(sigma->0) =     -324.70120198


--------------------------------------------------------------------------------------------------------




--------------------------------------- Iteration      1(   4)  ---------------------------------------


     EDDAV:  cpu time  659.1048: real time  661.5601
 BZINTS: Fermi energy:  4.846783;688.000000 electrons
         Band energy:***********;  BLOECHL correction:  0.000000
       DOS:  cpu time    0.0047: real time    0.0047
    --------------------------------------------
      LOOP:  cpu time  659.1095: real time  661.5648

 eigenvalue-minimisations  : 15104
 total energy-change (2. order) :-0.3304389E+01  (-0.3304267E+01)
 number of electron     688.0000452 magnetization      -0.0000000
 augmentation part      688.0000452 magnetization      -0.0000000

 Free energy of the ion-electron system (eV)
  ---------------------------------------------------
  alpha Z        PSCENC =      2355.30243579
  Ewald energy   TEWEN  =    -62460.05160184
  -Hartree energ DENC   =    -42958.39407050
  -exchange      EXHF   =         0.00000000
  -V(xc)+E(xc)   XCENC  =      3286.49852316
  PAW double counting   =    112276.60512906  -115970.62800700
  entropy T*S    EENTRO =         0.00000000
  eigenvalues    EBANDS =    -10877.40310730
  atomic energy  EATOM  =    114020.06510763
  Solvation  Ediel_sol  =         0.00000000
  ---------------------------------------------------
  free energy    TOTEN  =      -328.00559100 eV

  energy without entropy =     -328.00559100  energy(sigma->0) =     -328.00559100


--------------------------------------------------------------------------------------------------------




--------------------------------------- Iteration      1(   5)  ---------------------------------------


     EDDAV:  cpu time  716.9884: real time  719.6133
 BZINTS: Fermi energy:  4.876218;688.000000 electrons
         Band energy:***********;  BLOECHL correction:  0.000000
       DOS:  cpu time    0.0045: real time    0.0046
    CHARGE:  cpu time    5.4767: real time    5.4975
    MIXING:  cpu time    0.0128: real time    0.0129
    --------------------------------------------
      LOOP:  cpu time  722.4824: real time  725.1283

 eigenvalue-minimisations  : 16384
 total energy-change (2. order) :-0.1047417E+00  (-0.1047412E+00)
 number of electron     688.0000452 magnetization      -0.0000000
 augmentation part      282.2341738 magnetization      -0.0000000

 Broyden mixing:
  rms(total) = 0.25345E-01    rms(broyden)= 0.25341E-01
  rms(prec ) = 0.25405E-01
  weight for this iteration     100.00

 Free energy of the ion-electron system (eV)
  ---------------------------------------------------
  alpha Z        PSCENC =      2355.30243579
  Ewald energy   TEWEN  =    -62460.05160184
  -Hartree energ DENC   =    -42958.39407050
  -exchange      EXHF   =         0.00000000
  -V(xc)+E(xc)   XCENC  =      3286.49852316
  PAW double counting   =    112276.60512906  -115970.62800700
  entropy T*S    EENTRO =         0.00000000
  eigenvalues    EBANDS =    -10877.50784900
  atomic energy  EATOM  =    114020.06510763
  Solvation  Ediel_sol  =         0.00000000
  ---------------------------------------------------
  free energy    TOTEN  =      -328.11033270 eV

  energy without entropy =     -328.11033270  energy(sigma->0) =     -328.11033270


--------------------------------------------------------------------------------------------------------




--------------------------------------- Iteration      1(   6)  ---------------------------------------


    POTLOK:  cpu time    0.4853: real time    0.4888
    SETDIJ:  cpu time    0.0325: real time    0.0327
     EDDAV:  cpu time  727.7367: real time  730.7358
 BZINTS: Fermi energy:  4.816980;688.000000 electrons
         Band energy:***********;  BLOECHL correction:  0.000000
       DOS:  cpu time    0.0050: real time    0.0080
    CHARGE:  cpu time    5.4872: real time    5.5341
    MIXING:  cpu time    0.0229: real time    0.1938
    --------------------------------------------
      LOOP:  cpu time  733.7698: real time  736.9933

 eigenvalue-minimisations  : 16384
 total energy-change (2. order) :-0.5227891E-02  (-0.5245639E-02)
 number of electron     688.0000452 magnetization      -0.0000000
 augmentation part      282.2080665 magnetization      -0.0000000

 Broyden mixing:
  rms(total) = 0.95614E-02    rms(broyden)= 0.95586E-02
  rms(prec ) = 0.98929E-02
  weight for this iteration     100.00

 eigenvalues of (default mixing * dielectric matrix)
  average eigenvalue GAMMA=   0.7213
  0.7213

 Free energy of the ion-electron system (eV)
  ---------------------------------------------------
  alpha Z        PSCENC =      2355.30243579
  Ewald energy   TEWEN  =    -62460.05160184
  -Hartree energ DENC   =    -42958.92027097
  -exchange      EXHF   =         0.00000000
  -V(xc)+E(xc)   XCENC  =      3286.52099562
  PAW double counting   =    112297.04931884  -115991.26027688
  entropy T*S    EENTRO =         0.00000000
  eigenvalues    EBANDS =    -10876.82126879
  atomic energy  EATOM  =    114020.06510763
  Solvation  Ediel_sol  =         0.00000000
  ---------------------------------------------------
  free energy    TOTEN  =      -328.11556060 eV

  energy without entropy =     -328.11556060  energy(sigma->0) =     -328.11556060


--------------------------------------------------------------------------------------------------------




--------------------------------------- Iteration      1(   7)  ---------------------------------------


    POTLOK:  cpu time    1.1498: real time    1.1559
    SETDIJ:  cpu time    0.0339: real time    0.0341
     EDDAV:  cpu time  675.8310: real time  678.3806
 BZINTS: Fermi energy:  5.006476;688.000000 electrons
         Band energy:***********;  BLOECHL correction:  0.000000
       DOS:  cpu time    0.0046: real time    0.0046
    CHARGE:  cpu time    5.4167: real time    5.4377
    MIXING:  cpu time    0.0103: real time    0.0696
    --------------------------------------------
      LOOP:  cpu time  682.4461: real time  685.0822

 eigenvalue-minimisations  : 15616
 total energy-change (2. order) :-0.3064471E-03  (-0.3411249E-03)
 number of electron     688.0000452 magnetization      -0.0000000
 augmentation part      282.2221322 magnetization      -0.0000000

 Broyden mixing:
  rms(total) = 0.84957E-02    rms(broyden)= 0.84946E-02
  rms(prec ) = 0.87123E-02
  weight for this iteration     100.00

 eigenvalues of (default mixing * dielectric matrix)
  average eigenvalue GAMMA=   0.5487
  0.5487  0.5487

 Free energy of the ion-electron system (eV)
  ---------------------------------------------------
  alpha Z        PSCENC =      2355.30243579
  Ewald energy   TEWEN  =    -62460.05160184
  -Hartree energ DENC   =    -42958.04145297
  -exchange      EXHF   =         0.00000000
  -V(xc)+E(xc)   XCENC  =      3286.49386522
  PAW double counting   =    112289.77915849  -115983.82491292
  entropy T*S    EENTRO =         0.00000000
  eigenvalues    EBANDS =    -10877.83846643
  atomic energy  EATOM  =    114020.06510763
  Solvation  Ediel_sol  =         0.00000000
  ---------------------------------------------------
  free energy    TOTEN  =      -328.11586704 eV

  energy without entropy =     -328.11586704  energy(sigma->0) =     -328.11586704


--------------------------------------------------------------------------------------------------------




--------------------------------------- Iteration      1(   8)  ---------------------------------------


    POTLOK:  cpu time    0.4892: real time    0.4911
    SETDIJ:  cpu time    0.0325: real time    0.0327
     EDDAV:  cpu time  699.7152: real time  702.3457
 BZINTS: Fermi energy:  4.997565;688.000000 electrons
         Band energy:***********;  BLOECHL correction:  0.000000
       DOS:  cpu time    0.0047: real time    0.0047
    CHARGE:  cpu time    5.4449: real time    5.4660
    MIXING:  cpu time    0.0186: real time    0.0363
    --------------------------------------------
      LOOP:  cpu time  705.7050: real time  708.3764

 eigenvalue-minimisations  : 16384
 total energy-change (2. order) :-0.1896311E-04  (-0.3219003E-04)
 number of electron     688.0000452 magnetization      -0.0000000
 augmentation part      282.2193736 magnetization      -0.0000000

 Broyden mixing:
  rms(total) = 0.75100E-02    rms(broyden)= 0.75097E-02
  rms(prec ) = 0.75776E-02
  weight for this iteration     100.00

 eigenvalues of (default mixing * dielectric matrix)
  average eigenvalue GAMMA=   0.4197
  0.4991  0.4991  0.2609

 Free energy of the ion-electron system (eV)
  ---------------------------------------------------
  alpha Z        PSCENC =      2355.30243579
  Ewald energy   TEWEN  =    -62460.05160184
  -Hartree energ DENC   =    -42958.34608342
  -exchange      EXHF   =         0.00000000
  -V(xc)+E(xc)   XCENC  =      3286.50374954
  PAW double counting   =    112288.27805492  -115982.35846645
  entropy T*S    EENTRO =         0.00000000
  eigenvalues    EBANDS =    -10877.50908218
  atomic energy  EATOM  =    114020.06510763
  Solvation  Ediel_sol  =         0.00000000
  ---------------------------------------------------
  free energy    TOTEN  =      -328.11588601 eV

  energy without entropy =     -328.11588601  energy(sigma->0) =     -328.11588601


--------------------------------------------------------------------------------------------------------




--------------------------------------- Iteration      1(   9)  ---------------------------------------


    POTLOK:  cpu time    0.4852: real time    0.4870
    SETDIJ:  cpu time    0.0322: real time    0.0323
     EDDAV:  cpu time  809.7539: real time  812.7783
 BZINTS: Fermi energy:  4.992228;688.000000 electrons
         Band energy:***********;  BLOECHL correction:  0.000000
       DOS:  cpu time    0.0046: real time    0.0046
    CHARGE:  cpu time    5.4440: real time    5.4662
    MIXING:  cpu time    0.0090: real time    0.0091
    --------------------------------------------
      LOOP:  cpu time  815.7288: real time  818.7774

 eigenvalue-minimisations  : 17408
 total energy-change (2. order) : 0.2073793E-06  (-0.1672330E-05)
 number of electron     688.0000452 magnetization      -0.0000000
 augmentation part      282.2185940 magnetization      -0.0000000

 Broyden mixing:
  rms(total) = 0.68171E-02    rms(broyden)= 0.68171E-02
  rms(prec ) = 0.68311E-02
  weight for this iteration     100.00

 eigenvalues of (default mixing * dielectric matrix)
  average eigenvalue GAMMA=   0.4879
  0.6289  0.6289  0.3469  0.3469

 Free energy of the ion-electron system (eV)
  ---------------------------------------------------
  alpha Z        PSCENC =      2355.30243579
  Ewald energy   TEWEN  =    -62460.05160184
  -Hartree energ DENC   =    -42958.36459441
  -exchange      EXHF   =         0.00000000
  -V(xc)+E(xc)   XCENC  =      3286.50268972
  PAW double counting   =    112287.50025754  -115981.58124093
  entropy T*S    EENTRO =         0.00000000
  eigenvalues    EBANDS =    -10877.48893930
  atomic energy  EATOM  =    114020.06510763
  Solvation  Ediel_sol  =         0.00000000
  ---------------------------------------------------
  free energy    TOTEN  =      -328.11588580 eV

  energy without entropy =     -328.11588580  energy(sigma->0) =     -328.11588580


--------------------------------------------------------------------------------------------------------




--------------------------------------- Iteration      1(  10)  ---------------------------------------


    POTLOK:  cpu time    0.4911: real time    0.4930
    SETDIJ:  cpu time    0.0339: real time    0.0341
     EDDAV:  cpu time  684.9404: real time  687.4579
 BZINTS: Fermi energy:  4.990374;688.000000 electrons
         Band energy:***********;  BLOECHL correction:  0.000000
       DOS:  cpu time    0.0047: real time    0.0047
    CHARGE:  cpu time    6.3269: real time    6.3512
    MIXING:  cpu time    0.0093: real time    0.0093
    --------------------------------------------
      LOOP:  cpu time  691.8062: real time  694.3501

 eigenvalue-minimisations  : 15360
 total energy-change (2. order) : 0.2415327E-06  (-0.6902476E-07)
 number of electron     688.0000452 magnetization      -0.0000000
 augmentation part      282.2182637 magnetization      -0.0000000

 Broyden mixing:
  rms(total) = 0.58891E-02    rms(broyden)= 0.58891E-02
  rms(prec ) = 0.59033E-02
  weight for this iteration     100.00

 eigenvalues of (default mixing * dielectric matrix)
  average eigenvalue GAMMA=   0.7339
  1.1839  1.1839  0.4806  0.4806  0.3406

 Free energy of the ion-electron system (eV)
  ---------------------------------------------------
  alpha Z        PSCENC =      2355.30243579
  Ewald energy   TEWEN  =    -62460.05160184
  -Hartree energ DENC   =    -42958.40026810
  -exchange      EXHF   =         0.00000000
  -V(xc)+E(xc)   XCENC  =      3286.50282056
  PAW double counting   =    112285.98473830  -115980.05973888
  entropy T*S    EENTRO =         0.00000000
  eigenvalues    EBANDS =    -10877.45937901
  atomic energy  EATOM  =    114020.06510763
  Solvation  Ediel_sol  =         0.00000000
  ---------------------------------------------------
  free energy    TOTEN  =      -328.11588556 eV

  energy without entropy =     -328.11588556  energy(sigma->0) =     -328.11588556


--------------------------------------------------------------------------------------------------------




--------------------------------------- Iteration      1(  11)  ---------------------------------------


    POTLOK:  cpu time    0.4831: real time    0.4850
    SETDIJ:  cpu time    0.0316: real time    0.0317
     EDDAV:  cpu time  742.7295: real time  745.4897
 BZINTS: Fermi energy:  4.989372;688.000000 electrons
         Band energy:***********;  BLOECHL correction:  0.000000
       DOS:  cpu time    0.0086: real time    0.0090
    CHARGE:  cpu time    7.2201: real time    7.2477
    MIXING:  cpu time    0.2561: real time    0.2571
    --------------------------------------------
      LOOP:  cpu time  750.7291: real time  753.5201

 eigenvalue-minimisations  : 16384
 total energy-change (2. order) : 0.9165378E-06  (-0.7782673E-07)
 number of electron     688.0000452 magnetization       0.0000000
 augmentation part      282.2189130 magnetization       0.0000000

 Broyden mixing:
  rms(total) = 0.30804E-02    rms(broyden)= 0.30804E-02
  rms(prec ) = 0.30896E-02
  weight for this iteration     100.00

 eigenvalues of (default mixing * dielectric matrix)
  average eigenvalue GAMMA=   0.8923
  1.5872  1.5872  0.6590  0.6590  0.5264  0.3351

 Free energy of the ion-electron system (eV)
  ---------------------------------------------------
  alpha Z        PSCENC =      2355.30243579
  Ewald energy   TEWEN  =    -62460.05160184
  -Hartree energ DENC   =    -42958.41969313
  -exchange      EXHF   =         0.00000000
  -V(xc)+E(xc)   XCENC  =      3286.50165943
  PAW double counting   =    112281.41155734  -115975.45644205
  entropy T*S    EENTRO =         0.00000000
  eigenvalues    EBANDS =    -10877.46890781
  atomic energy  EATOM  =    114020.06510763
  Solvation  Ediel_sol  =         0.00000000
  ---------------------------------------------------
  free energy    TOTEN  =      -328.11588464 eV

  energy without entropy =     -328.11588464  energy(sigma->0) =     -328.11588464


--------------------------------------------------------------------------------------------------------




--------------------------------------- Iteration      1(  12)  ---------------------------------------


    POTLOK:  cpu time    1.9204: real time    1.9273
    SETDIJ:  cpu time    0.0335: real time    0.0337
     EDDAV:  cpu time  765.9998: real time  768.8381
 BZINTS: Fermi energy:  4.988794;688.000000 electrons
         Band energy:***********;  BLOECHL correction:  0.000000
       DOS:  cpu time    0.0045: real time    0.0046
    CHARGE:  cpu time    5.4356: real time    5.4583
    MIXING:  cpu time    0.0108: real time    0.0108
    --------------------------------------------
      LOOP:  cpu time  773.4046: real time  776.2728

 eigenvalue-minimisations  : 17408
 total energy-change (2. order) : 0.6800110E-06  (-0.9345944E-07)
 number of electron     688.0000452 magnetization       0.0000000
 augmentation part      282.2198597 magnetization       0.0000000

 Broyden mixing:
  rms(total) = 0.32785E-03    rms(broyden)= 0.32784E-03
  rms(prec ) = 0.33821E-03
  weight for this iteration     100.00

 eigenvalues of (default mixing * dielectric matrix)
  average eigenvalue GAMMA=   0.8882
  1.6901  1.4470  0.7753  0.7753  0.6478  0.5442  0.3375

 Free energy of the ion-electron system (eV)
  ---------------------------------------------------
  alpha Z        PSCENC =      2355.30243579
  Ewald energy   TEWEN  =    -62460.05160184
  -Hartree energ DENC   =    -42958.42797456
  -exchange      EXHF   =         0.00000000
  -V(xc)+E(xc)   XCENC  =      3286.50063037
  PAW double counting   =    112276.70206421  -115970.71761435
  entropy T*S    EENTRO =         0.00000000
  eigenvalues    EBANDS =    -10877.48893121
  atomic energy  EATOM  =    114020.06510763
  Solvation  Ediel_sol  =         0.00000000
  ---------------------------------------------------
  free energy    TOTEN  =      -328.11588396 eV

  energy without entropy =     -328.11588396  energy(sigma->0) =     -328.11588396


--------------------------------------------------------------------------------------------------------




--------------------------------------- Iteration      1(  13)  ---------------------------------------


    POTLOK:  cpu time    0.4790: real time    0.4819
    SETDIJ:  cpu time    0.0320: real time    0.0321
     EDDAV:  cpu time  688.9031: real time  691.4762
 BZINTS: Fermi energy:  4.988565;688.000000 electrons
         Band energy:***********;  BLOECHL correction:  0.000000
       DOS:  cpu time    0.0048: real time    0.0049
    CHARGE:  cpu time   15.9815: real time   16.0371
    MIXING:  cpu time    0.0165: real time    0.0165
    --------------------------------------------
      LOOP:  cpu time  705.4168: real time  708.0487

 eigenvalue-minimisations  : 15360
 total energy-change (2. order) : 0.6335904E-07  (-0.8261410E-08)
 number of electron     688.0000452 magnetization       0.0000000
 augmentation part      282.2200003 magnetization       0.0000000

 Broyden mixing:
  rms(total) = 0.13321E-03    rms(broyden)= 0.13320E-03
  rms(prec ) = 0.13913E-03
  weight for this iteration     100.00

 eigenvalues of (default mixing * dielectric matrix)
  average eigenvalue GAMMA=   1.0275
  2.5081  1.3894  1.3894  0.3370  0.7497  0.7497  0.5484  0.5484

 Free energy of the ion-electron system (eV)
  ---------------------------------------------------
  alpha Z        PSCENC =      2355.30243579
  Ewald energy   TEWEN  =    -62460.05160184
  -Hartree energ DENC   =    -42958.42824152
  -exchange      EXHF   =         0.00000000
  -V(xc)+E(xc)   XCENC  =      3286.50048001
  PAW double counting   =    112276.00257022  -115970.01468672
  entropy T*S    EENTRO =         0.00000000
  eigenvalues    EBANDS =    -10877.49194746
  atomic energy  EATOM  =    114020.06510763
  Solvation  Ediel_sol  =         0.00000000
  ---------------------------------------------------
  free energy    TOTEN  =      -328.11588390 eV

  energy without entropy =     -328.11588390  energy(sigma->0) =     -328.11588390


--------------------------------------------------------------------------------------------------------




--------------------------------------- Iteration      1(  14)  ---------------------------------------


    POTLOK:  cpu time    2.8935: real time    2.9030
    SETDIJ:  cpu time    0.0322: real time    0.0323
     EDDAV:  cpu time  562.8066: real time  564.9162
 BZINTS: Fermi energy:  4.988293;688.000000 electrons
         Band energy:***********;  BLOECHL correction:  0.000000
       DOS:  cpu time    0.0047: real time    0.0048
    CHARGE:  cpu time    5.4378: real time    5.4596
    MIXING:  cpu time    0.0104: real time    0.0105
    --------------------------------------------
      LOOP:  cpu time  571.1853: real time  573.3264

 eigenvalue-minimisations  : 12288
 total energy-change (2. order) : 0.1009903E-07  (-0.4252696E-08)
 number of electron     688.0000452 magnetization       0.0000000
 augmentation part      282.2200471 magnetization       0.0000000

 Broyden mixing:
  rms(total) = 0.97797E-04    rms(broyden)= 0.97795E-04
  rms(prec ) = 0.99400E-04
  weight for this iteration     100.00

 eigenvalues of (default mixing * dielectric matrix)
  average eigenvalue GAMMA=   1.1324
  3.2930  1.5483  1.5483  0.8713  0.8713  0.3370  0.5938  0.5938  0.5348

 Free energy of the ion-electron system (eV)
  ---------------------------------------------------
  alpha Z        PSCENC =      2355.30243579
  Ewald energy   TEWEN  =    -62460.05160184
  -Hartree energ DENC   =    -42958.42472023
  -exchange      EXHF   =         0.00000000
  -V(xc)+E(xc)   XCENC  =      3286.50043931
  PAW double counting   =    112275.93973522  -115969.95283576
  entropy T*S    EENTRO =         0.00000000
  eigenvalues    EBANDS =    -10877.49444400
  atomic energy  EATOM  =    114020.06510763
  Solvation  Ediel_sol  =         0.00000000
  ---------------------------------------------------
  free energy    TOTEN  =      -328.11588389 eV

  energy without entropy =     -328.11588389  energy(sigma->0) =     -328.11588389


--------------------------------------------------------------------------------------------------------




--------------------------------------- Iteration      1(  15)  ---------------------------------------


    POTLOK:  cpu time    0.4718: real time    0.4736
    SETDIJ:  cpu time    0.0328: real time    0.0330
     EDDAV:  cpu time  501.1328: real time  503.0008
 BZINTS: Fermi energy:  4.988201;688.000000 electrons
         Band energy:***********;  BLOECHL correction:  0.000000
       DOS:  cpu time    0.0046: real time    0.0047
    CHARGE:  cpu time    5.4231: real time    5.4449
    MIXING:  cpu time    0.0101: real time    0.0101
    --------------------------------------------
      LOOP:  cpu time  507.0752: real time  508.9671

 eigenvalue-minimisations  : 10496
 total energy-change (2. order) : 0.3272726E-07  (-0.1275694E-08)
 number of electron     688.0000452 magnetization       0.0000000
 augmentation part      282.2200441 magnetization       0.0000000

 Broyden mixing:
  rms(total) = 0.21552E-03    rms(broyden)= 0.21552E-03
  rms(prec ) = 0.21626E-03
  weight for this iteration     100.00

 eigenvalues of (default mixing * dielectric matrix)
  average eigenvalue GAMMA=   1.1418
  3.3378  1.6923  1.6923  0.9552  0.9552  0.3370  0.6663  0.6663  0.5578  0.5578

 Free energy of the ion-electron system (eV)
  ---------------------------------------------------
  alpha Z        PSCENC =      2355.30243579
  Ewald energy   TEWEN  =    -62460.05160184
  -Hartree energ DENC   =    -42958.42587441
  -exchange      EXHF   =         0.00000000
  -V(xc)+E(xc)   XCENC  =      3286.50037143
  PAW double counting   =    112275.70689825  -115969.71892156
  entropy T*S    EENTRO =         0.00000000
  eigenvalues    EBANDS =    -10877.49429914
  atomic energy  EATOM  =    114020.06510763
  Solvation  Ediel_sol  =         0.00000000
  ---------------------------------------------------
  free energy    TOTEN  =      -328.11588385 eV

  energy without entropy =     -328.11588385  energy(sigma->0) =     -328.11588385


--------------------------------------------------------------------------------------------------------




--------------------------------------- Iteration      1(  16)  ---------------------------------------


    POTLOK:  cpu time    0.4780: real time    0.4799
    SETDIJ:  cpu time    0.0325: real time    0.0327
     EDDAV:  cpu time  564.0092: real time  566.1379
 BZINTS: Fermi energy:  4.988169;688.000000 electrons
         Band energy:***********;  BLOECHL correction:  0.000000
       DOS:  cpu time    0.0048: real time    0.0048
    CHARGE:  cpu time   11.9720: real time   12.0144
    MIXING:  cpu time    0.0338: real time    0.0444
    --------------------------------------------
      LOOP:  cpu time  576.5304: real time  578.7140

 eigenvalue-minimisations  : 12032
 total energy-change (2. order) :-0.1830631E-07  (-0.1650338E-09)
 number of electron     688.0000452 magnetization       0.0000000
 augmentation part      282.2200219 magnetization       0.0000000

 Broyden mixing:
  rms(total) = 0.15543E-03    rms(broyden)= 0.15543E-03
  rms(prec ) = 0.15580E-03
  weight for this iteration     100.00

 eigenvalues of (default mixing * dielectric matrix)
  average eigenvalue GAMMA=   1.1967
  3.5295  1.9626  1.9626  1.1036  1.1036  0.3370  0.7275  0.7275  0.5830  0.5830
  0.5436

 Free energy of the ion-electron system (eV)
  ---------------------------------------------------
  alpha Z        PSCENC =      2355.30243579
  Ewald energy   TEWEN  =    -62460.05160184
  -Hartree energ DENC   =    -42958.42646791
  -exchange      EXHF   =         0.00000000
  -V(xc)+E(xc)   XCENC  =      3286.50041458
  PAW double counting   =    112275.79388204  -115969.80647183
  entropy T*S    EENTRO =         0.00000000
  eigenvalues    EBANDS =    -10877.49318232
  atomic energy  EATOM  =    114020.06510763
  Solvation  Ediel_sol  =         0.00000000
  ---------------------------------------------------
  free energy    TOTEN  =      -328.11588387 eV

  energy without entropy =     -328.11588387  energy(sigma->0) =     -328.11588387


--------------------------------------------------------------------------------------------------------




--------------------------------------- Iteration      1(  17)  ---------------------------------------


    POTLOK:  cpu time    3.9287: real time    3.9415
    SETDIJ:  cpu time    0.0445: real time    0.0446
     EDDAV:  cpu time  492.8313: real time  494.6713
 BZINTS: Fermi energy:  4.988155;688.000000 electrons
         Band energy:***********;  BLOECHL correction:  0.000000
       DOS:  cpu time    0.0055: real time    0.0055
    CHARGE:  cpu time    5.4175: real time    5.4392
    MIXING:  cpu time    0.0131: real time    0.0132
    --------------------------------------------
      LOOP:  cpu time  502.2406: real time  504.1153

 eigenvalue-minimisations  : 10240
 total energy-change (2. order) :-0.2178422E-07  (-0.7307386E-10)
 number of electron     688.0000452 magnetization      -0.0000000
 augmentation part      282.2199938 magnetization      -0.0000000

 Broyden mixing:
  rms(total) = 0.62715E-04    rms(broyden)= 0.62715E-04
  rms(prec ) = 0.62838E-04
  weight for this iteration     100.00

 eigenvalues of (default mixing * dielectric matrix)
  average eigenvalue GAMMA=   1.2093
  3.6908  2.0095  2.0095  1.2340  1.2340  0.8173  0.8173  0.3370  0.6178  0.6178
  0.5633  0.5633

 Free energy of the ion-electron system (eV)
  ---------------------------------------------------
  alpha Z        PSCENC =      2355.30243579
  Ewald energy   TEWEN  =    -62460.05160184
  -Hartree energ DENC   =    -42958.42591812
  -exchange      EXHF   =         0.00000000
  -V(xc)+E(xc)   XCENC  =      3286.50045698
  PAW double counting   =    112275.93461564  -115969.94815327
  entropy T*S    EENTRO =         0.00000000
  eigenvalues    EBANDS =    -10877.49282671
  atomic energy  EATOM  =    114020.06510763
  Solvation  Ediel_sol  =         0.00000000
  ---------------------------------------------------
  free energy    TOTEN  =      -328.11588389 eV

  energy without entropy =     -328.11588389  energy(sigma->0) =     -328.11588389


--------------------------------------------------------------------------------------------------------




--------------------------------------- Iteration      1(  18)  ---------------------------------------


    POTLOK:  cpu time    0.4863: real time    0.4881
    SETDIJ:  cpu time    0.0324: real time    0.0326
     EDDAV:  cpu time  533.9181: real time  535.9178
 BZINTS: Fermi energy:  4.988140;688.000000 electrons
         Band energy:***********;  BLOECHL correction:  0.000000
       DOS:  cpu time    0.0047: real time    0.0051
    --------------------------------------------
      LOOP:  cpu time  534.4416: real time  536.4435

 eigenvalue-minimisations  : 11264
 total energy-change (2. order) :-0.7712515E-08  ( 0.9032301E-10)
 number of electron     688.0000452 magnetization       0.0000000
 augmentation part      282.2199938 magnetization       0.0000000

 Free energy of the ion-electron system (eV)
  ---------------------------------------------------
  alpha Z        PSCENC =      2355.30243579
  Ewald energy   TEWEN  =    -62460.05160184
  -Hartree energ DENC   =    -42958.42539946
  -exchange      EXHF   =         0.00000000
  -V(xc)+E(xc)   XCENC  =      3286.50046102
  PAW double counting   =    112275.99086196  -115970.00471972
  entropy T*S    EENTRO =         0.00000000
  eigenvalues    EBANDS =    -10877.49302928
  atomic energy  EATOM  =    114020.06510763
  Solvation  Ediel_sol  =         0.00000000
  ---------------------------------------------------
  free energy    TOTEN  =      -328.11588390 eV

  energy without entropy =     -328.11588390  energy(sigma->0) =     -328.11588390


--------------------------------------------------------------------------------------------------------




 average (electrostatic) potential at core
  the test charge radii are     0.9698  0.8297  0.9500
  (the norm of the test charge is              1.0000)
       1 -86.6254       2 -86.6254       3 -86.6254       4 -86.6254       5 -86.6254
       6 -86.6254       7 -86.6254       8 -86.6254       9 -86.6254      10 -86.6254
      11 -86.6254      12 -86.6254      13 -86.6254      14 -86.6254      15 -86.6254
      16 -86.6254      17 -86.6254      18 -86.6254      19 -86.6254      20 -86.6254
      21 -86.6254      22 -86.6254      23 -86.6254      24 -86.6254      25 -86.6254
      26 -86.6254      27 -86.6254      28 -86.6254      29 -86.6254      30 -86.6254
      31 -86.6254      32 -86.6254      33 -80.7039      34 -80.7039      35 -80.7039
      36 -80.7039      37 -80.7039      38 -80.7039      39 -80.7039      40 -80.7039
      41 -80.7039      42 -80.7039      43 -80.7039      44 -80.7039      45 -80.7039
      46 -80.7039      47 -80.7039      48 -80.7039      49 -80.2318      50 -80.2318
      51 -80.2318      52 -80.2318      53 -80.2318      54 -80.2318      55 -80.2318
      56 -80.2318      57 -80.2318      58 -80.2318      59 -80.2318      60 -80.2318
      61 -80.2318      62 -80.2318      63 -80.2318      64 -80.2318
 
 
 
 E-fermi :   4.9881     XC(G=0): -10.4645     alpha+bet :-10.5426


 spin component 1

 k-point     1 :       0.0000    0.0000    0.0000
  band No.  band energies     occupation 
      1     -64.3145      1.00000
      2     -64.3145      1.00000
      3     -64.3145      1.00000
      4     -64.3145      1.00000
      5     -64.3145      1.00000
      6     -64.3145      1.00000
      7     -64.3145      1.00000
[...]
   -.422E+02 0.707E-01 0.271E+01   0.430E+02 -.679E-01 -.273E+01   -.863E+00 -.265E-02 0.258E-01   -.712E-05 -.443E-07 0.502E-07
   -.422E+02 0.707E-01 0.271E+01   0.430E+02 -.679E-01 -.273E+01   -.863E+00 -.265E-02 0.258E-01   -.712E-05 -.443E-07 0.502E-07
   -.422E+02 0.707E-01 0.271E+01   0.430E+02 -.679E-01 -.273E+01   -.863E+00 -.265E-02 0.258E-01   -.712E-05 -.443E-07 0.502E-07
   -.422E+02 0.707E-01 0.271E+01   0.430E+02 -.679E-01 -.273E+01   -.863E+00 -.265E-02 0.258E-01   -.712E-05 -.443E-07 0.502E-07
   0.422E+02 -.707E-01 0.271E+01   -.430E+02 0.679E-01 -.273E+01   0.863E+00 0.265E-02 0.258E-01   0.712E-05 0.443E-07 0.502E-07
   0.422E+02 -.707E-01 0.271E+01   -.430E+02 0.679E-01 -.273E+01   0.863E+00 0.265E-02 0.258E-01   0.712E-05 0.443E-07 0.502E-07
   0.422E+02 -.707E-01 0.271E+01   -.430E+02 0.679E-01 -.273E+01   0.863E+00 0.265E-02 0.258E-01   0.712E-05 0.443E-07 0.502E-07
   0.422E+02 -.707E-01 0.271E+01   -.430E+02 0.679E-01 -.273E+01   0.863E+00 0.265E-02 0.258E-01   0.712E-05 0.443E-07 0.502E-07
   0.707E-01 -.422E+02 0.271E+01   -.679E-01 0.430E+02 -.273E+01   -.265E-02 -.863E+00 0.258E-01   -.443E-07 -.712E-05 0.502E-07
   0.707E-01 -.422E+02 0.271E+01   -.679E-01 0.430E+02 -.273E+01   -.265E-02 -.863E+00 0.258E-01   -.443E-07 -.712E-05 0.502E-07
   0.707E-01 -.422E+02 0.271E+01   -.679E-01 0.430E+02 -.273E+01   -.265E-02 -.863E+00 0.258E-01   -.443E-07 -.712E-05 0.502E-07
   0.707E-01 -.422E+02 0.271E+01   -.679E-01 0.430E+02 -.273E+01   -.265E-02 -.863E+00 0.258E-01   -.443E-07 -.712E-05 0.502E-07
   -.707E-01 0.422E+02 0.271E+01   0.679E-01 -.430E+02 -.273E+01   0.265E-02 0.863E+00 0.258E-01   0.443E-07 0.712E-05 0.502E-07
   -.707E-01 0.422E+02 0.271E+01   0.679E-01 -.430E+02 -.273E+01   0.265E-02 0.863E+00 0.258E-01   0.443E-07 0.712E-05 0.502E-07
   -.707E-01 0.422E+02 0.271E+01   0.679E-01 -.430E+02 -.273E+01   0.265E-02 0.863E+00 0.258E-01   0.443E-07 0.712E-05 0.502E-07
   -.707E-01 0.422E+02 0.271E+01   0.679E-01 -.430E+02 -.273E+01   0.265E-02 0.863E+00 0.258E-01   0.443E-07 0.712E-05 0.502E-07
   -.671E-07 0.256E-07 -.318E+01   0.216E-13 -.171E-12 0.305E+01   -.415E-25 0.258E-25 0.130E+00   -.594E-12 -.252E-13 0.791E-08
   -.671E-07 0.256E-07 -.318E+01   0.243E-13 -.171E-12 0.305E+01   -.180E-25 0.775E-25 0.130E+00   -.164E-13 -.276E-13 0.790E-08
   -.671E-07 0.256E-07 -.318E+01   -.677E-14 -.135E-12 0.305E+01   0.566E-25 0.388E-25 0.130E+00   -.892E-12 0.174E-12 0.791E-08
   -.671E-07 0.256E-07 -.318E+01   0.243E-13 -.142E-12 0.305E+01   -.739E-25 0.323E-25 0.130E+00   0.245E-12 0.516E-13 0.790E-08
   0.256E-07 -.671E-07 -.318E+01   -.256E-12 0.000E+00 0.305E+01   -.827E-25 0.388E-25 0.130E+00   -.128E-12 0.158E-12 0.790E-08
   0.256E-07 -.671E-07 -.318E+01   -.256E-12 0.000E+00 0.305E+01   -.455E-25 -.291E-25 0.130E+00   -.568E-12 0.270E-12 0.790E-08
   0.256E-07 -.671E-07 -.318E+01   -.256E-12 -.284E-13 0.305E+01   -.217E-25 -.549E-25 0.130E+00   -.919E-13 -.771E-13 0.790E-08
   0.256E-07 -.671E-07 -.318E+01   -.256E-12 -.284E-13 0.305E+01   0.147E-24 -.905E-25 0.130E+00   -.606E-12 -.588E-13 0.790E-08
   -.671E-07 0.256E-07 -.318E+01   0.284E-13 -.138E-12 0.305E+01   -.119E-24 -.388E-25 0.130E+00   -.352E-12 -.367E-12 0.790E-08
   -.671E-07 0.256E-07 -.318E+01   0.568E-13 -.145E-12 0.305E+01   0.633E-25 0.905E-25 0.130E+00   -.354E-12 -.163E-13 0.789E-08
   -.671E-07 0.256E-07 -.318E+01   0.000E+00 -.547E-13 0.305E+01   -.316E-25 -.153E-25 0.130E+00   -.290E-12 0.478E-12 0.790E-08
   -.671E-07 0.256E-07 -.318E+01   0.284E-13 -.112E-12 0.305E+01   -.548E-25 0.226E-25 0.130E+00   -.307E-12 0.882E-13 0.789E-08
   0.256E-07 -.671E-07 -.318E+01   -.319E-12 -.332E-13 0.305E+01   0.459E-25 -.646E-25 0.130E+00   -.109E-11 0.124E-12 0.790E-08
   0.256E-07 -.671E-07 -.318E+01   -.231E-12 0.237E-13 0.305E+01   0.241E-25 0.258E-25 0.130E+00   0.477E-12 0.154E-12 0.790E-08
   0.256E-07 -.671E-07 -.318E+01   -.227E-12 0.787E-15 0.305E+01   -.148E-25 -.129E-25 0.130E+00   -.106E-11 -.250E-13 0.790E-08
   0.256E-07 -.671E-07 -.318E+01   -.224E-12 0.762E-15 0.305E+01   -.192E-26 -.646E-26 0.130E+00   0.473E-12 -.159E-13 0.790E-08
   -.654E-09 -.154E-07 -.257E+01   0.109E-12 -.181E-12 0.242E+01   -.270E-25 0.000E+00 0.155E+00   0.860E-12 -.802E-13 -.524E-06
   -.650E-09 -.154E-07 -.257E+01   0.126E-12 -.185E-12 0.242E+01   0.545E-26 0.258E-25 0.155E+00   -.922E-12 -.107E-12 -.524E-06
   -.653E-09 -.154E-07 -.257E+01   0.950E-13 -.153E-12 0.242E+01   0.344E-25 0.388E-25 0.155E+00   0.559E-12 0.223E-12 -.524E-06
   -.650E-09 -.154E-07 -.257E+01   0.126E-12 -.156E-12 0.242E+01   -.889E-26 -.103E-24 0.155E+00   -.681E-12 0.221E-12 -.524E-06
   -.154E-07 -.653E-09 -.257E+01   -.888E-13 0.107E-13 0.242E+01   0.513E-25 0.646E-26 0.155E+00   -.949E-12 -.279E-12 -.524E-06
   -.154E-07 -.653E-09 -.257E+01   -.888E-13 -.533E-13 0.242E+01   0.809E-25 0.000E+00 0.155E+00   0.810E-12 -.249E-12 -.524E-06
   -.154E-07 -.659E-09 -.257E+01   -.924E-13 -.107E-13 0.242E+01   0.116E-25 0.646E-26 0.155E+00   -.935E-12 0.410E-12 -.524E-06
   -.154E-07 -.641E-09 -.257E+01   -.959E-13 0.462E-13 0.242E+01   -.855E-25 0.226E-25 0.155E+00   0.842E-12 0.400E-12 -.524E-06
   -.652E-09 -.154E-07 -.257E+01   0.995E-13 -.235E-12 0.242E+01   -.909E-26 0.129E-24 0.155E+00   -.720E-12 0.251E-12 -.524E-06
   -.649E-09 -.154E-07 -.257E+01   0.156E-12 -.175E-12 0.242E+01   -.355E-25 -.291E-25 0.155E+00   0.660E-12 0.460E-12 -.524E-06
   -.652E-09 -.154E-07 -.257E+01   0.114E-12 -.181E-12 0.242E+01   0.258E-25 -.258E-25 0.155E+00   -.766E-12 -.985E-13 -.524E-06
   -.649E-09 -.154E-07 -.257E+01   0.114E-12 -.181E-12 0.242E+01   -.576E-26 0.000E+00 0.155E+00   0.725E-12 -.321E-12 -.524E-06
   -.154E-07 -.651E-09 -.257E+01   -.666E-13 -.285E-13 0.242E+01   0.117E-24 0.000E+00 0.155E+00   0.107E-11 0.810E-13 -.524E-06
   -.154E-07 -.643E-09 -.257E+01   -.425E-13 -.217E-13 0.242E+01   0.338E-25 0.517E-25 0.155E+00   -.107E-11 0.568E-13 -.524E-06
   -.154E-07 -.650E-09 -.257E+01   -.712E-13 0.820E-14 0.242E+01   -.206E-25 0.323E-25 0.155E+00   0.105E-11 0.178E-13 -.524E-06
   -.154E-07 -.644E-09 -.257E+01   -.756E-13 0.150E-13 0.242E+01   0.475E-26 0.258E-25 0.155E+00   -.108E-11 -.197E-13 -.524E-06
 -----------------------------------------------------------------------------------------------
   0.130E-06 0.130E-06 -.537E+01   -.351E-12 -.184E-12 0.430E-12   -.664E-15 0.222E-15 0.537E+01   -.548E-11 0.147E-11 -.665E-05
 
 
 POSITION                                       TOTAL-FORCE (eV/Angst)
 -----------------------------------------------------------------------------------
      1.33208      1.32056      1.29662         0.000421     -0.000222     -0.000767
      6.58905      1.34347      1.29662         0.000421     -0.000222     -0.000767
      1.35500      6.57753      1.29662         0.000421     -0.000222     -0.000767
      6.61196      6.60044      1.29662         0.000421     -0.000222     -0.000767
      3.94780      3.95932      1.29662        -0.000421      0.000222     -0.000767
      9.20476      3.98223      1.29662        -0.000421      0.000222     -0.000767
      3.97071      9.21629      1.29662        -0.000421      0.000222     -0.000767
      9.22768      9.23920      1.29662        -0.000421      0.000222     -0.000767
      1.33084      3.93634      9.10653         0.000222     -0.000421     -0.000767
      6.58780      3.95925      9.10653         0.000222     -0.000421     -0.000767
      1.35375      9.19331      9.10653         0.000222     -0.000421     -0.000767
      6.61072      9.21622      9.10653         0.000222     -0.000421     -0.000767
      3.94904      1.34354      9.10653        -0.000222      0.000421     -0.000767
      9.20601      1.36645      9.10653        -0.000222      0.000421     -0.000767
      3.97196      6.60051      9.10653        -0.000222      0.000421     -0.000767
      9.22892      6.62342      9.10653        -0.000222      0.000421     -0.000767
      1.30786      1.31938      6.50323        -0.000421      0.000222     -0.000767
      6.56482      1.34229      6.50323        -0.000421      0.000222     -0.000767
      1.33077      6.57635      6.50323        -0.000421      0.000222     -0.000767
      6.58774      6.59926      6.50323        -0.000421      0.000222     -0.000767
      3.97202      3.96050      6.50323         0.000421     -0.000222     -0.000767
      9.22899      3.98341      6.50323         0.000421     -0.000222     -0.000767
      3.99494      9.21747      6.50323         0.000421     -0.000222     -0.000767
      9.25190      9.24038      6.50323         0.000421     -0.000222     -0.000767
      3.94786      1.31931      3.89992         0.000222     -0.000421     -0.000767
      9.20483      1.34223      3.89992         0.000222     -0.000421     -0.000767
      3.97078      6.57628      3.89992         0.000222     -0.000421     -0.000767
      9.22774      6.59919      3.89992         0.000222     -0.000421     -0.000767
      1.33202      3.96057      3.89992        -0.000222      0.000421     -0.000767
      6.58898      3.98348      3.89992        -0.000222      0.000421     -0.000767
      1.35493      9.21753      3.89992        -0.000222      0.000421     -0.000767
      6.61190      9.24045      3.89992        -0.000222      0.000421     -0.000767
      0.00000      0.00000      5.21097         0.000000      0.000000      0.000305
      5.25697      0.02291      5.21097         0.000000      0.000000      0.000305
      0.02291      5.25697      5.21097         0.000000      0.000000      0.000305
      5.27988      5.27988      5.21097         0.000000      0.000000      0.000305
      2.62848      0.01146      2.60767         0.000000      0.000000      0.000305
      7.88545      0.03437      2.60767         0.000000      0.000000      0.000305
      2.65140      5.26842      2.60767         0.000000      0.000000      0.000305
      7.90836      5.29134      2.60767         0.000000      0.000000      0.000305
      2.63994      2.63994      0.00436         0.000000      0.000000      0.000305
      7.89691      2.66285      0.00436         0.000000      0.000000      0.000305
      2.66285      7.89691      0.00436         0.000000      0.000000      0.000305
      7.91982      7.91982      0.00436         0.000000      0.000000      0.000305
      0.01146      2.62848      7.81427         0.000000      0.000000      0.000305
      5.26842      2.65140      7.81427         0.000000      0.000000      0.000305
      0.03437      7.88545      7.81427         0.000000      0.000000      0.000305
      5.29134      7.90836      7.81427         0.000000      0.000000      0.000305
      0.00000      0.00000      0.00571         0.000000      0.000000      0.001229
      5.25697      0.02291      0.00571         0.000000      0.000000      0.001229
      0.02291      5.25697      0.00571         0.000000      0.000000      0.001229
      5.27988      5.27988      0.00571         0.000000      0.000000      0.001229
      2.62848      0.01146      7.81562         0.000000      0.000000      0.001229
      7.88545      0.03437      7.81562         0.000000      0.000000      0.001229
      2.65140      5.26842      7.81562         0.000000      0.000000      0.001229
      7.90836      5.29134      7.81562         0.000000      0.000000      0.001229
      2.63994      2.63994      5.21231         0.000000      0.000000      0.001229
      7.89691      2.66285      5.21231         0.000000      0.000000      0.001229
      2.66285      7.89691      5.21231         0.000000      0.000000      0.001229
      7.91982      7.91982      5.21231         0.000000      0.000000      0.001229
      0.01146      2.62848      2.60901         0.000000      0.000000      0.001229
      5.26842      2.65140      2.60901         0.000000      0.000000      0.001229
      0.03437      7.88545      2.60901         0.000000      0.000000      0.001229
      5.29134      7.90836      2.60901         0.000000      0.000000      0.001229
 -----------------------------------------------------------------------------------
    total drift:                                0.000000      0.000000     -0.004682


--------------------------------------------------------------------------------------------------------



  FREE ENERGIE OF THE ION-ELECTRON SYSTEM (eV)
  ---------------------------------------------------
  free  energy   TOTEN  =      -328.11588390 eV

  energy  without entropy=     -328.11588390  energy(sigma->0) =     -328.11588390
 


--------------------------------------------------------------------------------------------------------


    POTLOK:  cpu time    0.9878: real time    0.9913


--------------------------------------------------------------------------------------------------------


 writing wavefunctions
     LOOP+:  cpu time13030.4430: real time13079.9411
    4ORBIT:  cpu time    0.0000: real time    0.0000
 


 total charge     
 
# of ion       s       p       d       tot
------------------------------------------
    1        1.313   2.410   0.000   3.724
    2        1.313   2.410   0.000   3.724
    3        1.313   2.410   0.000   3.724
    4        1.313   2.410   0.000   3.724
    5        1.313   2.410   0.000   3.724
    6        1.313   2.410   0.000   3.724
    7        1.313   2.410   0.000   3.724
    8        1.313   2.410   0.000   3.724
    9        1.313   2.410   0.000   3.724
   10        1.313   2.410   0.000   3.724
   11        1.313   2.410   0.000   3.724
   12        1.313   2.410   0.000   3.724
   13        1.313   2.410   0.000   3.724
   14        1.313   2.410   0.000   3.724
   15        1.313   2.410   0.000   3.724
   16        1.313   2.410   0.000   3.724
   17        1.313   2.410   0.000   3.724
   18        1.313   2.410   0.000   3.724
   19        1.313   2.410   0.000   3.724
   20        1.313   2.410   0.000   3.724
   21        1.313   2.410   0.000   3.724
   22        1.313   2.410   0.000   3.724
   23        1.313   2.410   0.000   3.724
   24        1.313   2.410   0.000   3.724
   25        1.313   2.410   0.000   3.724
   26        1.313   2.410   0.000   3.724
   27        1.313   2.410   0.000   3.724
   28        1.313   2.410   0.000   3.724
   29        1.313   2.410   0.000   3.724
   30        1.313   2.410   0.000   3.724
   31        1.313   2.410   0.000   3.724
   32        1.313   2.410   0.000   3.724
   33        0.260   6.202   8.917  15.378
   34        0.260   6.202   8.917  15.378
   35        0.260   6.202   8.917  15.378
   36        0.260   6.202   8.917  15.378
   37        0.260   6.202   8.917  15.378
   38        0.260   6.202   8.917  15.378
   39        0.260   6.202   8.917  15.378
   40        0.260   6.202   8.917  15.378
   41        0.260   6.202   8.917  15.378
   42        0.260   6.202   8.917  15.378
   43        0.260   6.202   8.917  15.378
   44        0.260   6.202   8.917  15.378
   45        0.260   6.202   8.917  15.378
   46        0.260   6.202   8.917  15.378
   47        0.260   6.202   8.917  15.378
   48        0.260   6.202   8.917  15.378
   49        0.350   6.351   5.820  12.521
   50        0.350   6.351   5.820  12.521
   51        0.350   6.351   5.820  12.521
   52        0.350   6.351   5.820  12.521
   53        0.350   6.351   5.820  12.521
   54        0.350   6.351   5.820  12.521
   55        0.350   6.351   5.820  12.521
   56        0.350   6.351   5.820  12.521
   57        0.350   6.351   5.820  12.521
   58        0.350   6.351   5.820  12.521
   59        0.350   6.351   5.820  12.521
   60        0.350   6.351   5.820  12.521
   61        0.350   6.351   5.820  12.521
   62        0.350   6.351   5.820  12.521
   63        0.350   6.351   5.820  12.521
   64        0.350   6.351   5.820  12.521
--------------------------------------------------
tot         51.790 277.979 235.779 565.548
 


 magnetization (x)
 
# of ion       s       p       d       tot
------------------------------------------
    1       -0.000  -0.002   0.000  -0.002
    2       -0.000  -0.002   0.000  -0.002
    3       -0.000  -0.002   0.000  -0.002
    4       -0.000  -0.002   0.000  -0.002
    5       -0.000  -0.002   0.000  -0.002
    6       -0.000  -0.002   0.000  -0.002
    7       -0.000  -0.002   0.000  -0.002
    8       -0.000  -0.002   0.000  -0.002
    9        0.000   0.002   0.000   0.002
   10        0.000   0.002   0.000   0.002
   11        0.000   0.002   0.000   0.002
   12        0.000   0.002   0.000   0.002
   13        0.000   0.002   0.000   0.002
   14        0.000   0.002   0.000   0.002
   15        0.000   0.002   0.000   0.002
   16        0.000   0.002   0.000   0.002
   17       -0.000  -0.002   0.000  -0.002
   18       -0.000  -0.002   0.000  -0.002
   19       -0.000  -0.002   0.000  -0.002
   20       -0.000  -0.002   0.000  -0.002
   21       -0.000  -0.002   0.000  -0.002
   22       -0.000  -0.002   0.000  -0.002
   23       -0.000  -0.002   0.000  -0.002
   24       -0.000  -0.002   0.000  -0.002
   25        0.000   0.002   0.000   0.002
   26        0.000   0.002   0.000   0.002
   27        0.000   0.002   0.000   0.002
   28        0.000   0.002   0.000   0.002
   29        0.000   0.002   0.000   0.002
   30        0.000   0.002   0.000   0.002
   31        0.000   0.002   0.000   0.002
   32        0.000   0.002   0.000   0.002
   33        0.000   0.000  -0.001   0.000
   34        0.000   0.000  -0.001   0.000
   35        0.000   0.000  -0.001   0.000
   36        0.000   0.000  -0.001   0.000
   37       -0.000  -0.000   0.001  -0.000
   38       -0.000  -0.000   0.001  -0.000
   39       -0.000  -0.000   0.001  -0.000
   40       -0.000  -0.000   0.001  -0.000
   41        0.000   0.000  -0.001   0.000
   42        0.000   0.000  -0.001   0.000
   43        0.000   0.000  -0.001   0.000
   44        0.000   0.000  -0.001   0.000
   45       -0.000  -0.000   0.001  -0.000
   46       -0.000  -0.000   0.001  -0.000
   47       -0.000  -0.000   0.001  -0.000
   48       -0.000  -0.000   0.001  -0.000
   49        0.020   0.054   3.671   3.744
   50        0.020   0.054   3.671   3.744
   51        0.020   0.054   3.671   3.744
   52        0.020   0.054   3.671   3.744
   53       -0.020  -0.054  -3.671  -3.744
   54       -0.020  -0.054  -3.671  -3.744
   55       -0.020  -0.054  -3.671  -3.744
   56       -0.020  -0.054  -3.671  -3.744
   57        0.020   0.054   3.671   3.744
   58        0.020   0.054   3.671   3.744
   59        0.020   0.054   3.671   3.744
   60        0.020   0.054   3.671   3.744
   61       -0.020  -0.054  -3.671  -3.744
   62       -0.020  -0.054  -3.671  -3.744
   63       -0.020  -0.054  -3.671  -3.744
   64       -0.020  -0.054  -3.671  -3.744
--------------------------------------------------
tot         -0.000   0.000  -0.000  -0.000
 
 BZINTS: Fermi energy:  4.988140;688.000000 electrons
         Band energy:***********;  BLOECHL correction:  0.000000

 total amount of memory used by VASP MPI-rank0   301249. kBytes
=======================================================================

   base      :      30000. kBytes
   nonl-proj :     175882. kBytes
   fftplans  :       4588. kBytes
   grid      :      69719. kBytes
   one-center:       1990. kBytes
   wavefun   :      19070. kBytes
 
  
  
 General timing and accounting informations for this job:
 ========================================================
  
                  Total CPU time used (sec):    13233.800
                            User time (sec):    13222.667
                          System time (sec):       11.132
                         Elapsed time (sec):    13290.491
  
                   Maximum memory used (kb):      669524.
                   Average memory used (kb):           0.
  
                          Minor page faults:      1438092
                          Major page faults:         6288
                 Voluntary context switches:         7804
