       N       E                     dE             d eps       ncg     rms          rms(c)
DAV:   1    -0.314024163755E+03   -0.31402E+03   -0.32918E+02  2560   0.139E+02    0.887E+00
DAV:   2    -0.327167809516E+03   -0.13144E+02   -0.13375E+02  2048   0.234E+01    0.437E+00
DAV:   3    -0.327431818219E+03   -0.26401E+00   -0.32250E+00  2560   0.392E+00    0.328E+00
DAV:   4    -0.327433021054E+03   -0.12028E-02   -0.27054E-01  3072   0.139E+00    0.257E+00
DAV:   5    -0.327425794438E+03    0.72266E-02   -0.14756E-02  2048   0.413E-01    0.213E+00
DAV:   6    -0.327419605278E+03    0.61892E-02   -0.33991E-03  3584   0.241E-01    0.168E+00
DAV:   7    -0.327410172141E+03    0.94331E-02   -0.12218E-02  2560   0.576E-01    0.480E-01
DAV:   8    -0.327409958828E+03    0.21331E-03   -0.26679E-03  2560   0.113E-01    0.321E-01
DAV:   9    -0.327409874856E+03    0.83972E-04   -0.20589E-04  3584   0.328E-02    0.217E-01
DAV:  10    -0.327409805996E+03    0.68860E-04   -0.23940E-04  2560   0.441E-02    0.937E-02
DAV:  11    -0.327409790764E+03    0.15232E-04   -0.40042E-05  2560   0.192E-02    0.412E-02
DAV:  12    -0.327409785844E+03    0.49200E-05   -0.12719E-05  3584   0.139E-02    0.101E-02
DAV:  13    -0.327409785700E+03    0.14395E-06   -0.25911E-06  3584   0.527E-03    0.606E-03
DAV:  14    -0.327409785839E+03   -0.13928E-06   -0.75526E-07  2048   0.243E-03    0.238E-03
DAV:  15    -0.327409785816E+03    0.23574E-07   -0.90790E-08  2560   0.654E-04    0.119E-03
DAV:  16    -0.327409785807E+03    0.89058E-08   -0.40047E-08  1024   0.606E-04
   1 F= -.32740979E+03 E0= -.32740979E+03  d E =-.702707E-74  mag=     0.0000
