       N       E                     dE             d eps       ncg     rms          rms(c)
DAV:   1     0.597495901049E+04    0.59750E+04   -0.51917E+05 16384   0.197E+03
DAV:   2    -0.161026267598E+03   -0.61360E+04   -0.60315E+04 19200   0.448E+02
DAV:   3    -0.398399314708E+03   -0.23737E+03   -0.23680E+03 21760   0.956E+01
DAV:   4    -0.401733887012E+03   -0.33346E+01   -0.33345E+01 21760   0.114E+01
DAV:   5    -0.401843460377E+03   -0.10957E+00   -0.10957E+00 19968   0.201E+00    0.678E+01
DAV:   6    -0.346703735088E+03    0.55140E+02   -0.86641E+01 23040   0.282E+01    0.403E+01
DAV:   7    -0.332825196539E+03    0.13879E+02   -0.57714E+01 21248   0.267E+01    0.367E+01
DAV:   8    -0.328911441273E+03    0.39138E+01   -0.42887E+01 23296   0.166E+01    0.143E+01
DAV:   9    -0.328184893850E+03    0.72655E+00   -0.18260E+01 21504   0.143E+01    0.108E+01
DAV:  10    -0.327904882131E+03    0.28001E+00   -0.82434E+00 22528   0.691E+00    0.517E+00
DAV:  11    -0.327938427650E+03   -0.33546E-01   -0.84421E-01 20480   0.223E+00    0.191E+00
DAV:  12    -0.327992398753E+03   -0.53971E-01   -0.23831E-01 26112   0.837E-01    0.104E+00
DAV:  13    -0.328007181711E+03   -0.14783E-01   -0.58169E-02 19456   0.493E-01    0.433E-01
DAV:  14    -0.328012643911E+03   -0.54622E-02   -0.12932E-02 22016   0.148E-01    0.275E-01
DAV:  15    -0.328015685175E+03   -0.30413E-02   -0.79193E-03 21760   0.110E-01    0.143E-01
DAV:  16    -0.328016996849E+03   -0.13117E-02   -0.46084E-03 21504   0.673E-02    0.900E-02
DAV:  17    -0.328017451100E+03   -0.45425E-03   -0.24312E-03 17920   0.505E-02    0.482E-02
DAV:  18    -0.328017534052E+03   -0.82952E-04   -0.56486E-04 21504   0.264E-02    0.243E-02
DAV:  19    -0.328017540864E+03   -0.68119E-05   -0.26941E-05 18432   0.871E-03    0.159E-02
DAV:  20    -0.328017544428E+03   -0.35646E-05   -0.17989E-05 23040   0.522E-03    0.712E-03
DAV:  21    -0.328017545636E+03   -0.12073E-05   -0.40642E-06 19968   0.267E-03    0.434E-03
DAV:  22    -0.328017545821E+03   -0.18513E-06   -0.52519E-07 26112   0.106E-03    0.240E-03
DAV:  23    -0.328017545912E+03   -0.91153E-07   -0.22247E-07 21248   0.549E-04    0.121E-03
DAV:  24    -0.328017545995E+03   -0.82655E-07   -0.23444E-07 21504   0.503E-04    0.597E-04
DAV:  25    -0.328017546021E+03   -0.26776E-07   -0.78181E-08 17920   0.285E-04    0.477E-04
DAV:  26    -0.328017546029E+03   -0.77416E-08   -0.68565E-09 16128   0.103E-04
   1 F= -.32801755E+03 E0= -.32801755E+03  d E =0.000000E+00  mag=     0.0000
