 vasp.5.4.4.18Apr17-6-g9f103f2a35 (build Oct 30 2023 17:30:16) complex          
  
 executed on             LinuxIFC date 2024.06.30  21:44:53
 running on  256 total cores
 distrk:  each k-point on  256 cores,    1 groups
 distr:  one band on NCORES_PER_BAND=   1 cores,  256 groups


--------------------------------------------------------------------------------------------------------


 INCAR:
 POTCAR:    PAW_PBE S 06Sep2000                   
 POTCAR:     PAW_PBE Cu_pv 06Sep2000              
 POTCAR:     PAW_PBE Fe_pv 02Aug2007              

 ----------------------------------------------------------------------------- 
|                                                                             |
|           W    W    AA    RRRRR   N    N  II  N    N   GGGG   !!!           |
|           W    W   A  A   R    R  NN   N  II  NN   N  G    G  !!!           |
|           W    W  A    A  R    R  N N  N  II  N N  N  G       !!!           |
|           W WW W  AAAAAA  RRRRR   N  N N  II  N  N N  G  GGG   !            |
|           WW  WW  A    A  R   R   N   NN  II  N   NN  G    G                |
|           W    W  A    A  R    R  N    N  II  N    N   GGGG   !!!           |
|                                                                             |
|      For optimal performance we recommend to set                            |
|        NCORE= 4 - approx SQRT( number of cores)                             |
|      NCORE specifies how many cores store one orbital (NPAR=cpu/NCORE).     |
|      This setting can  greatly improve the performance of VASP for DFT.     |
|      The default,   NCORE=1            might be grossly inefficient         |
|      on modern multi-core architectures or massively parallel machines.     |
|      Do your own testing !!!!                                               |
|      Unfortunately you need to use the default for GW and RPA calculations. |
|      (for HF NCORE is supported but not extensively tested yet)             |
|                                                                             |
 ----------------------------------------------------------------------------- 

 POTCAR:    PAW_PBE S 06Sep2000                   
   SHA256 =  0fc7481fb0695f01bdc6462160264c5c84044ae9ec85a907d398b887a2bc3132 S/
   COPYR  = (c) Copyright 06Sep2000 Georg Kresse                                
   COPYR  = This file is part of the software VASP. Any use, copying, and all ot
   COPYR  = If you do not have a valid VASP license, you may not use, copy or di
   VRHFIN =S : s2p4                                                             
   LEXCH  = PE                                                                  
   EATOM  =   276.8230 eV,   20.3459 Ry                                         
                                                                                
   TITEL  = PAW_PBE S 06Sep2000                                                 
   LULTRA =        F    use ultrasoft PP ?                                      
   IUNSCR =        1    unscreen: 0-lin 1-nonlin 2-no                           
   RPACOR =    1.500    partial core radius                                     
   POMASS =   32.066; ZVAL   =    6.000    mass and valenz                      
   RCORE  =    1.900    outmost cutoff radius                                   
   RWIGS  =    2.200; RWIGS  =    1.164    wigner-seitz radius (au A)           
   ENMAX  =  258.689; ENMIN  =  194.016 eV                                      
   ICORE  =        2    local potential                                         
   LCOR   =        T    correct aug charges                                     
   LPAW   =        T    paw PP                                                  
   EAUG   =  335.092                                                            
   DEXC   =    0.000                                                            
   RMAX   =    1.942    core radius for proj-oper                               
   RAUG   =    1.300    factor for augmentation sphere                          
   RDEP   =    1.954    radius for radial grids                                 
   RDEPT  =    1.744    core radius for aug-charge                              
                                                                                
   Atomic configuration                                                         
    6 entries                                                                   
     n  l   j            E        occ.                                          
     1  0  0.50     -2405.8406   2.0000                                         
     2  0  0.50      -211.7007   2.0000                                         
     2  1  1.50      -156.4958   6.0000                                         
     3  0  0.50       -17.2562   2.0000                                         
     3  1  0.50        -7.0085   4.0000                                         
     3  2  1.50        -6.8029   0.0000                                         
   Description                                                                  
     l       E           TYP  RCUT    TYP  RCUT                                 
     0    -17.2561641     23  1.900                                             
     0    -15.8743224     23  1.900                                             
     1     -7.0085400     23  1.900                                             
     1     -2.7779785     23  1.900                                             
     2     -6.8029130     23  1.900                                             
  local pseudopotential read in
  partial core-charges read in
  partial kinetic energy density read in
  atomic valenz-charges read in
  non local Contribution for L=           0  read in
    real space projection operators read in
  non local Contribution for L=           0  read in
    real space projection operators read in
  non local Contribution for L=           1  read in
    real space projection operators read in
  non local Contribution for L=           1  read in
    real space projection operators read in
    PAW grid and wavefunctions read in
 
   number of l-projection  operators is LMAX  =           4
   number of lm-projection operators is LMMAX =           8
 
 POTCAR:     PAW_PBE Cu_pv 06Sep2000              
   SHA256 =  cb7b504e2ea725fe1f25c85a9ac77d4012ce94cd394135b722c4e25ec297f1cb Cu
   COPYR  = (c) Copyright 06Sep2000 Georg Kresse                                
   COPYR  = This file is part of the software VASP. Any use, copying, and all ot
   COPYR  = If you do not have a valid VASP license, you may not use, copy or di
   VRHFIN =Cu: d10 p1                                                           
   LEXCH  = PE                                                                  
   EATOM  =  4120.1201 eV,  302.8203 Ry                                         
                                                                                
   TITEL  = PAW_PBE Cu_pv 06Sep2000                                             
   LULTRA =        F    use ultrasoft PP ?                                      
   IUNSCR =        1    unscreen: 0-lin 1-nonlin 2-no                           
   RPACOR =    1.500    partial core radius                                     
   POMASS =   63.546; ZVAL   =   17.000    mass and valenz                      
   RCORE  =    2.000    outmost cutoff radius                                   
   RWIGS  =    2.000; RWIGS  =    1.058    wigner-seitz radius (au A)           
   ENMAX  =  368.648; ENMIN  =  276.486 eV                                      
   RCLOC  =    1.304    cutoff for local pot                                    
   LCOR   =        T    correct aug charges                                     
   LPAW   =        T    paw PP                                                  
   EAUG   =  758.233                                                            
   DEXC   =    0.000                                                            
   RMAX   =    2.046    core radius for proj-oper                               
   RAUG   =    1.300    factor for augmentation sphere                          
   RDEP   =    2.025    radius for radial grids                                 
   RDEPT  =    1.558    core radius for aug-charge                              
                                                                                
   Atomic configuration                                                         
    8 entries                                                                   
     n  l   j            E        occ.                                          
     1  0  0.50     -8850.2467   2.0000                                         
     2  0  0.50     -1062.3498   2.0000                                         
     2  1  1.50      -916.8226   6.0000                                         
     3  0  0.50      -114.6929   2.0000                                         
     3  1  1.50       -72.1325   6.0000                                         
     3  2  2.50        -5.0394  10.0000                                         
     4  0  0.50        -4.6097   1.0000                                         
     4  3  2.50        -1.3606   0.0000                                         
   Description                                                                  
     l       E           TYP  RCUT    TYP  RCUT                                 
     1    -72.1324777     23  1.700                                             
     1     -1.3605826     23  1.700                                             
     2     -5.0393776     23  2.000                                             
     2     -6.3999602     23  2.000                                             
     0     -4.6097062     23  1.800                                             
     0     14.1620818     23  1.800                                             
  local pseudopotential read in
  partial core-charges read in
  partial kinetic energy density read in
  atomic valenz-charges read in
  non local Contribution for L=           1  read in
    real space projection operators read in
  non local Contribution for L=           1  read in
    real space projection operators read in
  non local Contribution for L=           2  read in
    real space projection operators read in
  non local Contribution for L=           2  read in
    real space projection operators read in
  non local Contribution for L=           0  read in
    real space projection operators read in
  non local Contribution for L=           0  read in
    real space projection operators read in
    PAW grid and wavefunctions read in
 
   number of l-projection  operators is LMAX  =           6
   number of lm-projection operators is LMMAX =          18
 
 POTCAR:     PAW_PBE Fe_pv 02Aug2007              
   SHA256 =  5d22e414b1f82158bf2c7ecb8b97b28fd0923e48cadc1c3bf74d524558f5dd32 Fe
   COPYR  = (c) Copyright 02Aug2007 Georg Kresse                                
   COPYR  = This file is part of the software VASP. Any use, copying, and all ot
   COPYR  = If you do not have a valid VASP license, you may not use, copy or di
   VRHFIN =Fe:  3pd7s1                                                          
   LEXCH  = PE                                                                  
   EATOM  =  2457.4239 eV,  180.6156 Ry                                         
                                                                                
   TITEL  = PAW_PBE Fe_pv 02Aug2007                                             
   LULTRA =        F    use ultrasoft PP ?                                      
   IUNSCR =        1    unscreen: 0-lin 1-nonlin 2-no                           
   RPACOR =    1.750    partial core radius                                     
   POMASS =   55.847; ZVAL   =   14.000    mass and valenz                      
   RCORE  =    2.200    outmost cutoff radius                                   
   RWIGS  =    2.200; RWIGS  =    1.164    wigner-seitz radius (au A)           
   ENMAX  =  293.238; ENMIN  =  219.928 eV                                      
   ICORE  =        3    local potential                                         
   LCOR   =        T    correct aug charges                                     
   LPAW   =        T    paw PP                                                  
   EAUG   =  578.342                                                            
   DEXC   =    0.000                                                            
   RMAX   =    2.249    core radius for proj-oper                               
   RAUG   =    1.300    factor for augmentation sphere                          
   RDEP   =    2.296    radius for radial grids                                 
   RDEPT  =    1.766    core radius for aug-charge                              
                                                                                
   Atomic configuration                                                         
    8 entries                                                                   
     n  l   j            E        occ.                                          
     1  0  0.50     -6993.8440   2.0000                                         
     2  0  0.50      -814.6047   2.0000                                         
     2  1  1.50      -693.3689   6.0000                                         
     3  0  0.50       -89.4732   2.0000                                         
     3  1  1.50       -55.6373   6.0000                                         
     3  2  2.50        -3.8151   7.0000                                         
     4  0  0.50        -4.2551   1.0000                                         
     4  3  2.50        -1.3606   0.0000                                         
   Description                                                                  
     l       E           TYP  RCUT    TYP  RCUT                                 
     1    -55.6372668     23  2.000                                             
     1     -5.4423304     23  2.000                                             
     2     -3.8151096     23  2.200                                             
     2     -5.1756922     23  2.200                                             
     0     -4.2550951     23  2.200                                             
     0     27.2116520     23  2.200                                             
     3     -1.3605826     23  2.200                                             
  local pseudopotential read in
  partial core-charges read in
  partial kinetic energy density read in
  atomic valenz-charges read in
  non local Contribution for L=           1  read in
    real space projection operators read in
  non local Contribution for L=           1  read in
    real space projection operators read in
  non local Contribution for L=           2  read in
    real space projection operators read in
  non local Contribution for L=           2  read in
    real space projection operators read in
  non local Contribution for L=           0  read in
    real space projection operators read in
  non local Contribution for L=           0  read in
    real space projection operators read in
    PAW grid and wavefunctions read in
 
   number of l-projection  operators is LMAX  =           6
   number of lm-projection operators is LMMAX =          18
 

 ----------------------------------------------------------------------------- 
|                                                                             |
|  ADVICE TO THIS USER RUNNING 'VASP/VAMP'   (HEAR YOUR MASTER'S VOICE ...):  |
|                                                                             |
|      You have a (more or less) 'large supercell' and for larger cells       |
|      it might be more efficient to use real space projection opertators     |
|      So try LREAL= Auto  in the INCAR   file.                               |
|      Mind:          For very  accurate calculation you might also keep the  |
|      reciprocal projection scheme          (i.e. LREAL=.FALSE.)             |
|                                                                             |
 ----------------------------------------------------------------------------- 


 ----------------------------------------------------------------------------- 
|                                                                             |
|  ADVICE TO THIS USER RUNNING 'VASP/VAMP'   (HEAR YOUR MASTER'S VOICE ...):  |
|                                                                             |
|      You enforced a specific xc-type in the INCAR file,                     |
|      a different type was found on the POTCAR file                          |
|          I HOPE YOU KNOW, WHAT YOU ARE  DOING                               |
|                                                                             |
 ----------------------------------------------------------------------------- 

  PAW_PBE S 06Sep2000                   :
 energy of atom  1       EATOM= -276.8230
 kinetic energy error for atom=    0.0007 (will be added to EATOM!!)
   PAW_PBE Cu_pv 06Sep2000              :
 energy of atom  2       EATOM=-4120.1201
 kinetic energy error for atom=    0.0094 (will be added to EATOM!!)
   PAW_PBE Fe_pv 02Aug2007              :
 energy of atom  3       EATOM=-2457.4239
 kinetic energy error for atom=    0.0025 (will be added to EATOM!!)
 
 
 POSCAR: Fe16 Cu16 S32                           
  positions in direct lattice
  No initial velocities read in
 exchange correlation table for  LEXCH =       14
   RHO(1)=    0.500       N(1)  =     2000
   RHO(2)=  100.500       N(2)  =     4000
 


--------------------------------------------------------------------------------------------------------


 ion  position               nearest neighbor table
   1  0.126  0.122  0.125-  41 2.26  37 2.27  61 2.27  49 2.29
   2  0.626  0.122  0.125-  42 2.26  38 2.27  62 2.27  50 2.29
   3  0.126  0.622  0.125-  43 2.26  39 2.27  63 2.27  51 2.29
   4  0.626  0.622  0.125-  44 2.26  40 2.27  64 2.27  52 2.29
   5  0.374  0.372  0.125-  39 2.26  41 2.27  52 2.27  62 2.29
   6  0.874  0.372  0.125-  40 2.26  42 2.27  51 2.27  61 2.29
   7  0.374  0.872  0.125-  37 2.26  43 2.27  50 2.27  64 2.29
   8  0.874  0.872  0.125-  38 2.26  44 2.27  49 2.27  63 2.29
   9  0.125  0.372  0.875-  41 2.27  45 2.27  51 2.27  55 2.27
  10  0.625  0.372  0.875-  42 2.27  46 2.27  52 2.27  56 2.27
  11  0.125  0.872  0.875-  43 2.27  47 2.27  49 2.27  53 2.27
  12  0.625  0.872  0.875-  44 2.27  48 2.27  50 2.27  54 2.27
  13  0.375  0.124  0.875-  41 2.26  46 2.26  50 2.28  53 2.28
  14  0.875  0.124  0.875-  42 2.26  45 2.26  49 2.28  54 2.28
  15  0.375  0.624  0.875-  43 2.26  48 2.26  52 2.28  55 2.28
  16  0.875  0.624  0.875-  44 2.26  47 2.26  51 2.28  56 2.28
  17  0.124  0.122  0.625-  45 2.26  33 2.27  57 2.27  53 2.29
  18  0.624  0.122  0.625-  46 2.26  34 2.27  58 2.27  54 2.29
  19  0.124  0.622  0.625-  47 2.26  35 2.27  59 2.27  55 2.29
  20  0.624  0.622  0.625-  48 2.26  36 2.27  60 2.27  56 2.29
  21  0.376  0.372  0.625-  36 2.26  46 2.27  55 2.27  57 2.29
  22  0.876  0.372  0.625-  35 2.26  45 2.27  56 2.27  58 2.29
  23  0.376  0.872  0.625-  34 2.26  48 2.27  53 2.27  59 2.29
  24  0.876  0.872  0.625-  33 2.26  47 2.27  54 2.27  60 2.29
  25  0.375  0.122  0.375-  34 2.27  37 2.27  57 2.27  62 2.27
  26  0.875  0.122  0.375-  33 2.27  38 2.27  58 2.27  61 2.27
  27  0.375  0.622  0.375-  36 2.27  39 2.27  59 2.27  64 2.27
  28  0.875  0.622  0.375-  35 2.27  40 2.27  60 2.27  63 2.27
  29  0.125  0.374  0.375-  35 2.26  39 2.26  57 2.28  61 2.28
  30  0.625  0.374  0.375-  36 2.26  40 2.26  58 2.28  62 2.28
  31  0.125  0.874  0.375-  33 2.26  37 2.26  59 2.28  63 2.28
  32  0.625  0.874  0.375-  34 2.26  38 2.26  60 2.28  64 2.28
  33  0.999  0.003  0.500-  24 2.26  31 2.26  26 2.27  17 2.27
  34  0.499  0.003  0.500-  23 2.26  32 2.26  25 2.27  18 2.27
  35  0.999  0.503  0.500-  22 2.26  29 2.26  28 2.27  19 2.27
  36  0.499  0.503  0.500-  21 2.26  30 2.26  27 2.27  20 2.27
  37  0.251  0.003  0.250-   7 2.26  31 2.26  25 2.27   1 2.27
  38  0.751  0.003  0.250-   8 2.26  32 2.26  26 2.27   2 2.27
  39  0.251  0.503  0.250-   5 2.26  29 2.26  27 2.27   3 2.27
  40  0.751  0.503  0.250-   6 2.26  30 2.26  28 2.27   4 2.27
  41  0.249  0.253  0.000-   1 2.26  13 2.26   9 2.27   5 2.27
  42  0.749  0.253  0.000-   2 2.26  14 2.26  10 2.27   6 2.27
  43  0.249  0.753  0.000-   3 2.26  15 2.26  11 2.27   7 2.27
  44  0.749  0.753  0.000-   4 2.26  16 2.26  12 2.27   8 2.27
  45  0.001  0.253  0.750-  17 2.26  14 2.26   9 2.27  22 2.27
  46  0.501  0.253  0.750-  18 2.26  13 2.26  10 2.27  21 2.27
  47  0.001  0.753  0.750-  19 2.26  16 2.26  11 2.27  24 2.27
  48  0.501  0.753  0.750-  20 2.26  15 2.26  12 2.27  23 2.27
  49  1.000  0.003  0.000-   8 2.27  11 2.27  14 2.28   1 2.29
  50  0.500  0.003  0.000-   7 2.27  12 2.27  13 2.28   2 2.29
  51  1.000  0.503  0.000-   6 2.27   9 2.27  16 2.28   3 2.29
  52  0.500  0.503  0.000-   5 2.27  10 2.27  15 2.28   4 2.29
  53  0.250  0.003  0.750-  23 2.27  11 2.27  13 2.28  17 2.29
  54  0.750  0.003  0.750-  24 2.27  12 2.27  14 2.28  18 2.29
  55  0.250  0.503  0.750-  21 2.27   9 2.27  15 2.28  19 2.29
  56  0.750  0.503  0.750-  22 2.27  10 2.27  16 2.28  20 2.29
  57  0.250  0.253  0.500-  17 2.27  25 2.27  29 2.28  21 2.29
  58  0.750  0.253  0.500-  18 2.27  26 2.27  30 2.28  22 2.29
  59  0.250  0.753  0.500-  19 2.27  27 2.27  31 2.28  23 2.29
  60  0.750  0.753  0.500-  20 2.27  28 2.27  32 2.28  24 2.29
  61  0.000  0.253  0.250-   1 2.27  26 2.27  29 2.28   6 2.29
  62  0.500  0.253  0.250-   2 2.27  25 2.27  30 2.28   5 2.29
  63  0.000  0.753  0.250-   3 2.27  28 2.27  31 2.28   8 2.29
  64  0.500  0.753  0.250-   4 2.27  27 2.27  32 2.28   7 2.29
 
  LATTYP: Found a simple monoclinic cell.
 ALAT       =    15.1528287950
 B/A-ratio  =     0.6942122255
 C/A-ratio  =     1.5691880681
 COS(beta)  =    -0.9528575046
  
  Lattice vectors:
  
 A1 = ( -10.7657800000,   0.0000000000, -10.6633110000)
 A2 = (   0.0000000000, -10.5192790000,   0.0000000000)
 A3 = (  11.0201130000,   0.0000000000,  21.0697220000)


Analysis of symmetry for initial positions (statically):
=====================================================================
 Subroutine PRICEL returns following result:
 
  LATTYP: Found a base centered monoclinic cell.
 ALAT       =    11.4302401222
 B/A-ratio  =     0.4601512692
 C/A-ratio  =     0.9106998959
 COS(beta)  =    -0.8069031566
  
  Lattice vectors:
  
 A1 = (  -2.5006952500,  -2.6298197500,   5.1389805000)
 A2 = (  -2.5006952500,   2.6298197500,   5.1389805000)
 A3 = (  -0.2543330000,   0.0000000000, -10.4064110000)
 
   8 primitive cells build up your supercell.
 

 Routine SETGRP: Setting up the symmetry group for a 
 simple monoclinic supercell.


 Subroutine GETGRP returns: Found  2 space group operations
 (whereof  1 operations were pure point group operations)
 out of a pool of  4 trial point group operations.


The static configuration has the point symmetry C_1 .
 The point group associated with its full space group is C_2 .


Analysis of symmetry for dynamics (positions and initial velocities):
=====================================================================
 Subroutine PRICEL returns following result:
 
  LATTYP: Found a base centered monoclinic cell.
 ALAT       =    11.4302401222
 B/A-ratio  =     0.4601512692
 C/A-ratio  =     0.9106998959
 COS(beta)  =    -0.8069031566
  
  Lattice vectors:
  
 A1 = (  -2.5006952500,  -2.6298197500,   5.1389805000)
 A2 = (  -2.5006952500,   2.6298197500,   5.1389805000)
 A3 = (  -0.2543330000,   0.0000000000, -10.4064110000)
 
   8 primitive cells build up your supercell.
 

 Routine SETGRP: Setting up the symmetry group for a 
 simple monoclinic supercell.


 Subroutine GETGRP returns: Found  2 space group operations
 (whereof  1 operations were pure point group operations)
 out of a pool of  4 trial point group operations.


The dynamic configuration has the point symmetry C_1 .
 The point group associated with its full space group is C_2 .


Analysis of structural, dynamic, and magnetic symmetry:
=====================================================================
 Subroutine PRICEL returns following result:
 
  LATTYP: Found a base centered monoclinic cell.
 ALAT       =    11.4302401222
 B/A-ratio  =     0.4601512692
 C/A-ratio  =     0.9106998959
 COS(beta)  =    -0.8069031566
  
  Lattice vectors:
  
 A1 = (  -2.5006952500,  -2.6298197500,   5.1389805000)
 A2 = (  -2.5006952500,   2.6298197500,   5.1389805000)
 A3 = (  -0.2543330000,   0.0000000000, -10.4064110000)
 
   8 primitive cells build up your supercell.
 

 Routine SETGRP: Setting up the symmetry group for a 
 simple monoclinic supercell.


 Subroutine GETGRP returns: Found  2 space group operations
 (whereof  1 operations were pure point group operations)
 out of a pool of  4 trial point group operations.


The magnetic configuration has the point symmetry C_1 .
 The point group associated with its full space group is C_2 .


 Subroutine INISYM returns: Found  2 space group operations
 (whereof  1 operations are pure point group operations),
 and found     8 'primitive' translations

 
 
 KPOINTS: Automatic mesh                          

Automatic generation of k-mesh.
Space group operators:
 irot       det(A)        alpha          n_x          n_y          n_z        tau_x        tau_y        tau_z
    1     1.000000     0.000000     1.000000     0.000000     0.000000     0.000000     0.000000     0.000000
    2     1.000000   180.000000     0.000000     1.000000     0.000000    -0.250000     0.000000    -0.250000
 
 Subroutine IBZKPT returns following result:
 ===========================================
 
 Found      8 irreducible k-points:
 
 Following reciprocal coordinates:
            Coordinates               Weight
  0.000000  0.000000  0.000000      1.000000
  0.500000  0.000000  0.000000      1.000000
  0.000000  0.500000  0.000000      1.000000
  0.500000  0.500000  0.000000      1.000000
 -0.000000  0.000000  0.500000      1.000000
  0.500000  0.000000  0.500000      1.000000
 -0.000000  0.500000  0.500000      1.000000
  0.500000  0.500000  0.500000      1.000000
 
 Following cartesian coordinates:
            Coordinates               Weight
  0.000000  0.000000  0.000000      1.000000
  0.047596  0.000000 -0.001163      1.000000
  0.000000  0.047532  0.000000      1.000000
  0.047596  0.047532 -0.001163      1.000000
 -0.001175  0.000000  0.048076      1.000000
  0.046421  0.000000  0.046913      1.000000
 -0.001175  0.047532  0.048076      1.000000
  0.046421  0.047532  0.046913      1.000000
 
 TETIRR: Found     24 inequivalent tetrahedra from       48
 
 Subroutine IBZKPT_HF returns following result:
 ==============================================
 
 Found      8 k-points in 1st BZ
 the following      8 k-points will be used (e.g. in the exchange kernel)
 Following reciprocal coordinates:   # in IRBZ
  0.000000  0.000000  0.000000    0.12500000   1 t-inv F
  0.500000  0.000000  0.000000    0.12500000   2 t-inv F
  0.000000  0.500000  0.000000    0.12500000   3 t-inv F
  0.500000  0.500000  0.000000    0.12500000   4 t-inv F
 -0.000000  0.000000  0.500000    0.12500000   5 t-inv F
  0.500000  0.000000  0.500000    0.12500000   6 t-inv F
 -0.000000  0.500000  0.500000    0.12500000   7 t-inv F
  0.500000  0.500000  0.500000    0.12500000   8 t-inv F


--------------------------------------------------------------------------------------------------------




 Dimension of arrays:
   k-points           NKPTS =      8   k-points in BZ     NKDIM =      8   number of bands    NBANDS=    512
   number of dos      NEDOS =    301   number of ions     NIONS =     64
   non local maximal  LDIM  =      6   non local SUM 2l+1 LMDIM =     18
   total plane-waves  NPLWV = 829440
   max r-space proj   IRMAX =      1   max aug-charges    IRDMAX=  22920
   dimension x,y,z NGX =    96 NGY =   96 NGZ =   90
   dimension x,y,z NGXF=   192 NGYF=  192 NGZF=  180
   support grid    NGXF=   192 NGYF=  192 NGZF=  180
   ions per type =              32  16  16
   NGX,Y,Z   is equivalent  to a cutoff of  15.18, 15.17, 14.37 a.u.
   NGXF,Y,Z  is equivalent  to a cutoff of  30.36, 30.34, 28.75 a.u.

 SYSTEM =  CuFeS2                                  
 POSCAR =  Fe16 Cu16 S32                           

 Startparameter for this run:
   NWRITE =      2    write-flag & timer
   PREC   = accura    normal or accurate (medium, high low for compatibility)
   ISTART =      0    job   : 0-new  1-cont  2-samecut
   ICHARG =      1    charge: 1-file 2-atom 10-const
   ISPIN  =      2    spin polarized calculation?
   LNONCOLLINEAR =      F non collinear calculations
   LSORBIT =      F    spin-orbit coupling
   INIWAV =      1    electr: 0-lowe 1-rand  2-diag
   LASPH  =      F    aspherical Exc in radial PAW
   METAGGA=      F    non-selfconsistent MetaGGA calc.

 Electronic Relaxation 1
   ENCUT  =  700.0 eV  51.45 Ry    7.17 a.u.  22.68 22.69 22.46*2*pi/ulx,y,z
   ENINI  =  700.0     initial cutoff
   ENAUG  =  758.2 eV  augmentation charge cutoff
   NELM   =    500;   NELMIN=  2; NELMDL= -5     # of ELM steps 
   EDIFF  = 0.1E-07   stopping-criterion for ELM
   LREAL  =      F    real-space projection
   NLSPLINE    = F    spline interpolate recip. space projectors
   LCOMPAT=      F    compatible to vasp.4.4
   GGA_COMPAT  = T    GGA compatible to vasp.4.4-vasp.4.6
   LMAXPAW     = -100 max onsite density
   LMAXMIX     =    4 max onsite mixed and CHGCAR
   VOSKOWN=      0    Vosko Wilk Nusair interpolation
   ROPT   =    0.00000   0.00000   0.00000
 Ionic relaxation
   EDIFFG = -.1E-04   stopping-criterion for IOM
   NSW    =      0    number of steps for IOM
   NBLOCK =      1;   KBLOCK =      1    inner block; outer block 
   IBRION =     -1    ionic relax: 0-MD 1-quasi-New 2-CG
   NFREE  =      0    steps in history (QN), initial steepest desc. (CG)
   ISIF   =      2    stress and relaxation
   IWAVPR =     10    prediction:  0-non 1-charg 2-wave 3-comb
   ISYM   =      2    0-nonsym 1-usesym 2-fastsym
   LCORR  =      T    Harris-Foulkes like correction to forces

   POTIM  = 0.5000    time-step for ionic-motion
   TEIN   =    0.0    initial temperature
   TEBEG  =    0.0;   TEEND  =   0.0 temperature during run
   SMASS  =  -3.00    Nose mass-parameter (am)
   estimated Nose-frequenzy (Omega)   =  0.10E-29 period in steps =****** mass=  -0.253E-26a.u.
   SCALEE = 1.0000    scale energy and forces
   NPACO  =    256;   APACO  = 16.0  distance and # of slots for P.C.
   PSTRESS=    0.0 pullay stress

  Mass of Ions in am
   POMASS =  32.07 63.55 55.85
  Ionic Valenz
   ZVAL   =   6.00 17.00 14.00
  Atomic Wigner-Seitz radii
   RWIGS  =  -1.00 -1.00 -1.00
  virtual crystal weights 
   VCA    =   1.00  1.00  1.00
   NELECT =     688.0000    total number of electrons
   NUPDOWN=      -1.0000    fix difference up-down

 DOS related values:
   EMIN   =  10.00;   EMAX   =-10.00  energy-range for DOS
   EFERMI =   0.00
   ISMEAR =    -5;   SIGMA  =   0.03  broadening in eV -4-tet -1-fermi 0-gaus

 Electronic relaxation 2 (details)
   IALGO  =     38    algorithm
   LDIAG  =      T    sub-space diagonalisation (order eigenvalues)
   LSUBROT=      F    optimize rotation matrix (better conditioning)
   TURBO    =      0    0=normal 1=particle mesh
   IRESTART =      0    0=no restart 2=restart with 2 vectors
   NREBOOT  =      0    no. of reboots
   NMIN     =      0    reboot dimension
   EREF     =   0.00    reference energy to select bands
   IMIX   =      4    mixing-type and parameters
     AMIX     =   0.40;   BMIX     =  1.00
     AMIX_MAG =   1.60;   BMIX_MAG =  1.00
     AMIN     =   0.10
     WC   =   100.;   INIMIX=   1;  MIXPRE=   1;  MAXMIX= -45

 Intra band minimization:
   WEIMIN = 0.0000     energy-eigenvalue tresh-hold
   EBREAK =  0.49E-11  absolut break condition
   DEPER  =   0.30     relativ break condition  

   TIME   =   0.40     timestep for ELM

  volume/ion in A,a.u.               =      17.97       121.26
  Fermi-wavevector in a.u.,A,eV,Ry     =   1.379455  2.606793 25.890487  1.902897
  Thomas-Fermi vector in A             =   2.504423
 
 Write flags
   LWAVE        =      T    write WAVECAR
   LDOWNSAMPLE  =      F    k-point downsampling of WAVECAR
   LCHARG       =      T    write CHGCAR
   LVTOT        =      F    write LOCPOT, total local potential
   LVHAR        =      F    write LOCPOT, Hartree potential only
   LELF         =      F    write electronic localiz. function (ELF)
   LORBIT       =     11    0 simple, 1 ext, 2 COOP (PROOUT), +10 PAW based schemes


 Dipole corrections
   LMONO  =      F    monopole corrections only (constant potential shift)
   LDIPOL =      F    correct potential (dipole corrections)
   IDIPOL =      0    1-x, 2-y, 3-z, 4-all directions 
   EPSILON=  1.0000000 bulk dielectric constant

 LDA+U is selected, type is set to LDAUTYPE =  2
   angular momentum for each species LDAUL =     2    2    2
   U (eV)           for each species LDAUU =   0.0  0.1  4.7
   J (eV)           for each species LDAUJ =   0.0  0.0  0.0
 Exchange correlation treatment:
   GGA     =    PS    GGA type
   LEXCH   =    14    internal setting for exchange type
   VOSKOWN=      0    Vosko Wilk Nusair interpolation
   LHFCALC =     F    Hartree Fock is set to
   LHFONE  =     F    Hartree Fock one center treatment
   AEXX    =    0.0000 exact exchange contribution

 Linear response parameters
   LEPSILON=     F    determine dielectric tensor
   LRPA    =     F    only Hartree local field effects (RPA)
   LNABLA  =     F    use nabla operator in PAW spheres
   LVEL    =     F    velocity operator in full k-point grid
   LINTERFAST=   F  fast interpolation
   KINTER  =     0    interpolate to denser k-point grid
   CSHIFT  =0.1000    complex shift for real part using Kramers Kronig
   OMEGAMAX=  -1.0    maximum frequency
   DEG_THRESHOLD= 0.2000000E-02 threshold for treating states as degnerate
   RTIME   =   -0.100 relaxation time in fs
  (WPLASMAI=    0.000 imaginary part of plasma frequency in eV, 0.658/RTIME)
   DFIELD  = 0.0000000 0.0000000 0.0000000 field for delta impulse in time
 
 Orbital magnetization related:
   ORBITALMAG=     F  switch on orbital magnetization
   LCHIMAG   =     F  perturbation theory with respect to B field
   DQ        =  0.001000  dq finite difference perturbation B field
   LLRAUG    =     F  two centre corrections for induced B field

 PEAD related settings:
   LPEAD      =     T    switch on PEAD
   IPEAD      =     4    finite difference order for dpsi/dk
   LCALCPOL   =     T    calculate macroscopic polarization
   LCALCEPS   =     F    calculate dielectric tensor
   EFIELD_PEAD=    0.0000    0.0000    0.0000
   SKIP_EDOTP =     F
   LRPA       =     F
   SKIP_SCF   =     F


--------------------------------------------------------------------------------------------------------


 Static calculation
 charge density and potential will be updated during run
 spin polarized calculation
 Variant of blocked Davidson
 Davidson routine will perform the subspace rotation
 perform sub-space diagonalisation
    after iterative eigenvector-optimisation
 modified Broyden-mixing scheme, WC =      100.0
 initial mixing is a Kerker type mixing with AMIX =  0.4000 and BMIX =      1.0000
 Hartree-type preconditioning will be used
 using additional bands          168
 reciprocal scheme for non local part
 use partial core corrections
 calculate Harris-corrections to forces 
   (improved forces if not selfconsistent)
 use gradient corrections 
 use of overlap-Matrix (Vanderbilt PP)
 Fermi weights with tetrahedron method with Bloechl corrections


--------------------------------------------------------------------------------------------------------


  energy-cutoff  :      700.00
  volume of cell :     1149.98
      direct lattice vectors                 reciprocal lattice vectors
    10.511447000  0.000000000  0.256900000     0.095191240  0.000000000 -0.002326477
     0.000000000 10.519279000  0.000000000     0.000000000  0.095063550  0.000000000
     0.254333000  0.000000000 10.406411000    -0.002349958  0.000000000  0.096152042

  length of vectors
    10.514585852 10.519279000 10.409518489     0.095219665  0.095063550  0.096180755


 
 k-points in units of 2pi/SCALE and weight: Automatic mesh                          
   0.00000000  0.00000000  0.00000000       0.125
   0.04759562  0.00000000 -0.00116324       0.125
   0.00000000  0.04753177  0.00000000       0.125
   0.04759562  0.04753177 -0.00116324       0.125
  -0.00117498  0.00000000  0.04807602       0.125
   0.04642064  0.00000000  0.04691278       0.125
  -0.00117498  0.04753177  0.04807602       0.125
   0.04642064  0.04753177  0.04691278       0.125
 
 k-points in reciprocal lattice and weights: Automatic mesh                          
   0.00000000  0.00000000  0.00000000       0.125
   0.50000000  0.00000000  0.00000000       0.125
   0.00000000  0.50000000  0.00000000       0.125
   0.50000000  0.50000000  0.00000000       0.125
  -0.00000000  0.00000000  0.50000000       0.125
   0.50000000  0.00000000  0.50000000       0.125
  -0.00000000  0.50000000  0.50000000       0.125
   0.50000000  0.50000000  0.50000000       0.125
 
 position of ions in fractional coordinates (direct lattice) 
   0.12622400  0.12195500  0.12544300
   0.62622300  0.12195500  0.12544300
   0.12622400  0.62195500  0.12544300
   0.62622300  0.62195500  0.12544300
   0.37377700  0.37195500  0.12455700
   0.87377700  0.37195500  0.12455700
   0.37377700  0.87195500  0.12455700
   0.87377700  0.87195500  0.12455700
   0.12500000  0.37178500  0.87500000
   0.62500000  0.37178500  0.87500000
   0.12500000  0.87178500  0.87500000
   0.62500000  0.87178500  0.87500000
   0.37500000  0.12390500  0.87500000
   0.87500000  0.12390500  0.87500000
   0.37500000  0.62390500  0.87500000
   0.87500000  0.62390500  0.87500000
   0.12377600  0.12195500  0.62455700
   0.62377700  0.12195500  0.62455700
   0.12377600  0.62195500  0.62455700
   0.62377700  0.62195500  0.62455700
   0.37622300  0.37195500  0.62544300
   0.87622300  0.37195500  0.62544300
   0.37622300  0.87195500  0.62544300
   0.87622300  0.87195500  0.62544300
   0.37500000  0.12178500  0.37500000
   0.87500000  0.12178500  0.37500000
   0.37500000  0.62178500  0.37500000
   0.87500000  0.62178500  0.37500000
   0.12500000  0.37390500  0.37500000
   0.62500000  0.37390500  0.37500000
   0.12500000  0.87390500  0.37500000
   0.62500000  0.87390500  0.37500000
   0.99910100  0.00268500  0.50000700
   0.49910100  0.00268500  0.50000700
   0.99910100  0.50268500  0.50000700
   0.49910100  0.50268500  0.50000700
   0.25089900  0.00268500  0.24999300
   0.75089900  0.00268500  0.24999300
   0.25089900  0.50268500  0.24999300
   0.75089900  0.50268500  0.24999300
   0.24910100  0.25268500  0.00000700
   0.74910100  0.25268500  0.00000700
   0.24910100  0.75268500  0.00000700
   0.74910100  0.75268500  0.00000700
   0.00089900  0.25268500  0.74999300
   0.50089900  0.25268500  0.74999300
   0.00089900  0.75268500  0.74999300
   0.50089900  0.75268500  0.74999300
   0.99950800  0.00251500  0.00017600
   0.49950800  0.00251500  0.00017600
   0.99950800  0.50251500  0.00017600
   0.49950800  0.50251500  0.00017600
   0.25049200  0.00251500  0.74982400
   0.75049200  0.00251500  0.74982400
   0.25049200  0.50251500  0.74982400
   0.75049200  0.50251500  0.74982400
   0.24950800  0.25251500  0.50017600
   0.74950800  0.25251500  0.50017600
   0.24950800  0.75251500  0.50017600
   0.74950800  0.75251500  0.50017600
   0.00049200  0.25251500  0.24982400
   0.50049200  0.25251500  0.24982400
   0.00049200  0.75251500  0.24982400
   0.50049200  0.75251500  0.24982400
 
 position of ions in cartesian coordinates  (Angst):
   1.35870118  1.28287867  1.33783836
   6.61441417  1.28287867  1.46628810
   1.35870118  6.54251817  1.33783836
   6.61441417  6.54251817  1.46628810
   3.96061608  3.91269842  1.39221465
   9.21633958  3.91269842  1.52066465
   3.96061608  9.17233792  1.39221465
   9.21633958  9.17233792  1.52066465
   1.53647225  3.91091014  9.13772212
   6.79219575  3.91091014  9.26617212
   1.53647225  9.17054964  9.13772212
   6.79219575  9.17054964  9.26617212
   4.16433400  1.30339126  9.20194713
   9.42005750  1.30339126  9.33039712
   4.16433400  6.56303076  9.20194713
   9.42005750  6.56303076  9.33039712
   1.45991032  1.28287867  6.53119489
   6.71564433  1.28287867  6.65964515
   1.45991032  6.54251817  6.53119489
   6.71564433  6.54251817  6.65964515
   4.11371892  3.91269842  6.60526860
   9.36944242  3.91269842  6.73371860
   4.11371892  9.17233792  6.60526860
   9.36944242  9.17233792  6.73371860
   4.03716750  1.28109039  3.99874163
   9.29289100  1.28109039  4.12719163
   4.03716750  6.54072989  3.99874163
   9.29289100  6.54072989  4.12719163
   1.40930575  3.93321101  3.93451663
   6.66502925  3.93321101  4.06296663
   1.40930575  9.19285051  3.93451663
   6.66502925  9.19285051  4.06296663
  10.62916549  0.02824426  5.45994739
   5.37344199  0.02824426  5.33149739
  10.62916549  5.28788376  5.45994739
   5.37344199  5.28788376  5.33149739
   2.70089301  0.02824426  2.66598586
   7.95661651  0.02824426  2.79443586
   2.70089301  5.28788376  2.66598586
   7.95661651  5.28788376  2.79443586
   2.61841374  2.65806401  0.06406689
   7.87413724  2.65806401  0.19251689
   2.61841374  7.91770351  0.06406689
   7.87413724  7.91770351  0.19251689
   0.20019776  2.65806401  7.80496636
   5.45592126  2.65806401  7.93341636
   0.20019776  7.91770351  7.80496636
   5.45592126  7.91770351  7.93341636
  10.50632013  0.02645599  0.25860513
   5.25059663  0.02645599  0.13015513
  10.50632013  5.28609549  0.25860513
   5.25059663  5.28609549  0.13015513
   2.82373837  0.02645599  7.86732812
   8.07946187  0.02645599  7.99577812
   2.82373837  5.28609549  7.86732812
   8.07946187  5.28609549  7.99577812
   2.74990138  2.65627574  5.26913563
   8.00562488  2.65627574  5.39758563
   2.74990138  7.91591524  5.26913563
   8.00562488  7.91591524  5.39758563
   0.06871012  2.65627574  2.59989762
   5.32443362  2.65627574  2.72834762
   0.06871012  7.91591524  2.59989762
   5.32443362  7.91591524  2.72834762
 


--------------------------------------------------------------------------------------------------------


 k-point  1 :   0.0000 0.0000 0.0000  plane waves:   48395
 k-point  2 :   0.5000 0.0000 0.0000  plane waves:   48430
 k-point  3 :   0.0000 0.5000 0.0000  plane waves:   48378
 k-point  4 :   0.5000 0.5000 0.0000  plane waves:   48380
 k-point  5 :  -0.0000 0.0000 0.5000  plane waves:   48364
 k-point  6 :   0.5000 0.0000 0.5000  plane waves:   48376
 k-point  7 :  -0.0000 0.5000 0.5000  plane waves:   48356
 k-point  8 :   0.5000 0.5000 0.5000  plane waves:   48296

 maximum and minimum number of plane-waves per node :     48430    48296

 maximum number of plane-waves:     48430
 maximum index in each direction: 
   IXMAX=   22   IYMAX=   22   IZMAX=   22
   IXMIN=  -23   IYMIN=  -23   IZMIN=  -22


 serial   3D FFT for wavefunctions
 parallel 3D FFT for charge:
    minimum data exchange during FFTs selected (reduces bandwidth)


 total amount of memory used by VASP MPI-rank0   349631. kBytes
=======================================================================

   base      :      30000. kBytes
   nonl-proj :     217907. kBytes
   fftplans  :       4588. kBytes
   grid      :      69719. kBytes
   one-center:       1990. kBytes
   wavefun   :      25427. kBytes
 
     INWAV:  cpu time    0.0000: real time    0.0000
 Broyden mixing: mesh for mixing (old mesh)
   NGX = 45   NGY = 45   NGZ = 45
  (NGX  =192   NGY  =192   NGZ  =180)
  gives a total of  91125 points

 initial charge density was supplied:
 number of electron     688.0000190 magnetization       0.0000000
 keeping initial charge density in first step


--------------------------------------------------------------------------------------------------------


 Maximum index for augmentation-charges          900 (set IRDMAX)


--------------------------------------------------------------------------------------------------------


 First call to EWALD:  gamma=   0.169
 Maximum number of real-space cells 3x 3x 3
 Maximum number of reciprocal cells 3x 3x 3

    FEWALD:  cpu time    0.0026: real time    0.0026


--------------------------------------- Iteration      1(   1)  ---------------------------------------


    POTLOK:  cpu time    0.3218: real time    0.3759
    SETDIJ:  cpu time    0.0142: real time    0.0143
     EDDAV:  cpu time   85.6397: real time   86.3720
 BZINTS: Fermi energy: 14.951094;688.000000 electrons
         Band energy:***********;  BLOECHL correction: -0.017881
       DOS:  cpu time    0.0387: real time    0.0389
    --------------------------------------------
      LOOP:  cpu time   86.0144: real time   86.8010

 eigenvalue-minimisations  : 16384
 total energy-change (2. order) : 0.6052672E+04  (-0.5161211E+05)
 number of electron     688.0000190 magnetization       0.0000000
 augmentation part      688.0000190 magnetization       0.0000000

 Free energy of the ion-electron system (eV)
  ---------------------------------------------------
  alpha Z        PSCENC =      2357.56496352
  Ewald energy   TEWEN  =    -62490.06818248
  -Hartree energ DENC   =    -42915.30848564
  -exchange      EXHF   =         0.00000000
  -V(xc)+E(xc)   XCENC  =      3285.61267479
  PAW double counting   =    112224.67741066  -115917.87443654
  entropy T*S    EENTRO =         0.00000000
  eigenvalues    EBANDS =     -4511.99657126
  atomic energy  EATOM  =    114020.06510763
  Solvation  Ediel_sol  =         0.00000000
  ---------------------------------------------------
  free energy    TOTEN  =      6052.67248068 eV

  energy without entropy =     6052.67248068  energy(sigma->0) =     6052.67248068


--------------------------------------------------------------------------------------------------------




--------------------------------------- Iteration      1(   2)  ---------------------------------------


     EDDAV:  cpu time   95.3224: real time   96.0701
 BZINTS: Fermi energy:  5.409672;688.000000 electrons
         Band energy:***********;  BLOECHL correction:  0.000000
       DOS:  cpu time    0.0068: real time    0.0069
    --------------------------------------------
      LOOP:  cpu time   95.3292: real time   96.0769

 eigenvalue-minimisations  : 17664
 total energy-change (2. order) :-0.6128151E+04  (-0.6018356E+04)
 number of electron     688.0000190 magnetization       0.0000000
 augmentation part      688.0000190 magnetization       0.0000000

 Free energy of the ion-electron system (eV)
  ---------------------------------------------------
  alpha Z        PSCENC =      2357.56496352
  Ewald energy   TEWEN  =    -62490.06818248
  -Hartree energ DENC   =    -42915.30848564
  -exchange      EXHF   =         0.00000000
  -V(xc)+E(xc)   XCENC  =      3285.61267479
  PAW double counting   =    112224.67741066  -115917.87443654
  entropy T*S    EENTRO =         0.00000000
  eigenvalues    EBANDS =    -10640.14794236
  atomic energy  EATOM  =    114020.06510763
  Solvation  Ediel_sol  =         0.00000000
  ---------------------------------------------------
  free energy    TOTEN  =       -75.47889042 eV

  energy without entropy =      -75.47889042  energy(sigma->0) =      -75.47889042


--------------------------------------------------------------------------------------------------------




--------------------------------------- Iteration      1(   3)  ---------------------------------------


     EDDAV:  cpu time  157.8360: real time  158.9424
 BZINTS: Fermi energy:  4.880132;688.000000 electrons
         Band energy:***********;  BLOECHL correction:  0.000000
       DOS:  cpu time    0.0058: real time    0.0058
    --------------------------------------------
      LOOP:  cpu time  157.8418: real time  158.9482

 eigenvalue-minimisations  : 22784
 total energy-change (2. order) :-0.2507866E+03  (-0.2498284E+03)
 number of electron     688.0000190 magnetization       0.0000000
 augmentation part      688.0000190 magnetization       0.0000000

 Free energy of the ion-electron system (eV)
  ---------------------------------------------------
  alpha Z        PSCENC =      2357.56496352
  Ewald energy   TEWEN  =    -62490.06818248
  -Hartree energ DENC   =    -42915.30848564
  -exchange      EXHF   =         0.00000000
  -V(xc)+E(xc)   XCENC  =      3285.61267479
  PAW double counting   =    112224.67741066  -115917.87443654
  entropy T*S    EENTRO =         0.00000000
  eigenvalues    EBANDS =    -10890.93452597
  atomic energy  EATOM  =    114020.06510763
  Solvation  Ediel_sol  =         0.00000000
  ---------------------------------------------------
  free energy    TOTEN  =      -326.26547403 eV

  energy without entropy =     -326.26547403  energy(sigma->0) =     -326.26547403


--------------------------------------------------------------------------------------------------------




--------------------------------------- Iteration      1(   4)  ---------------------------------------


     EDDAV:  cpu time  106.7863: real time  107.5763
 BZINTS: Fermi energy:  4.970859;688.000000 electrons
         Band energy:***********;  BLOECHL correction:  0.000000
       DOS:  cpu time    0.0066: real time    0.0066
    --------------------------------------------
      LOOP:  cpu time  106.7929: real time  107.5829

 eigenvalue-minimisations  : 18432
 total energy-change (2. order) :-0.3477048E+01  (-0.3476876E+01)
 number of electron     688.0000190 magnetization       0.0000000
 augmentation part      688.0000190 magnetization       0.0000000

 Free energy of the ion-electron system (eV)
  ---------------------------------------------------
  alpha Z        PSCENC =      2357.56496352
  Ewald energy   TEWEN  =    -62490.06818248
  -Hartree energ DENC   =    -42915.30848564
  -exchange      EXHF   =         0.00000000
  -V(xc)+E(xc)   XCENC  =      3285.61267479
  PAW double counting   =    112224.67741066  -115917.87443654
  entropy T*S    EENTRO =         0.00000000
  eigenvalues    EBANDS =    -10894.41157397
  atomic energy  EATOM  =    114020.06510763
  Solvation  Ediel_sol  =         0.00000000
  ---------------------------------------------------
  free energy    TOTEN  =      -329.74252203 eV

  energy without entropy =     -329.74252203  energy(sigma->0) =     -329.74252203


--------------------------------------------------------------------------------------------------------




--------------------------------------- Iteration      1(   5)  ---------------------------------------


     EDDAV:  cpu time  159.7888: real time  160.8817
 BZINTS: Fermi energy:  4.918008;688.000000 electrons
         Band energy:***********;  BLOECHL correction:  0.000000
       DOS:  cpu time    0.0065: real time    0.0066
    CHARGE:  cpu time    1.4036: real time    1.4141
    MIXING:  cpu time    0.0043: real time    0.0043
    --------------------------------------------
      LOOP:  cpu time  161.2032: real time  162.3067

 eigenvalue-minimisations  : 22784
 total energy-change (2. order) :-0.1034415E+00  (-0.1034409E+00)
 number of electron     688.0000180 magnetization       0.0000000
 augmentation part      282.5959824 magnetization       0.0000000

 Broyden mixing:
  rms(total) = 0.10681E+01    rms(broyden)= 0.10679E+01
  rms(prec ) = 0.11995E+01
  weight for this iteration     100.00

 Free energy of the ion-electron system (eV)
  ---------------------------------------------------
  alpha Z        PSCENC =      2357.56496352
  Ewald energy   TEWEN  =    -62490.06818248
  -Hartree energ DENC   =    -42915.30848564
  -exchange      EXHF   =         0.00000000
  -V(xc)+E(xc)   XCENC  =      3285.61267479
  PAW double counting   =    112224.67741066  -115917.87443654
  entropy T*S    EENTRO =         0.00000000
  eigenvalues    EBANDS =    -10894.51501546
  atomic energy  EATOM  =    114020.06510763
  Solvation  Ediel_sol  =         0.00000000
  ---------------------------------------------------
  free energy    TOTEN  =      -329.84596352 eV

  energy without entropy =     -329.84596352  energy(sigma->0) =     -329.84596352


--------------------------------------------------------------------------------------------------------




--------------------------------------- Iteration      1(   6)  ---------------------------------------


    POTLOK:  cpu time    0.1199: real time    0.1225
    SETDIJ:  cpu time    0.0126: real time    0.0127
     EDDAV:  cpu time  175.6527: real time  176.8618
 BZINTS: Fermi energy:  4.943828;688.000000 electrons
         Band energy:***********;  BLOECHL correction:  0.000000
       DOS:  cpu time    0.0067: real time    0.0067
    CHARGE:  cpu time    1.4051: real time    1.4158
    MIXING:  cpu time    0.0025: real time    0.0345
    --------------------------------------------
      LOOP:  cpu time  177.1995: real time  178.4541

 eigenvalue-minimisations  : 25856
 total energy-change (2. order) : 0.1492551E+01  (-0.1277932E+00)
 number of electron     688.0000179 magnetization       0.0000000
 augmentation part      281.9854593 magnetization       0.0000000

 Broyden mixing:
  rms(total) = 0.56864E+00    rms(broyden)= 0.56863E+00
  rms(prec ) = 0.63785E+00
  weight for this iteration     100.00

 eigenvalues of (default mixing * dielectric matrix)
  average eigenvalue GAMMA=   0.9186
  0.9186

 Free energy of the ion-electron system (eV)
  ---------------------------------------------------
  alpha Z        PSCENC =      2357.56496352
  Ewald energy   TEWEN  =    -62490.06818248
  -Hartree energ DENC   =    -42952.34496341
  -exchange      EXHF   =         0.00000000
  -V(xc)+E(xc)   XCENC  =      3286.73846827
  PAW double counting   =    112437.83905164  -116135.49861015
  entropy T*S    EENTRO =         0.00000000
  eigenvalues    EBANDS =    -10852.64924740
  atomic energy  EATOM  =    114020.06510763
  Solvation  Ediel_sol  =         0.00000000
  ---------------------------------------------------
  free energy    TOTEN  =      -328.35341240 eV

  energy without entropy =     -328.35341240  energy(sigma->0) =     -328.35341240


--------------------------------------------------------------------------------------------------------




--------------------------------------- Iteration      1(   7)  ---------------------------------------


    POTLOK:  cpu time    0.1173: real time    0.1223
    SETDIJ:  cpu time    0.0128: real time    0.0129
     EDDAV:  cpu time  188.4931: real time  189.7697
 BZINTS: Fermi energy:  4.936069;688.000000 electrons
         Band energy:***********;  BLOECHL correction:  0.000000
       DOS:  cpu time    0.0064: real time    0.0064
    CHARGE:  cpu time    1.4066: real time    1.4167
    MIXING:  cpu time    0.0015: real time    0.0036
    --------------------------------------------
      LOOP:  cpu time  190.0377: real time  191.3316

 eigenvalue-minimisations  : 26624
 total energy-change (2. order) : 0.4388468E+00  (-0.1121777E+00)
 number of electron     688.0000180 magnetization       0.0000000
 augmentation part      282.4724144 magnetization       0.0000000

 Broyden mixing:
  rms(total) = 0.33307E+00    rms(broyden)= 0.33306E+00
  rms(prec ) = 0.35958E+00
  weight for this iteration     100.00

 eigenvalues of (default mixing * dielectric matrix)
  average eigenvalue GAMMA=   1.1407
  1.6630  0.6185

 Free energy of the ion-electron system (eV)
  ---------------------------------------------------
  alpha Z        PSCENC =      2357.56496352
  Ewald energy   TEWEN  =    -62490.06818248
  -Hartree energ DENC   =    -42920.11591153
  -exchange      EXHF   =         0.00000000
  -V(xc)+E(xc)   XCENC  =      3285.99010793
  PAW double counting   =    112356.76187289  -116047.75110803
  entropy T*S    EENTRO =         0.00000000
  eigenvalues    EBANDS =    -10890.36141556
  atomic energy  EATOM  =    114020.06510763
  Solvation  Ediel_sol  =         0.00000000
  ---------------------------------------------------
  free energy    TOTEN  =      -327.91456563 eV

  energy without entropy =     -327.91456563  energy(sigma->0) =     -327.91456563


--------------------------------------------------------------------------------------------------------




--------------------------------------- Iteration      1(   8)  ---------------------------------------


    POTLOK:  cpu time    0.1214: real time    0.1224
    SETDIJ:  cpu time    0.0128: real time    0.0128
     EDDAV:  cpu time  142.2360: real time  143.2270
 BZINTS: Fermi energy:  4.959938;688.000000 electrons
         Band energy:***********;  BLOECHL correction:  0.000000
       DOS:  cpu time    0.0064: real time    0.0064
    CHARGE:  cpu time    1.4001: real time    1.4102
    MIXING:  cpu time    0.0017: real time    0.0671
    --------------------------------------------
      LOOP:  cpu time  143.7784: real time  144.8460

 eigenvalue-minimisations  : 21248
 total energy-change (2. order) : 0.2929499E-01  (-0.7135412E-01)
 number of electron     688.0000179 magnetization       0.0000000
 augmentation part      282.2900566 magnetization       0.0000000

 Broyden mixing:
  rms(total) = 0.22811E+00    rms(broyden)= 0.22810E+00
  rms(prec ) = 0.26980E+00
  weight for this iteration     100.00

 eigenvalues of (default mixing * dielectric matrix)
  average eigenvalue GAMMA=   0.9646
  1.7780  0.5579  0.5579

 Free energy of the ion-electron system (eV)
  ---------------------------------------------------
  alpha Z        PSCENC =      2357.56496352
  Ewald energy   TEWEN  =    -62490.06818248
  -Hartree energ DENC   =    -42943.16549817
  -exchange      EXHF   =         0.00000000
  -V(xc)+E(xc)   XCENC  =      3286.80389629
  PAW double counting   =    112332.35510394  -116026.44599838
  entropy T*S    EENTRO =         0.00000000
  eigenvalues    EBANDS =    -10864.99466299
  atomic energy  EATOM  =    114020.06510763
  Solvation  Ediel_sol  =         0.00000000
  ---------------------------------------------------
  free energy    TOTEN  =      -327.88527064 eV

  energy without entropy =     -327.88527064  energy(sigma->0) =     -327.88527064


--------------------------------------------------------------------------------------------------------




--------------------------------------- Iteration      1(   9)  ---------------------------------------


    POTLOK:  cpu time    0.1195: real time    0.1231
    SETDIJ:  cpu time    0.0128: real time    0.0129
     EDDAV:  cpu time  155.0769: real time  156.1570
 BZINTS: Fermi energy:  4.944224;688.000000 electrons
         Band energy:***********;  BLOECHL correction:  0.000000
       DOS:  cpu time    0.0065: real time    0.0065
    CHARGE:  cpu time    1.4012: real time    1.4113
    MIXING:  cpu time    0.0014: real time    0.0014
    --------------------------------------------
      LOOP:  cpu time  156.6183: real time  157.7123

 eigenvalue-minimisations  : 22528
 total energy-change (2. order) : 0.1904707E-01  (-0.3516387E-01)
 number of electron     688.0000179 magnetization       0.0000000
 augmentation part      282.2173080 magnetization       0.0000000

 Broyden mixing:
  rms(total) = 0.13403E+00    rms(broyden)= 0.13403E+00
  rms(prec ) = 0.14211E+00
  weight for this iteration     100.00

 eigenvalues of (default mixing * dielectric matrix)
  average eigenvalue GAMMA=   0.8854
  1.9413  0.7381  0.5161  0.3460

 Free energy of the ion-electron system (eV)
  ---------------------------------------------------
  alpha Z        PSCENC =      2357.56496352
  Ewald energy   TEWEN  =    -62490.06818248
  -Hartree energ DENC   =    -42939.11847144
  -exchange      EXHF   =         0.00000000
  -V(xc)+E(xc)   XCENC  =      3286.43679027
  PAW double counting   =    112323.12511600  -116017.20896746
  entropy T*S    EENTRO =         0.00000000
  eigenvalues    EBANDS =    -10868.66257961
  atomic energy  EATOM  =    114020.06510763
  Solvation  Ediel_sol  =         0.00000000
  ---------------------------------------------------
  free energy    TOTEN  =      -327.86622357 eV

  energy without entropy =     -327.86622357  energy(sigma->0) =     -327.86622357


--------------------------------------------------------------------------------------------------------




--------------------------------------- Iteration      1(  10)  ---------------------------------------


    POTLOK:  cpu time    0.1203: real time    0.1231
    SETDIJ:  cpu time    0.0127: real time    0.0128
     EDDAV:  cpu time  144.5874: real time  145.6129
 BZINTS: Fermi energy:  4.946610;688.000000 electrons
         Band energy:***********;  BLOECHL correction:  0.000000
       DOS:  cpu time    0.0065: real time    0.0065
    CHARGE:  cpu time    1.4263: real time    1.4361
    MIXING:  cpu time    0.0014: real time    0.0014
    --------------------------------------------
      LOOP:  cpu time  146.1545: real time  147.1928

 eigenvalue-minimisations  : 22784
 total energy-change (2. order) : 0.5861761E-03  (-0.2270342E-02)
 number of electron     688.0000179 magnetization       0.0000000
 augmentation part      282.2022656 magnetization       0.0000000

 Broyden mixing:
  rms(total) = 0.61518E-01    rms(broyden)= 0.61518E-01
  rms(prec ) = 0.63463E-01
  weight for this iteration     100.00

 eigenvalues of (default mixing * dielectric matrix)
  average eigenvalue GAMMA=   0.9834
  1.6839  1.6839  0.6815  0.5245  0.3433

 Free energy of the ion-electron system (eV)
  ---------------------------------------------------
  alpha Z        PSCENC =      2357.56496352
  Ewald energy   TEWEN  =    -62490.06818248
  -Hartree energ DENC   =    -42941.10226920
  -exchange      EXHF   =         0.00000000
  -V(xc)+E(xc)   XCENC  =      3286.52808425
  PAW double counting   =    112311.14887680  -116005.05180307
  entropy T*S    EENTRO =         0.00000000
  eigenvalues    EBANDS =    -10866.95041484
  atomic energy  EATOM  =    114020.06510763
  Solvation  Ediel_sol  =         0.00000000
  ---------------------------------------------------
  free energy    TOTEN  =      -327.86563739 eV

  energy without entropy =     -327.86563739  energy(sigma->0) =     -327.86563739


--------------------------------------------------------------------------------------------------------




--------------------------------------- Iteration      1(  11)  ---------------------------------------


    POTLOK:  cpu time    0.1201: real time    0.1225
    SETDIJ:  cpu time    0.0128: real time    0.0129
     EDDAV:  cpu time  168.4669: real time  169.6200
 BZINTS: Fermi energy:  4.945000;688.000000 electrons
         Band energy:***********;  BLOECHL correction:  0.000000
       DOS:  cpu time    0.0065: real time    0.0065
    CHARGE:  cpu time    1.4000: real time    1.4100
    MIXING:  cpu time    0.0014: real time    0.0014
    --------------------------------------------
      LOOP:  cpu time  170.0078: real time  171.1733

 eigenvalue-minimisations  : 23552
 total energy-change (2. order) :-0.1643847E-02  (-0.6547548E-03)
 number of electron     688.0000179 magnetization       0.0000000
 augmentation part      282.2380757 magnetization       0.0000000

 Broyden mixing:
  rms(total) = 0.29007E-01    rms(broyden)= 0.29007E-01
  rms(prec ) = 0.29585E-01
  weight for this iteration     100.00

 eigenvalues of (default mixing * dielectric matrix)
  average eigenvalue GAMMA=   1.1535
  2.1961  2.1961  0.9627  0.6620  0.5668  0.3372

 Free energy of the ion-electron system (eV)
  ---------------------------------------------------
  alpha Z        PSCENC =      2357.56496352
  Ewald energy   TEWEN  =    -62490.06818248
  -Hartree energ DENC   =    -42938.98379223
  -exchange      EXHF   =         0.00000000
  -V(xc)+E(xc)   XCENC  =      3286.47595078
  PAW double counting   =    112281.80033664  -115975.24593329
  entropy T*S    EENTRO =         0.00000000
  eigenvalues    EBANDS =    -10869.47573181
  atomic energy  EATOM  =    114020.06510763
  Solvation  Ediel_sol  =         0.00000000
  ---------------------------------------------------
  free energy    TOTEN  =      -327.86728124 eV

  energy without entropy =     -327.86728124  energy(sigma->0) =     -327.86728124


--------------------------------------------------------------------------------------------------------




--------------------------------------- Iteration      1(  12)  ---------------------------------------


    POTLOK:  cpu time    0.1185: real time    0.1228
    SETDIJ:  cpu time    0.0130: real time    0.0130
     EDDAV:  cpu time   96.1146: real time   96.8431
 BZINTS: Fermi energy:  4.945535;688.000000 electrons
         Band energy:***********;  BLOECHL correction:  0.000000
       DOS:  cpu time    0.0065: real time    0.0065
    CHARGE:  cpu time    1.4002: real time    1.4109
    MIXING:  cpu time    0.0016: real time    0.0016
    --------------------------------------------
      LOOP:  cpu time   97.6544: real time   98.3981

 eigenvalue-minimisations  : 17408
 total energy-change (2. order) :-0.1103361E-02  (-0.3755277E-03)
 number of electron     688.0000179 magnetization       0.0000000
 augmentation part      282.2223616 magnetization       0.0000000

 Broyden mixing:
  rms(total) = 0.11537E-01    rms(broyden)= 0.11536E-01
  rms(prec ) = 0.12408E-01
  weight for this iteration     100.00

 eigenvalues of (default mixing * dielectric matrix)
  average eigenvalue GAMMA=   1.1212
  2.2588  2.2588  1.0312  0.7007  0.6315  0.6315  0.3358

 Free energy of the ion-electron system (eV)
  ---------------------------------------------------
  alpha Z        PSCENC =      2357.56496352
  Ewald energy   TEWEN  =    -62490.06818248
  -Hartree energ DENC   =    -42940.27659029
  -exchange      EXHF   =         0.00000000
  -V(xc)+E(xc)   XCENC  =      3286.50623653
  PAW double counting   =    112261.71560121  -115955.41845006
  entropy T*S    EENTRO =         0.00000000
  eigenvalues    EBANDS =    -10867.95707066
  atomic energy  EATOM  =    114020.06510763
  Solvation  Ediel_sol  =         0.00000000
  ---------------------------------------------------
  free energy    TOTEN  =      -327.86838460 eV

  energy without entropy =     -327.86838460  energy(sigma->0) =     -327.86838460


--------------------------------------------------------------------------------------------------------




--------------------------------------- Iteration      1(  13)  ---------------------------------------


    POTLOK:  cpu time    0.1165: real time    0.1210
    SETDIJ:  cpu time    0.0141: real time    0.0142
     EDDAV:  cpu time  160.0147: real time  161.1177
 BZINTS: Fermi energy:  4.945005;688.000000 electrons
         Band energy:***********;  BLOECHL correction:  0.000000
       DOS:  cpu time    0.0061: real time    0.0061
    CHARGE:  cpu time    1.4022: real time    1.4115
    MIXING:  cpu time    0.0017: real time    0.0017
    --------------------------------------------
      LOOP:  cpu time  161.5552: real time  162.6723

 eigenvalue-minimisations  : 22528
 total energy-change (2. order) :-0.1261891E-03  (-0.4621964E-04)
 number of electron     688.0000179 magnetization       0.0000000
 augmentation part      282.2270110 magnetization       0.0000000

 Broyden mixing:
  rms(total) = 0.63210E-02    rms(broyden)= 0.63208E-02
  rms(prec ) = 0.67127E-02
  weight for this iteration     100.00

 eigenvalues of (default mixing * dielectric matrix)
  average eigenvalue GAMMA=   1.1161
  2.2724  2.2724  1.0543  1.0543  0.3357  0.6336  0.6336  0.6722

 Free energy of the ion-electron system (eV)
  ---------------------------------------------------
  alpha Z        PSCENC =      2357.56496352
  Ewald energy   TEWEN  =    -62490.06818248
  -Hartree energ DENC   =    -42939.72638808
  -exchange      EXHF   =         0.00000000
  -V(xc)+E(xc)   XCENC  =      3286.49094252
  PAW double counting   =    112257.43687115  -115951.01840376
  entropy T*S    EENTRO =         0.00000000
  eigenvalues    EBANDS =    -10868.61342129
  atomic energy  EATOM  =    114020.06510763
  Solvation  Ediel_sol  =         0.00000000
  ---------------------------------------------------
  free energy    TOTEN  =      -327.86851079 eV

  energy without entropy =     -327.86851079  energy(sigma->0) =     -327.86851079


--------------------------------------------------------------------------------------------------------




--------------------------------------- Iteration      1(  14)  ---------------------------------------


    POTLOK:  cpu time    0.1222: real time    0.1232
    SETDIJ:  cpu time    0.0127: real time    0.0128
     EDDAV:  cpu time  134.1601: real time  135.0984
 BZINTS: Fermi energy:  4.945057;688.000000 electrons
         Band energy:***********;  BLOECHL correction:  0.000000
       DOS:  cpu time    0.0066: real time    0.0066
    CHARGE:  cpu time    1.4019: real time    1.4125
    MIXING:  cpu time    0.0016: real time    0.0017
    --------------------------------------------
      LOOP:  cpu time  135.7051: real time  136.6552

 eigenvalue-minimisations  : 20736
 total energy-change (2. order) :-0.9374127E-04  (-0.2514868E-04)
 number of electron     688.0000179 magnetization       0.0000000
 augmentation part      282.2259192 magnetization       0.0000000

 Broyden mixing:
  rms(total) = 0.35234E-02    rms(broyden)= 0.35233E-02
  rms(prec ) = 0.36588E-02
  weight for this iteration     100.00

 eigenvalues of (default mixing * dielectric matrix)
  average eigenvalue GAMMA=   1.2106
  2.4467  2.4467  1.5252  1.5252  0.3357  0.7326  0.6056  0.6056  0.6719

 Free energy of the ion-electron system (eV)
  ---------------------------------------------------
  alpha Z        PSCENC =      2357.56496352
  Ewald energy   TEWEN  =    -62490.06818248
  -Hartree energ DENC   =    -42939.83882055
  -exchange      EXHF   =         0.00000000
  -V(xc)+E(xc)   XCENC  =      3286.49553801
  PAW double counting   =    112255.13305517  -115948.76371795
  entropy T*S    EENTRO =         0.00000000
  eigenvalues    EBANDS =    -10868.45654787
  atomic energy  EATOM  =    114020.06510763
  Solvation  Ediel_sol  =         0.00000000
  ---------------------------------------------------
  free energy    TOTEN  =      -327.86860453 eV

  energy without entropy =     -327.86860453  energy(sigma->0) =     -327.86860453


--------------------------------------------------------------------------------------------------------




--------------------------------------- Iteration      1(  15)  ---------------------------------------


    POTLOK:  cpu time    0.1207: real time    0.1218
    SETDIJ:  cpu time    0.0128: real time    0.0129
     EDDAV:  cpu time  146.7097: real time  147.7221
 BZINTS: Fermi energy:  4.945033;688.000000 electrons
         Band energy:***********;  BLOECHL correction:  0.000000
       DOS:  cpu time    0.0066: real time    0.0066
    CHARGE:  cpu time    1.4038: real time    1.4132
    MIXING:  cpu time    0.0018: real time    0.0018
    --------------------------------------------
      LOOP:  cpu time  148.2555: real time  149.2783

 eigenvalue-minimisations  : 21504
 total energy-change (2. order) :-0.4950391E-04  (-0.1477127E-04)
 number of electron     688.0000179 magnetization       0.0000000
 augmentation part      282.2257913 magnetization       0.0000000

 Broyden mixing:
  rms(total) = 0.17150E-02    rms(broyden)= 0.17148E-02
  rms(prec ) = 0.18158E-02
  weight for this iteration     100.00

 eigenvalues of (default mixing * dielectric matrix)
  average eigenvalue GAMMA=   1.2152
  2.8028  2.3013  1.8517  1.1453  1.1453  0.3357  0.6155  0.6155  0.7072  0.6312

 Free energy of the ion-electron system (eV)
  ---------------------------------------------------
  alpha Z        PSCENC =      2357.56496352
  Ewald energy   TEWEN  =    -62490.06818248
  -Hartree energ DENC   =    -42939.82051425
  -exchange      EXHF   =         0.00000000
  -V(xc)+E(xc)   XCENC  =      3286.49473266
  PAW double counting   =    112253.73739809  -115947.36186649
  entropy T*S    EENTRO =         0.00000000
  eigenvalues    EBANDS =    -10868.48029271
  atomic energy  EATOM  =    114020.06510763
  Solvation  Ediel_sol  =         0.00000000
  ---------------------------------------------------
  free energy    TOTEN  =      -327.86865404 eV

  energy without entropy =     -327.86865404  energy(sigma->0) =     -327.86865404


--------------------------------------------------------------------------------------------------------




--------------------------------------- Iteration      1(  16)  ---------------------------------------


    POTLOK:  cpu time    0.1217: real time    0.1225
    SETDIJ:  cpu time    0.0128: real time    0.0128
     EDDAV:  cpu time  117.5099: real time  118.3551
 BZINTS: Fermi energy:  4.945024;688.000000 electrons
         Band energy:***********;  BLOECHL correction:  0.000000
       DOS:  cpu time    0.0065: real time    0.0065
    CHARGE:  cpu time    1.4017: real time    1.4114
    MIXING:  cpu time    0.0020: real time    0.0026
    --------------------------------------------
      LOOP:  cpu time  119.0546: real time  119.9111

 eigenvalue-minimisations  : 18944
 total energy-change (2. order) :-0.1224266E-04  (-0.2811404E-05)
 number of electron     688.0000179 magnetization       0.0000000
 augmentation part      282.2267843 magnetization       0.0000000

 Broyden mixing:
  rms(total) = 0.12214E-02    rms(broyden)= 0.12213E-02
  rms(prec ) = 0.12898E-02
  weight for this iteration     100.00

 eigenvalues of (default mixing * dielectric matrix)
  average eigenvalue GAMMA=   1.3221
  3.2477  2.2178  2.2178  1.5345  1.5345  0.3357  0.8974  0.6159  0.6159  0.7050
  0.6211

 Free energy of the ion-electron system (eV)
  ---------------------------------------------------
  alpha Z        PSCENC =      2357.56496352
  Ewald energy   TEWEN  =    -62490.06818248
  -Hartree energ DENC   =    -42939.78092594
  -exchange      EXHF   =         0.00000000
  -V(xc)+E(xc)   XCENC  =      3286.49455903
  PAW double counting   =    112253.42543702  -115947.04354084
  entropy T*S    EENTRO =         0.00000000
  eigenvalues    EBANDS =    -10868.52608422
  atomic energy  EATOM  =    114020.06510763
  Solvation  Ediel_sol  =         0.00000000
  ---------------------------------------------------
  free energy    TOTEN  =      -327.86866628 eV

  energy without entropy =     -327.86866628  energy(sigma->0) =     -327.86866628


--------------------------------------------------------------------------------------------------------




--------------------------------------- Iteration      1(  17)  ---------------------------------------


    POTLOK:  cpu time    0.1202: real time    0.1211
    SETDIJ:  cpu time    0.0126: real time    0.0127
     EDDAV:  cpu time  133.1427: real time  134.0783
 BZINTS: Fermi energy:  4.945016;688.000000 electrons
         Band energy:***********;  BLOECHL correction:  0.000000
       DOS:  cpu time    0.0066: real time    0.0066
    CHARGE:  cpu time    1.3980: real time    1.4086
    MIXING:  cpu time    0.0020: real time    0.0020
    --------------------------------------------
      LOOP:  cpu time  134.6821: real time  135.6294

 eigenvalue-minimisations  : 20480
 total energy-change (2. order) :-0.9978874E-05  (-0.5975671E-05)
 number of electron     688.0000179 magnetization       0.0000000
 augmentation part      282.2261916 magnetization       0.0000000

 Broyden mixing:
  rms(total) = 0.51145E-03    rms(broyden)= 0.51116E-03
  rms(prec ) = 0.54231E-03
  weight for this iteration     100.00

 eigenvalues of (default mixing * dielectric matrix)
  average eigenvalue GAMMA=   1.3864
  4.1473  2.3652  2.3652  1.5887  1.5887  0.9947  0.3357  0.7356  0.6150  0.6150
  0.6779  0.6082

 Free energy of the ion-electron system (eV)
  ---------------------------------------------------
  alpha Z        PSCENC =      2357.56496352
  Ewald energy   TEWEN  =    -62490.06818248
  -Hartree energ DENC   =    -42939.81042733
  -exchange      EXHF   =         0.00000000
  -V(xc)+E(xc)   XCENC  =      3286.49524353
  PAW double counting   =    112253.67223760  -115947.29773717
  entropy T*S    EENTRO =         0.00000000
  eigenvalues    EBANDS =    -10868.48988155
  atomic energy  EATOM  =    114020.06510763
  Solvation  Ediel_sol  =         0.00000000
  ---------------------------------------------------
  free energy    TOTEN  =      -327.86867626 eV

  energy without entropy =     -327.86867626  energy(sigma->0) =     -327.86867626


--------------------------------------------------------------------------------------------------------




--------------------------------------- Iteration      1(  18)  ---------------------------------------


    POTLOK:  cpu time    0.1196: real time    0.1214
    SETDIJ:  cpu time    0.0130: real time    0.0130
     EDDAV:  cpu time  125.4315: real time  126.3313
 BZINTS: Fermi energy:  4.944993;688.000000 electrons
         Band energy:***********;  BLOECHL correction:  0.000000
       DOS:  cpu time    0.0066: real time    0.0066
    CHARGE:  cpu time    1.3915: real time    1.4018
    MIXING:  cpu time    0.0020: real time    0.0020
    --------------------------------------------
      LOOP:  cpu time  126.9641: real time  127.8762

 eigenvalue-minimisations  : 19712
 total energy-change (2. order) :-0.1281340E-05  (-0.9038181E-06)
 number of electron     688.0000179 magnetization       0.0000000
 augmentation part      282.2264054 magnetization       0.0000000

 Broyden mixing:
  rms(total) = 0.39431E-03    rms(broyden)= 0.39422E-03
  rms(prec ) = 0.40732E-03
  weight for this iteration     100.00

 eigenvalues of (default mixing * dielectric matrix)
  average eigenvalue GAMMA=   1.3444
  4.2973  2.4024  2.4024  1.5147  1.5147  1.0645  0.3357  0.7375  0.7375  0.6156
  0.6156  0.6194  0.6194

 Free energy of the ion-electron system (eV)
  ---------------------------------------------------
  alpha Z        PSCENC =      2357.56496352
  Ewald energy   TEWEN  =    -62490.06818248
  -Hartree energ DENC   =    -42939.78775024
  -exchange      EXHF   =         0.00000000
  -V(xc)+E(xc)   XCENC  =      3286.49449676
  PAW double counting   =    112253.84180634  -115947.46354975
  entropy T*S    EENTRO =         0.00000000
  eigenvalues    EBANDS =    -10868.51556931
  atomic energy  EATOM  =    114020.06510763
  Solvation  Ediel_sol  =         0.00000000
  ---------------------------------------------------
  free energy    TOTEN  =      -327.86867754 eV

  energy without entropy =     -327.86867754  energy(sigma->0) =     -327.86867754


--------------------------------------------------------------------------------------------------------




--------------------------------------- Iteration      1(  19)  ---------------------------------------


    POTLOK:  cpu time    0.1215: real time    0.1231
    SETDIJ:  cpu time    0.0127: real time    0.0128
     EDDAV:  cpu time  129.1216: real time  130.0399
 BZINTS: Fermi energy:  4.944991;688.000000 electrons
         Band energy:***********;  BLOECHL correction:  0.000000
       DOS:  cpu time    0.0066: real time    0.0066
    CHARGE:  cpu time    1.4612: real time    1.4720
    MIXING:  cpu time    0.0021: real time    0.0021
    --------------------------------------------
      LOOP:  cpu time  130.7257: real time  131.6565

 eigenvalue-minimisations  : 19968
 total energy-change (2. order) :-0.8012285E-07  (-0.3202459E-07)
 number of electron     688.0000179 magnetization      -0.0000000
 augmentation part      282.2264241 magnetization      -0.0000000

 Broyden mixing:
[...]
   -.418E+02 0.170E+02 -.167E+01   0.427E+02 -.171E+02 0.169E+01   -.850E+00 0.110E+00 -.210E-01   -.100E-04 -.752E-05 0.265E-05
   -.418E+02 0.170E+02 -.167E+01   0.427E+02 -.171E+02 0.169E+01   -.850E+00 0.110E+00 -.210E-01   -.667E-05 -.752E-05 0.355E-05
   -.418E+02 0.170E+02 -.167E+01   0.427E+02 -.171E+02 0.169E+01   -.850E+00 0.110E+00 -.210E-01   -.100E-04 -.750E-05 0.265E-05
   -.418E+02 0.170E+02 -.167E+01   0.427E+02 -.171E+02 0.169E+01   -.850E+00 0.110E+00 -.210E-01   -.667E-05 -.750E-05 0.355E-05
   0.418E+02 0.170E+02 0.167E+01   -.427E+02 -.171E+02 -.169E+01   0.850E+00 0.110E+00 0.210E-01   0.856E-05 -.751E-05 -.310E-05
   0.418E+02 0.170E+02 0.167E+01   -.427E+02 -.171E+02 -.169E+01   0.850E+00 0.110E+00 0.210E-01   0.816E-05 -.750E-05 -.311E-05
   0.418E+02 0.170E+02 0.167E+01   -.427E+02 -.171E+02 -.169E+01   0.850E+00 0.110E+00 0.210E-01   0.856E-05 -.751E-05 -.309E-05
   0.418E+02 0.170E+02 0.167E+01   -.427E+02 -.171E+02 -.169E+01   0.850E+00 0.110E+00 0.210E-01   0.816E-05 -.750E-05 -.310E-05
   0.541E-07 -.291E+02 0.442E-04   0.684E-06 0.299E+02 0.326E-03   -.159E-21 -.754E+00 0.000E+00   -.271E-06 -.138E-04 -.169E-05
   -.554E-07 -.291E+02 -.445E-04   -.684E-06 0.299E+02 -.326E-03   -.794E-22 -.754E+00 0.000E+00   0.271E-06 -.138E-04 0.169E-05
   0.541E-07 -.291E+02 0.442E-04   0.684E-06 0.299E+02 0.326E-03   0.000E+00 -.754E+00 0.000E+00   -.271E-06 -.138E-04 -.169E-05
   -.554E-07 -.291E+02 -.445E-04   -.684E-06 0.299E+02 -.326E-03   -.106E-21 -.754E+00 0.000E+00   0.271E-06 -.138E-04 0.169E-05
   0.172E-08 0.553E+02 0.225E-06   0.338E-13 -.563E+02 -.355E-13   -.108E-20 0.967E+00 0.117E-20   -.101E-07 0.667E-05 0.237E-09
   0.171E-08 0.553E+02 0.225E-06   0.355E-13 -.563E+02 0.000E+00   0.103E-20 0.967E+00 0.188E-21   0.102E-07 0.666E-05 -.239E-09
   0.172E-08 0.553E+02 0.225E-06   0.142E-13 -.563E+02 -.711E-14   -.942E-21 0.967E+00 0.119E-20   -.101E-07 0.667E-05 0.237E-09
   0.171E-08 0.553E+02 0.225E-06   0.284E-13 -.563E+02 0.284E-13   0.801E-21 0.967E+00 0.404E-21   0.102E-07 0.666E-05 -.239E-09
   0.355E+01 -.159E+02 0.809E+00   -.351E+01 0.153E+02 -.824E+00   -.444E-01 0.648E+00 0.118E-01   0.874E-05 -.293E-04 -.994E-06
   0.355E+01 -.159E+02 0.809E+00   -.351E+01 0.153E+02 -.823E+00   -.444E-01 0.648E+00 0.118E-01   0.136E-04 -.291E-04 -.506E-05
   0.355E+01 -.159E+02 0.809E+00   -.351E+01 0.153E+02 -.824E+00   -.444E-01 0.648E+00 0.118E-01   0.874E-05 -.292E-04 -.100E-05
   0.355E+01 -.159E+02 0.809E+00   -.351E+01 0.153E+02 -.823E+00   -.444E-01 0.648E+00 0.118E-01   0.136E-04 -.290E-04 -.507E-05
   -.355E+01 -.159E+02 -.809E+00   0.351E+01 0.153E+02 0.824E+00   0.444E-01 0.648E+00 -.118E-01   -.879E-05 -.293E-04 0.995E-06
   -.355E+01 -.159E+02 -.809E+00   0.351E+01 0.153E+02 0.823E+00   0.444E-01 0.648E+00 -.118E-01   -.135E-04 -.291E-04 0.506E-05
   -.355E+01 -.159E+02 -.809E+00   0.351E+01 0.153E+02 0.824E+00   0.444E-01 0.648E+00 -.118E-01   -.879E-05 -.292E-04 0.100E-05
   -.355E+01 -.159E+02 -.809E+00   0.351E+01 0.153E+02 0.823E+00   0.444E-01 0.648E+00 -.118E-01   -.135E-04 -.290E-04 0.507E-05
   0.355E+01 -.159E+02 0.809E+00   -.351E+01 0.153E+02 -.824E+00   -.444E-01 0.648E+00 0.118E-01   0.150E-04 -.290E-04 0.405E-06
   0.355E+01 -.159E+02 0.809E+00   -.351E+01 0.153E+02 -.823E+00   -.444E-01 0.648E+00 0.118E-01   0.734E-05 -.292E-04 -.646E-05
   0.355E+01 -.159E+02 0.809E+00   -.351E+01 0.153E+02 -.824E+00   -.444E-01 0.648E+00 0.118E-01   0.150E-04 -.290E-04 0.397E-06
   0.355E+01 -.159E+02 0.809E+00   -.351E+01 0.153E+02 -.823E+00   -.444E-01 0.648E+00 0.118E-01   0.734E-05 -.291E-04 -.647E-05
   -.355E+01 -.159E+02 -.809E+00   0.351E+01 0.153E+02 0.824E+00   0.444E-01 0.648E+00 -.118E-01   -.150E-04 -.290E-04 -.404E-06
   -.355E+01 -.159E+02 -.809E+00   0.351E+01 0.153E+02 0.823E+00   0.444E-01 0.648E+00 -.118E-01   -.729E-05 -.292E-04 0.646E-05
   -.355E+01 -.159E+02 -.809E+00   0.351E+01 0.153E+02 0.824E+00   0.444E-01 0.648E+00 -.118E-01   -.150E-04 -.290E-04 -.395E-06
   -.355E+01 -.159E+02 -.809E+00   0.351E+01 0.153E+02 0.823E+00   0.444E-01 0.648E+00 -.118E-01   -.729E-05 -.291E-04 0.646E-05
   -.429E+01 -.159E+02 0.992E+00   0.420E+01 0.150E+02 -.102E+01   0.857E-01 0.854E+00 0.223E-01   0.104E-04 -.402E-05 -.193E-05
   -.429E+01 -.159E+02 0.991E+00   0.420E+01 0.150E+02 -.102E+01   0.857E-01 0.854E+00 0.223E-01   0.782E-05 -.417E-05 0.128E-05
   -.429E+01 -.159E+02 0.992E+00   0.420E+01 0.150E+02 -.102E+01   0.857E-01 0.854E+00 0.223E-01   0.104E-04 -.398E-05 -.192E-05
   -.429E+01 -.159E+02 0.991E+00   0.420E+01 0.150E+02 -.102E+01   0.857E-01 0.854E+00 0.223E-01   0.782E-05 -.413E-05 0.129E-05
   0.429E+01 -.159E+02 -.992E+00   -.420E+01 0.150E+02 0.102E+01   -.857E-01 0.854E+00 -.223E-01   -.104E-04 -.402E-05 0.193E-05
   0.429E+01 -.159E+02 -.991E+00   -.420E+01 0.150E+02 0.102E+01   -.857E-01 0.854E+00 -.223E-01   -.778E-05 -.417E-05 -.129E-05
   0.429E+01 -.159E+02 -.992E+00   -.420E+01 0.150E+02 0.102E+01   -.857E-01 0.854E+00 -.223E-01   -.104E-04 -.398E-05 0.192E-05
   0.429E+01 -.159E+02 -.991E+00   -.420E+01 0.150E+02 0.102E+01   -.857E-01 0.854E+00 -.223E-01   -.778E-05 -.413E-05 -.129E-05
   -.429E+01 -.159E+02 0.992E+00   0.420E+01 0.150E+02 -.102E+01   0.857E-01 0.854E+00 0.223E-01   0.662E-05 -.420E-05 -.310E-05
   -.429E+01 -.159E+02 0.991E+00   0.420E+01 0.150E+02 -.102E+01   0.857E-01 0.854E+00 0.223E-01   0.116E-04 -.408E-05 0.245E-05
   -.429E+01 -.159E+02 0.992E+00   0.420E+01 0.150E+02 -.102E+01   0.857E-01 0.854E+00 0.223E-01   0.662E-05 -.417E-05 -.309E-05
   -.429E+01 -.159E+02 0.991E+00   0.420E+01 0.150E+02 -.102E+01   0.857E-01 0.854E+00 0.223E-01   0.116E-04 -.405E-05 0.246E-05
   0.429E+01 -.159E+02 -.992E+00   -.420E+01 0.150E+02 0.102E+01   -.857E-01 0.854E+00 -.223E-01   -.665E-05 -.420E-05 0.310E-05
   0.429E+01 -.159E+02 -.991E+00   -.420E+01 0.150E+02 0.102E+01   -.857E-01 0.854E+00 -.223E-01   -.115E-04 -.408E-05 -.245E-05
   0.429E+01 -.159E+02 -.992E+00   -.420E+01 0.150E+02 0.102E+01   -.857E-01 0.854E+00 -.223E-01   -.665E-05 -.417E-05 0.309E-05
   0.429E+01 -.159E+02 -.991E+00   -.420E+01 0.150E+02 0.102E+01   -.857E-01 0.854E+00 -.223E-01   -.115E-04 -.405E-05 -.246E-05
 -----------------------------------------------------------------------------------------------
   -.293E-06 -.275E+02 -.193E-04   0.363E-12 -.178E-13 -.691E-12   0.888E-15 0.275E+02 -.416E-16   -.886E-11 -.709E-03 -.120E-10
 
 
 POSITION                                       TOTAL-FORCE (eV/Angst)
 -----------------------------------------------------------------------------------
      1.35870      1.28288      1.33784        -0.000122     -0.001996      0.000544
      6.61441      1.28288      1.46629        -0.000122     -0.001996      0.000544
      1.35870      6.54252      1.33784        -0.000122     -0.001996      0.000544
      6.61441      6.54252      1.46629        -0.000122     -0.001996      0.000544
      3.96062      3.91270      1.39221         0.000122     -0.001996     -0.000544
      9.21634      3.91270      1.52066         0.000122     -0.001996     -0.000544
      3.96062      9.17234      1.39221         0.000122     -0.001996     -0.000544
      9.21634      9.17234      1.52066         0.000122     -0.001996     -0.000544
      1.53647      3.91091      9.13772        -0.000000     -0.001168     -0.000000
      6.79220      3.91091      9.26617        -0.000000     -0.001168     -0.000000
      1.53647      9.17055      9.13772        -0.000000     -0.001168     -0.000000
      6.79220      9.17055      9.26617        -0.000000     -0.001168     -0.000000
      4.16433      1.30339      9.20195        -0.000000      0.000417     -0.000000
      9.42006      1.30339      9.33040        -0.000000      0.000417     -0.000000
      4.16433      6.56303      9.20195        -0.000000      0.000417     -0.000000
      9.42006      6.56303      9.33040        -0.000000      0.000417     -0.000000
      1.45991      1.28288      6.53119         0.000122     -0.001996     -0.000544
      6.71564      1.28288      6.65965         0.000122     -0.001996     -0.000544
      1.45991      6.54252      6.53119         0.000122     -0.001996     -0.000544
      6.71564      6.54252      6.65965         0.000122     -0.001996     -0.000544
      4.11372      3.91270      6.60527        -0.000122     -0.001996      0.000544
      9.36944      3.91270      6.73372        -0.000122     -0.001996      0.000544
      4.11372      9.17234      6.60527        -0.000122     -0.001996      0.000544
      9.36944      9.17234      6.73372        -0.000122     -0.001996      0.000544
      4.03717      1.28109      3.99874        -0.000000     -0.001168     -0.000000
      9.29289      1.28109      4.12719        -0.000000     -0.001168     -0.000000
      4.03717      6.54073      3.99874        -0.000000     -0.001168     -0.000000
      9.29289      6.54073      4.12719        -0.000000     -0.001168     -0.000000
      1.40931      3.93321      3.93452        -0.000000      0.000417     -0.000000
      6.66503      3.93321      4.06297        -0.000000      0.000417     -0.000000
      1.40931      9.19285      3.93452        -0.000000      0.000417     -0.000000
      6.66503      9.19285      4.06297        -0.000000      0.000417     -0.000000
     10.62917      0.02824      5.45995        -0.001175      0.000409     -0.002439
      5.37344      0.02824      5.33150        -0.001175      0.000409     -0.002439
     10.62917      5.28788      5.45995        -0.001175      0.000409     -0.002439
      5.37344      5.28788      5.33150        -0.001175      0.000409     -0.002439
      2.70089      0.02824      2.66599         0.001175      0.000409      0.002439
      7.95662      0.02824      2.79444         0.001175      0.000409      0.002439
      2.70089      5.28788      2.66599         0.001175      0.000409      0.002439
      7.95662      5.28788      2.79444         0.001175      0.000409      0.002439
      2.61841      2.65806      0.06407        -0.001175      0.000409     -0.002439
      7.87414      2.65806      0.19252        -0.001175      0.000409     -0.002439
      2.61841      7.91770      0.06407        -0.001175      0.000409     -0.002439
      7.87414      7.91770      0.19252        -0.001175      0.000409     -0.002439
      0.20020      2.65806      7.80497         0.001175      0.000409      0.002439
      5.45592      2.65806      7.93342         0.001175      0.000409      0.002439
      0.20020      7.91770      7.80497         0.001175      0.000409      0.002439
      5.45592      7.91770      7.93342         0.001175      0.000409      0.002439
     10.50632      0.02646      0.25861         0.000205      0.001962     -0.003408
      5.25060      0.02646      0.13016         0.000205      0.001962     -0.003408
     10.50632      5.28610      0.25861         0.000205      0.001962     -0.003408
      5.25060      5.28610      0.13016         0.000205      0.001962     -0.003408
      2.82374      0.02646      7.86733        -0.000205      0.001962      0.003408
      8.07946      0.02646      7.99578        -0.000205      0.001962      0.003408
      2.82374      5.28610      7.86733        -0.000205      0.001962      0.003408
      8.07946      5.28610      7.99578        -0.000205      0.001962      0.003408
      2.74990      2.65628      5.26914         0.000205      0.001962     -0.003408
      8.00562      2.65628      5.39759         0.000205      0.001962     -0.003408
      2.74990      7.91592      5.26914         0.000205      0.001962     -0.003408
      8.00562      7.91592      5.39759         0.000205      0.001962     -0.003408
      0.06871      2.65628      2.59990        -0.000205      0.001962      0.003408
      5.32443      2.65628      2.72835        -0.000205      0.001962      0.003408
      0.06871      7.91592      2.59990        -0.000205      0.001962      0.003408
      5.32443      7.91592      2.72835        -0.000205      0.001962      0.003408
 -----------------------------------------------------------------------------------
    total drift:                               -0.000000      0.002483     -0.000019


--------------------------------------------------------------------------------------------------------



  FREE ENERGIE OF THE ION-ELECTRON SYSTEM (eV)
  ---------------------------------------------------
  free  energy   TOTEN  =      -327.86867771 eV

  energy  without entropy=     -327.86867771  energy(sigma->0) =     -327.86867771
 


--------------------------------------------------------------------------------------------------------


    POTLOK:  cpu time    0.1315: real time    0.1321


--------------------------------------------------------------------------------------------------------


 writing wavefunctions
     LOOP+:  cpu time 3273.2561: real time 3296.8719
    4ORBIT:  cpu time    0.0000: real time    0.0000
 


 total charge     
 
# of ion       s       p       d       tot
------------------------------------------
    1        1.314   2.410   0.000   3.723
    2        1.314   2.410   0.000   3.723
    3        1.314   2.410   0.000   3.723
    4        1.314   2.410   0.000   3.723
    5        1.314   2.410   0.000   3.723
    6        1.314   2.410   0.000   3.723
    7        1.314   2.410   0.000   3.723
    8        1.314   2.410   0.000   3.723
    9        1.315   2.407   0.000   3.722
   10        1.315   2.407   0.000   3.721
   11        1.315   2.407   0.000   3.722
   12        1.315   2.407   0.000   3.721
   13        1.313   2.412   0.000   3.725
   14        1.313   2.412   0.000   3.725
   15        1.313   2.412   0.000   3.725
   16        1.313   2.412   0.000   3.725
   17        1.314   2.410   0.000   3.723
   18        1.314   2.410   0.000   3.723
   19        1.314   2.410   0.000   3.723
   20        1.314   2.410   0.000   3.723
   21        1.314   2.410   0.000   3.723
   22        1.314   2.410   0.000   3.723
   23        1.314   2.410   0.000   3.723
   24        1.314   2.410   0.000   3.723
   25        1.315   2.407   0.000   3.721
   26        1.315   2.407   0.000   3.721
   27        1.315   2.407   0.000   3.721
   28        1.315   2.407   0.000   3.721
   29        1.313   2.412   0.000   3.725
   30        1.313   2.412   0.000   3.725
   31        1.313   2.412   0.000   3.725
   32        1.313   2.412   0.000   3.725
   33        0.259   6.202   8.917  15.378
   34        0.259   6.202   8.917  15.378
   35        0.259   6.202   8.917  15.378
   36        0.259   6.202   8.917  15.378
   37        0.259   6.202   8.917  15.378
   38        0.259   6.202   8.917  15.378
   39        0.259   6.202   8.917  15.378
   40        0.259   6.202   8.917  15.378
   41        0.259   6.202   8.917  15.378
   42        0.259   6.202   8.917  15.378
   43        0.259   6.202   8.917  15.378
   44        0.259   6.202   8.917  15.378
   45        0.259   6.202   8.917  15.378
   46        0.259   6.202   8.917  15.378
   47        0.259   6.202   8.917  15.378
   48        0.259   6.202   8.917  15.378
   49        0.350   6.350   5.821  12.521
   50        0.350   6.350   5.821  12.521
   51        0.350   6.350   5.821  12.521
   52        0.350   6.350   5.821  12.521
   53        0.350   6.350   5.821  12.521
   54        0.350   6.350   5.821  12.521
   55        0.350   6.350   5.821  12.521
   56        0.350   6.350   5.821  12.521
   57        0.350   6.350   5.821  12.521
   58        0.350   6.350   5.821  12.521
   59        0.350   6.350   5.821  12.521
   60        0.350   6.350   5.821  12.521
   61        0.350   6.350   5.821  12.521
   62        0.350   6.350   5.821  12.521
   63        0.350   6.350   5.821  12.521
   64        0.350   6.350   5.821  12.521
--------------------------------------------------
tot         51.784 277.934 235.795 565.513
 


 magnetization (x)
 
# of ion       s       p       d       tot
------------------------------------------
    1       -0.000  -0.012   0.000  -0.012
    2       -0.000  -0.012   0.000  -0.012
    3       -0.000  -0.012   0.000  -0.012
    4       -0.000  -0.012   0.000  -0.012
    5        0.000   0.012   0.000   0.012
    6        0.000   0.012   0.000   0.012
    7        0.000   0.012   0.000   0.012
    8        0.000   0.012   0.000   0.012
    9        0.000  -0.000   0.000  -0.000
   10       -0.000   0.000   0.000   0.000
   11        0.000  -0.000   0.000  -0.000
   12       -0.000   0.000   0.000   0.000
   13       -0.000   0.000   0.000   0.000
   14        0.000  -0.000   0.000  -0.000
   15       -0.000   0.000   0.000   0.000
   16        0.000  -0.000   0.000  -0.000
   17        0.000   0.012   0.000   0.012
   18        0.000   0.012   0.000   0.012
   19        0.000   0.012   0.000   0.012
   20        0.000   0.012   0.000   0.012
   21       -0.000  -0.012   0.000  -0.012
   22       -0.000  -0.012   0.000  -0.012
   23       -0.000  -0.012   0.000  -0.012
   24       -0.000  -0.012   0.000  -0.012
   25        0.000  -0.000   0.000  -0.000
   26       -0.000   0.000   0.000   0.000
   27        0.000  -0.000   0.000  -0.000
   28       -0.000   0.000   0.000   0.000
   29       -0.000   0.000   0.000   0.000
   30       -0.000  -0.000   0.000  -0.000
   31       -0.000   0.000   0.000   0.000
   32        0.000  -0.000   0.000  -0.000
   33        0.000   0.001  -0.001  -0.000
   34        0.000   0.001  -0.001  -0.000
   35        0.000   0.001  -0.001  -0.000
   36        0.000   0.001  -0.001  -0.000
   37       -0.000  -0.001   0.001   0.000
   38       -0.000  -0.001   0.001   0.000
   39       -0.000  -0.001   0.001   0.000
   40       -0.000  -0.001   0.001   0.000
   41        0.000   0.001  -0.001  -0.000
   42        0.000   0.001  -0.001  -0.000
   43        0.000   0.001  -0.001  -0.000
   44        0.000   0.001  -0.001  -0.000
   45       -0.000  -0.001   0.001   0.000
   46       -0.000  -0.001   0.001   0.000
   47       -0.000  -0.001   0.001   0.000
   48       -0.000  -0.001   0.001   0.000
   49        0.020   0.054   3.670   3.743
   50        0.020   0.054   3.670   3.743
   51        0.020   0.054   3.670   3.743
   52        0.020   0.054   3.670   3.743
   53       -0.020  -0.054  -3.670  -3.743
   54       -0.020  -0.054  -3.670  -3.743
   55       -0.020  -0.054  -3.670  -3.743
   56       -0.020  -0.054  -3.670  -3.743
   57        0.020   0.054   3.670   3.743
   58        0.020   0.054   3.670   3.743
   59        0.020   0.054   3.670   3.743
   60        0.020   0.054   3.670   3.743
   61       -0.020  -0.054  -3.670  -3.743
   62       -0.020  -0.054  -3.670  -3.743
   63       -0.020  -0.054  -3.670  -3.743
   64       -0.020  -0.054  -3.670  -3.743
--------------------------------------------------
tot          0.000  -0.000   0.000   0.000
 
 BZINTS: Fermi energy:  4.944987;688.000000 electrons
         Band energy:***********;  BLOECHL correction:  0.000000

 total amount of memory used by VASP MPI-rank0   349631. kBytes
=======================================================================

   base      :      30000. kBytes
   nonl-proj :     217907. kBytes
   fftplans  :       4588. kBytes
   grid      :      69719. kBytes
   one-center:       1990. kBytes
   wavefun   :      25427. kBytes
 
  
  
 General timing and accounting informations for this job:
 ========================================================
  
                  Total CPU time used (sec):     3332.261
                            User time (sec):     3320.929
                          System time (sec):       11.333
                         Elapsed time (sec):     3357.326
  
                   Maximum memory used (kb):      725440.
                   Average memory used (kb):           0.
  
                          Minor page faults:       489824
                          Major page faults:         5754
                 Voluntary context switches:         7011
