 vasp.5.4.4.18Apr17-6-g9f103f2a35 (build Oct 20 2023 20:50:24) complex          
  
 executed on                 FRAM date 2024.03.23  01:51:48
 running on  256 total cores
 distrk:  each k-point on  256 cores,    1 groups
 distr:  one band on NCORES_PER_BAND=   1 cores,  256 groups


--------------------------------------------------------------------------------------------------------


 INCAR:
 POTCAR:    PAW_PBE S 06Sep2000                   
 POTCAR:     PAW_PBE Cu_pv 06Sep2000              
 POTCAR:     PAW_PBE Fe_pv 02Aug2007              

 ----------------------------------------------------------------------------- 
|                                                                             |
|           W    W    AA    RRRRR   N    N  II  N    N   GGGG   !!!           |
|           W    W   A  A   R    R  NN   N  II  NN   N  G    G  !!!           |
|           W    W  A    A  R    R  N N  N  II  N N  N  G       !!!           |
|           W WW W  AAAAAA  RRRRR   N  N N  II  N  N N  G  GGG   !            |
|           WW  WW  A    A  R   R   N   NN  II  N   NN  G    G                |
|           W    W  A    A  R    R  N    N  II  N    N   GGGG   !!!           |
|                                                                             |
|      For optimal performance we recommend to set                            |
|        NCORE= 4 - approx SQRT( number of cores)                             |
|      NCORE specifies how many cores store one orbital (NPAR=cpu/NCORE).     |
|      This setting can  greatly improve the performance of VASP for DFT.     |
|      The default,   NCORE=1            might be grossly inefficient         |
|      on modern multi-core architectures or massively parallel machines.     |
|      Do your own testing !!!!                                               |
|      Unfortunately you need to use the default for GW and RPA calculations. |
|      (for HF NCORE is supported but not extensively tested yet)             |
|                                                                             |
 ----------------------------------------------------------------------------- 

 POTCAR:    PAW_PBE S 06Sep2000                   
   SHA256 =  0fc7481fb0695f01bdc6462160264c5c84044ae9ec85a907d398b887a2bc3132 S/
   COPYR  = (c) Copyright 06Sep2000 Georg Kresse                                
   COPYR  = This file is part of the software VASP. Any use, copying, and all ot
   COPYR  = If you do not have a valid VASP license, you may not use, copy or di
   VRHFIN =S : s2p4                                                             
   LEXCH  = PE                                                                  
   EATOM  =   276.8230 eV,   20.3459 Ry                                         
                                                                                
   TITEL  = PAW_PBE S 06Sep2000                                                 
   LULTRA =        F    use ultrasoft PP ?                                      
   IUNSCR =        1    unscreen: 0-lin 1-nonlin 2-no                           
   RPACOR =    1.500    partial core radius                                     
   POMASS =   32.066; ZVAL   =    6.000    mass and valenz                      
   RCORE  =    1.900    outmost cutoff radius                                   
   RWIGS  =    2.200; RWIGS  =    1.164    wigner-seitz radius (au A)           
   ENMAX  =  258.689; ENMIN  =  194.016 eV                                      
   ICORE  =        2    local potential                                         
   LCOR   =        T    correct aug charges                                     
   LPAW   =        T    paw PP                                                  
   EAUG   =  335.092                                                            
   DEXC   =    0.000                                                            
   RMAX   =    1.942    core radius for proj-oper                               
   RAUG   =    1.300    factor for augmentation sphere                          
   RDEP   =    1.954    radius for radial grids                                 
   RDEPT  =    1.744    core radius for aug-charge                              
                                                                                
   Atomic configuration                                                         
    6 entries                                                                   
     n  l   j            E        occ.                                          
     1  0  0.50     -2405.8406   2.0000                                         
     2  0  0.50      -211.7007   2.0000                                         
     2  1  1.50      -156.4958   6.0000                                         
     3  0  0.50       -17.2562   2.0000                                         
     3  1  0.50        -7.0085   4.0000                                         
     3  2  1.50        -6.8029   0.0000                                         
   Description                                                                  
     l       E           TYP  RCUT    TYP  RCUT                                 
     0    -17.2561641     23  1.900                                             
     0    -15.8743224     23  1.900                                             
     1     -7.0085400     23  1.900                                             
     1     -2.7779785     23  1.900                                             
     2     -6.8029130     23  1.900                                             
  local pseudopotential read in
  partial core-charges read in
  partial kinetic energy density read in
  atomic valenz-charges read in
  non local Contribution for L=           0  read in
    real space projection operators read in
  non local Contribution for L=           0  read in
    real space projection operators read in
  non local Contribution for L=           1  read in
    real space projection operators read in
  non local Contribution for L=           1  read in
    real space projection operators read in
    PAW grid and wavefunctions read in
 
   number of l-projection  operators is LMAX  =           4
   number of lm-projection operators is LMMAX =           8
 
 POTCAR:     PAW_PBE Cu_pv 06Sep2000              
   SHA256 =  cb7b504e2ea725fe1f25c85a9ac77d4012ce94cd394135b722c4e25ec297f1cb Cu
   COPYR  = (c) Copyright 06Sep2000 Georg Kresse                                
   COPYR  = This file is part of the software VASP. Any use, copying, and all ot
   COPYR  = If you do not have a valid VASP license, you may not use, copy or di
   VRHFIN =Cu: d10 p1                                                           
   LEXCH  = PE                                                                  
   EATOM  =  4120.1201 eV,  302.8203 Ry                                         
                                                                                
   TITEL  = PAW_PBE Cu_pv 06Sep2000                                             
   LULTRA =        F    use ultrasoft PP ?                                      
   IUNSCR =        1    unscreen: 0-lin 1-nonlin 2-no                           
   RPACOR =    1.500    partial core radius                                     
   POMASS =   63.546; ZVAL   =   17.000    mass and valenz                      
   RCORE  =    2.000    outmost cutoff radius                                   
   RWIGS  =    2.000; RWIGS  =    1.058    wigner-seitz radius (au A)           
   ENMAX  =  368.648; ENMIN  =  276.486 eV                                      
   RCLOC  =    1.304    cutoff for local pot                                    
   LCOR   =        T    correct aug charges                                     
   LPAW   =        T    paw PP                                                  
   EAUG   =  758.233                                                            
   DEXC   =    0.000                                                            
   RMAX   =    2.046    core radius for proj-oper                               
   RAUG   =    1.300    factor for augmentation sphere                          
   RDEP   =    2.025    radius for radial grids                                 
   RDEPT  =    1.558    core radius for aug-charge                              
                                                                                
   Atomic configuration                                                         
    8 entries                                                                   
     n  l   j            E        occ.                                          
     1  0  0.50     -8850.2467   2.0000                                         
     2  0  0.50     -1062.3498   2.0000                                         
     2  1  1.50      -916.8226   6.0000                                         
     3  0  0.50      -114.6929   2.0000                                         
     3  1  1.50       -72.1325   6.0000                                         
     3  2  2.50        -5.0394  10.0000                                         
     4  0  0.50        -4.6097   1.0000                                         
     4  3  2.50        -1.3606   0.0000                                         
   Description                                                                  
     l       E           TYP  RCUT    TYP  RCUT                                 
     1    -72.1324777     23  1.700                                             
     1     -1.3605826     23  1.700                                             
     2     -5.0393776     23  2.000                                             
     2     -6.3999602     23  2.000                                             
     0     -4.6097062     23  1.800                                             
     0     14.1620818     23  1.800                                             
  local pseudopotential read in
  partial core-charges read in
  partial kinetic energy density read in
  atomic valenz-charges read in
  non local Contribution for L=           1  read in
    real space projection operators read in
  non local Contribution for L=           1  read in
    real space projection operators read in
  non local Contribution for L=           2  read in
    real space projection operators read in
  non local Contribution for L=           2  read in
    real space projection operators read in
  non local Contribution for L=           0  read in
    real space projection operators read in
  non local Contribution for L=           0  read in
    real space projection operators read in
    PAW grid and wavefunctions read in
 
   number of l-projection  operators is LMAX  =           6
   number of lm-projection operators is LMMAX =          18
 
 POTCAR:     PAW_PBE Fe_pv 02Aug2007              
   SHA256 =  5d22e414b1f82158bf2c7ecb8b97b28fd0923e48cadc1c3bf74d524558f5dd32 Fe
   COPYR  = (c) Copyright 02Aug2007 Georg Kresse                                
   COPYR  = This file is part of the software VASP. Any use, copying, and all ot
   COPYR  = If you do not have a valid VASP license, you may not use, copy or di
   VRHFIN =Fe:  3pd7s1                                                          
   LEXCH  = PE                                                                  
   EATOM  =  2457.4239 eV,  180.6156 Ry                                         
                                                                                
   TITEL  = PAW_PBE Fe_pv 02Aug2007                                             
   LULTRA =        F    use ultrasoft PP ?                                      
   IUNSCR =        1    unscreen: 0-lin 1-nonlin 2-no                           
   RPACOR =    1.750    partial core radius                                     
   POMASS =   55.847; ZVAL   =   14.000    mass and valenz                      
   RCORE  =    2.200    outmost cutoff radius                                   
   RWIGS  =    2.200; RWIGS  =    1.164    wigner-seitz radius (au A)           
   ENMAX  =  293.238; ENMIN  =  219.928 eV                                      
   ICORE  =        3    local potential                                         
   LCOR   =        T    correct aug charges                                     
   LPAW   =        T    paw PP                                                  
   EAUG   =  578.342                                                            
   DEXC   =    0.000                                                            
   RMAX   =    2.249    core radius for proj-oper                               
   RAUG   =    1.300    factor for augmentation sphere                          
   RDEP   =    2.296    radius for radial grids                                 
   RDEPT  =    1.766    core radius for aug-charge                              
                                                                                
   Atomic configuration                                                         
    8 entries                                                                   
     n  l   j            E        occ.                                          
     1  0  0.50     -6993.8440   2.0000                                         
     2  0  0.50      -814.6047   2.0000                                         
     2  1  1.50      -693.3689   6.0000                                         
     3  0  0.50       -89.4732   2.0000                                         
     3  1  1.50       -55.6373   6.0000                                         
     3  2  2.50        -3.8151   7.0000                                         
     4  0  0.50        -4.2551   1.0000                                         
     4  3  2.50        -1.3606   0.0000                                         
   Description                                                                  
     l       E           TYP  RCUT    TYP  RCUT                                 
     1    -55.6372668     23  2.000                                             
     1     -5.4423304     23  2.000                                             
     2     -3.8151096     23  2.200                                             
     2     -5.1756922     23  2.200                                             
     0     -4.2550951     23  2.200                                             
     0     27.2116520     23  2.200                                             
     3     -1.3605826     23  2.200                                             
  local pseudopotential read in
  partial core-charges read in
  partial kinetic energy density read in
  atomic valenz-charges read in
  non local Contribution for L=           1  read in
    real space projection operators read in
  non local Contribution for L=           1  read in
    real space projection operators read in
  non local Contribution for L=           2  read in
    real space projection operators read in
  non local Contribution for L=           2  read in
    real space projection operators read in
  non local Contribution for L=           0  read in
    real space projection operators read in
  non local Contribution for L=           0  read in
    real space projection operators read in
    PAW grid and wavefunctions read in
 
   number of l-projection  operators is LMAX  =           6
   number of lm-projection operators is LMMAX =          18
 

 ----------------------------------------------------------------------------- 
|                                                                             |
|  ADVICE TO THIS USER RUNNING 'VASP/VAMP'   (HEAR YOUR MASTER'S VOICE ...):  |
|                                                                             |
|      You have a (more or less) 'large supercell' and for larger cells       |
|      it might be more efficient to use real space projection opertators     |
|      So try LREAL= Auto  in the INCAR   file.                               |
|      Mind:          For very  accurate calculation you might also keep the  |
|      reciprocal projection scheme          (i.e. LREAL=.FALSE.)             |
|                                                                             |
 ----------------------------------------------------------------------------- 


 ----------------------------------------------------------------------------- 
|                                                                             |
|  ADVICE TO THIS USER RUNNING 'VASP/VAMP'   (HEAR YOUR MASTER'S VOICE ...):  |
|                                                                             |
|      You enforced a specific xc-type in the INCAR file,                     |
|      a different type was found on the POTCAR file                          |
|          I HOPE YOU KNOW, WHAT YOU ARE  DOING                               |
|                                                                             |
 ----------------------------------------------------------------------------- 

  PAW_PBE S 06Sep2000                   :
 energy of atom  1       EATOM= -276.8230
 kinetic energy error for atom=    0.0007 (will be added to EATOM!!)
   PAW_PBE Cu_pv 06Sep2000              :
 energy of atom  2       EATOM=-4120.1201
 kinetic energy error for atom=    0.0094 (will be added to EATOM!!)
   PAW_PBE Fe_pv 02Aug2007              :
 energy of atom  3       EATOM=-2457.4239
 kinetic energy error for atom=    0.0025 (will be added to EATOM!!)
 
 
 POSCAR: generated by phonopy                    
  positions in direct lattice
  velocities in cartesian coordinates
 exchange correlation table for  LEXCH =       14
   RHO(1)=    0.500       N(1)  =     2000
   RHO(2)=  100.500       N(2)  =     4000
 


--------------------------------------------------------------------------------------------------------


 ion  position               nearest neighbor table
   1  0.126  0.125  0.125-  37 2.26  41 2.26  49 2.28  61 2.28
   2  0.626  0.125  0.125-  38 2.26  42 2.26  50 2.28  62 2.28
   3  0.126  0.625  0.125-  39 2.26  43 2.26  51 2.28  63 2.28
   4  0.626  0.625  0.125-  40 2.26  44 2.26  52 2.28  64 2.28
   5  0.374  0.375  0.125-  39 2.26  41 2.26  52 2.28  62 2.28
   6  0.874  0.375  0.125-  40 2.26  42 2.26  51 2.28  61 2.28
   7  0.374  0.875  0.125-  37 2.26  43 2.26  50 2.28  64 2.28
   8  0.874  0.875  0.125-  38 2.26  44 2.26  49 2.28  63 2.28
   9  0.125  0.374  0.875-  41 2.26  45 2.26  51 2.28  55 2.28
  10  0.625  0.374  0.875-  42 2.26  46 2.26  52 2.28  56 2.28
  11  0.125  0.874  0.875-  43 2.26  47 2.26  49 2.28  53 2.28
  12  0.625  0.874  0.875-  44 2.26  48 2.26  50 2.28  54 2.28
  13  0.375  0.126  0.875-  41 2.26  46 2.26  50 2.28  53 2.28
  14  0.875  0.126  0.875-  42 2.26  45 2.26  49 2.28  54 2.28
  15  0.375  0.626  0.875-  43 2.26  48 2.26  52 2.28  55 2.28
  16  0.875  0.626  0.875-  44 2.26  47 2.26  51 2.28  56 2.28
  17  0.124  0.125  0.625-  33 2.26  45 2.26  53 2.28  57 2.28
  18  0.624  0.125  0.625-  34 2.26  46 2.26  54 2.28  58 2.28
  19  0.124  0.625  0.625-  35 2.26  47 2.26  55 2.28  59 2.28
  20  0.624  0.625  0.625-  36 2.26  48 2.26  56 2.28  60 2.28
  21  0.376  0.375  0.625-  36 2.26  46 2.26  55 2.28  57 2.28
  22  0.876  0.375  0.625-  35 2.26  45 2.26  56 2.28  58 2.28
  23  0.376  0.875  0.625-  34 2.26  48 2.26  53 2.28  59 2.28
  24  0.876  0.875  0.625-  33 2.26  47 2.26  54 2.28  60 2.28
  25  0.375  0.124  0.375-  34 2.26  37 2.26  57 2.28  62 2.28
  26  0.875  0.124  0.375-  33 2.26  38 2.26  58 2.28  61 2.28
  27  0.375  0.624  0.375-  36 2.26  39 2.26  59 2.28  64 2.28
  28  0.875  0.624  0.375-  35 2.26  40 2.26  60 2.28  63 2.28
  29  0.125  0.376  0.375-  35 2.26  39 2.26  57 2.28  61 2.28
  30  0.625  0.376  0.375-  36 2.26  40 2.26  58 2.28  62 2.28
  31  0.125  0.876  0.375-  33 2.26  37 2.26  59 2.28  63 2.28
  32  0.625  0.876  0.375-  34 2.26  38 2.26  60 2.28  64 2.28
  33  0.000  0.000  0.500-  17 2.26  26 2.26  24 2.26  31 2.26
  34  0.500  0.000  0.500-  18 2.26  25 2.26  23 2.26  32 2.26
  35  0.000  0.500  0.500-  19 2.26  28 2.26  29 2.26  22 2.26
  36  0.500  0.500  0.500-  20 2.26  27 2.26  21 2.26  30 2.26
  37  0.250  0.000  0.250-   1 2.26  25 2.26   7 2.26  31 2.26
  38  0.750  0.000  0.250-  26 2.26   2 2.26   8 2.26  32 2.26
  39  0.250  0.500  0.250-   3 2.26  27 2.26   5 2.26  29 2.26
  40  0.750  0.500  0.250-  28 2.26   4 2.26  30 2.26   6 2.26
  41  0.250  0.250  0.000-   1 2.26  13 2.26   9 2.26   5 2.26
  42  0.750  0.250  0.000-  14 2.26   2 2.26  10 2.26   6 2.26
  43  0.250  0.750  0.000-   3 2.26  15 2.26   7 2.26  11 2.26
  44  0.750  0.750  0.000-   4 2.26  16 2.26  12 2.26   8 2.26
  45  0.000  0.250  0.750-  14 2.26  17 2.26   9 2.26  22 2.26
  46  0.500  0.250  0.750-  13 2.26  18 2.26  10 2.26  21 2.26
  47  0.000  0.750  0.750-  19 2.26  16 2.26  11 2.26  24 2.26
  48  0.500  0.750  0.750-  20 2.26  15 2.26  23 2.26  12 2.26
  49  0.000  0.000  0.000-   8 2.28  11 2.28   1 2.28  14 2.28
  50  0.500  0.000  0.000-  12 2.28   7 2.28   2 2.28  13 2.28
  51  0.000  0.500  0.000-   6 2.28   9 2.28  16 2.28   3 2.28
  52  0.500  0.500  0.000-   5 2.28  10 2.28   4 2.28  15 2.28
  53  0.250  0.000  0.750-  11 2.28  23 2.28  17 2.28  13 2.28
  54  0.750  0.000  0.750-  12 2.28  24 2.28  18 2.28  14 2.28
  55  0.250  0.500  0.750-   9 2.28  21 2.28  15 2.28  19 2.28
  56  0.750  0.500  0.750-  22 2.28  10 2.28  16 2.28  20 2.28
  57  0.250  0.250  0.500-  21 2.28  29 2.28  25 2.28  17 2.28
  58  0.750  0.250  0.500-  22 2.28  30 2.28  26 2.28  18 2.28
  59  0.250  0.750  0.500-  31 2.28  23 2.28  27 2.28  19 2.28
  60  0.750  0.750  0.500-  24 2.28  32 2.28  28 2.28  20 2.28
  61  0.000  0.250  0.250-   6 2.28  29 2.28  26 2.28   1 2.28
  62  0.500  0.250  0.250-   5 2.28  30 2.28   2 2.28  25 2.28
  63  0.000  0.750  0.250-   8 2.28  31 2.28  28 2.28   3 2.28
  64  0.500  0.750  0.250-  32 2.28   7 2.28   4 2.28  27 2.28
 
  LATTYP: Found a simple tetragonal cell.
 ALAT       =    10.5159348957
 C/A-ratio  =     0.9900074613
  
  Lattice vectors:
  
 A1 = (  10.5159348957,   0.0000000000,   0.0000000000)
 A2 = (   0.0000000000,  10.5159348957,   0.0000000000)
 A3 = (   0.0000000000,   0.0000000000,  10.4108540091)


Analysis of symmetry for initial positions (statically):
=====================================================================
 Subroutine PRICEL returns following result:
 
  LATTYP: Found a body centered tetragonal cell.
 ALAT       =     5.2579674478
 C/A-ratio  =     1.9800149226
  
  Lattice vectors:
  
 A1 = (   2.6289837239,  -2.6289837239,   5.2054270045)
 A2 = (  -2.6289837239,   2.6289837239,   5.2054270045)
 A3 = (  -2.6289837239,  -2.6289837239,  -5.2054270045)
 
   8 primitive cells build up your supercell.
 

 Routine SETGRP: Setting up the symmetry group for a 
 simple tetragonal supercell.


 Subroutine GETGRP returns: Found  8 space group operations
 (whereof  4 operations were pure point group operations)
 out of a pool of 16 trial point group operations.


The static configuration has the point symmetry S_4 .
 The point group associated with its full space group is D_2d.


Analysis of symmetry for dynamics (positions and initial velocities):
=====================================================================
 Subroutine PRICEL returns following result:
 
  LATTYP: Found a body centered tetragonal cell.
 ALAT       =     5.2579674478
 C/A-ratio  =     1.9800149226
  
  Lattice vectors:
  
 A1 = (   2.6289837239,  -2.6289837239,   5.2054270045)
 A2 = (  -2.6289837239,   2.6289837239,   5.2054270045)
 A3 = (  -2.6289837239,  -2.6289837239,  -5.2054270045)
 
   8 primitive cells build up your supercell.
 

 Routine SETGRP: Setting up the symmetry group for a 
 simple tetragonal supercell.


 Subroutine GETGRP returns: Found  8 space group operations
 (whereof  4 operations were pure point group operations)
 out of a pool of 16 trial point group operations.


The dynamic configuration has the point symmetry S_4 .
 The point group associated with its full space group is D_2d.


Analysis of structural, dynamic, and magnetic symmetry:
=====================================================================
 Subroutine PRICEL returns following result:
 
  LATTYP: Found a body centered tetragonal cell.
 ALAT       =     5.2579674478
 C/A-ratio  =     1.9800149226
  
  Lattice vectors:
  
 A1 = (   2.6289837239,  -2.6289837239,   5.2054270045)
 A2 = (  -2.6289837239,   2.6289837239,   5.2054270045)
 A3 = (  -2.6289837239,  -2.6289837239,  -5.2054270045)
 
   8 primitive cells build up your supercell.
 

 Routine SETGRP: Setting up the symmetry group for a 
 simple tetragonal supercell.


 Subroutine GETGRP returns: Found  8 space group operations
 (whereof  4 operations were pure point group operations)
 out of a pool of 16 trial point group operations.


The magnetic configuration has the point symmetry S_4 .
 The point group associated with its full space group is D_2d.


 Subroutine INISYM returns: Found  8 space group operations
 (whereof  4 operations are pure point group operations),
 and found     8 'primitive' translations

 
 
 KPOINTS: Automatic mesh                          

Automatic generation of k-mesh.
Space group operators:
 irot       det(A)        alpha          n_x          n_y          n_z        tau_x        tau_y        tau_z
    1     1.000000     0.000001     1.000000     0.000000     0.000000     0.000000     0.000000     0.000000
    2    -1.000000    90.000000     0.000000     0.000000    -1.000000     0.000000     0.000000     0.000000
    3     1.000000   179.999999     0.000000     0.000000     1.000000     0.000000     0.000000     0.000000
    4    -1.000000    90.000000     0.000000     0.000000     1.000000     0.000000     0.000000     0.000000
    5     1.000000   180.000000     0.000000     1.000000     0.000000     0.000000    -0.250000     0.250000
    6    -1.000000   180.000000     0.707107     0.707107     0.000000     0.000000    -0.250000     0.250000
    7     1.000000   180.000000     1.000000     0.000000     0.000000     0.000000    -0.250000     0.250000
    8    -1.000000   180.000000     0.707107    -0.707107     0.000000     0.000000    -0.250000     0.250000
 
 Subroutine IBZKPT returns following result:
 ===========================================
 
 Found     18 irreducible k-points:
 
 Following reciprocal coordinates:
            Coordinates               Weight
  0.000000  0.000000  0.000000      1.000000
  0.250000  0.000000  0.000000      4.000000
  0.500000  0.000000  0.000000      2.000000
  0.250000  0.250000  0.000000      4.000000
  0.500000  0.250000  0.000000      4.000000
  0.500000  0.500000  0.000000      1.000000
  0.000000  0.000000  0.250000      2.000000
  0.250000  0.000000  0.250000      8.000000
  0.500000  0.000000  0.250000      4.000000
  0.250000  0.250000  0.250000      8.000000
  0.500000  0.250000  0.250000      8.000000
  0.500000  0.500000  0.250000      2.000000
  0.000000  0.000000  0.500000      1.000000
  0.250000  0.000000  0.500000      4.000000
  0.500000  0.000000  0.500000      2.000000
  0.250000  0.250000  0.500000      4.000000
  0.500000  0.250000  0.500000      4.000000
  0.500000  0.500000  0.500000      1.000000
 
 Following cartesian coordinates:
            Coordinates               Weight
  0.000000  0.000000  0.000000      1.000000
  0.023773  0.000000  0.000000      4.000000
  0.047547  0.000000  0.000000      2.000000
  0.023773  0.023773  0.000000      4.000000
  0.047547  0.023773  0.000000      4.000000
  0.047547  0.047547  0.000000      1.000000
  0.000000  0.000000  0.024013      2.000000
  0.023773  0.000000  0.024013      8.000000
  0.047547  0.000000  0.024013      4.000000
  0.023773  0.023773  0.024013      8.000000
  0.047547  0.023773  0.024013      8.000000
  0.047547  0.047547  0.024013      2.000000
  0.000000  0.000000  0.048027      1.000000
  0.023773  0.000000  0.048027      4.000000
  0.047547  0.000000  0.048027      2.000000
  0.023773  0.023773  0.048027      4.000000
  0.047547  0.023773  0.048027      4.000000
  0.047547  0.047547  0.048027      1.000000
 
 TETIRR: Found     96 inequivalent tetrahedra from      384
 
 Subroutine IBZKPT_HF returns following result:
 ==============================================
 
 Found     64 k-points in 1st BZ
 the following     64 k-points will be used (e.g. in the exchange kernel)
 Following reciprocal coordinates:   # in IRBZ
  0.000000  0.000000  0.000000    0.01562500   1 t-inv F
  0.250000  0.000000  0.000000    0.01562500   2 t-inv F
  0.500000  0.000000  0.000000    0.01562500   3 t-inv F
  0.250000  0.250000  0.000000    0.01562500   4 t-inv F
  0.500000  0.250000  0.000000    0.01562500   5 t-inv F
  0.500000  0.500000  0.000000    0.01562500   6 t-inv F
  0.000000  0.000000  0.250000    0.01562500   7 t-inv F
  0.250000  0.000000  0.250000    0.01562500   8 t-inv F
  0.500000  0.000000  0.250000    0.01562500   9 t-inv F
  0.250000  0.250000  0.250000    0.01562500  10 t-inv F
  0.500000  0.250000  0.250000    0.01562500  11 t-inv F
  0.500000  0.500000  0.250000    0.01562500  12 t-inv F
  0.000000  0.000000  0.500000    0.01562500  13 t-inv F
  0.250000  0.000000  0.500000    0.01562500  14 t-inv F
  0.500000  0.000000  0.500000    0.01562500  15 t-inv F
  0.250000  0.250000  0.500000    0.01562500  16 t-inv F
  0.500000  0.250000  0.500000    0.01562500  17 t-inv F
  0.500000  0.500000  0.500000    0.01562500  18 t-inv F
  0.000000 -0.250000  0.000000    0.01562500   2 t-inv F
 -0.250000  0.000000  0.000000    0.01562500   2 t-inv F
  0.000000  0.250000  0.000000    0.01562500   2 t-inv F
  0.000000 -0.500000  0.000000    0.01562500   3 t-inv F
  0.250000 -0.250000  0.000000    0.01562500   4 t-inv F
 -0.250000 -0.250000  0.000000    0.01562500   4 t-inv F
 -0.250000  0.250000  0.000000    0.01562500   4 t-inv F
  0.250000 -0.500000  0.000000    0.01562500   5 t-inv F
 -0.500000 -0.250000  0.000000    0.01562500   5 t-inv F
 -0.250000  0.500000  0.000000    0.01562500   5 t-inv F
  0.000000  0.000000 -0.250000    0.01562500   7 t-inv F
  0.000000 -0.250000 -0.250000    0.01562500   8 t-inv F
 -0.250000  0.000000  0.250000    0.01562500   8 t-inv F
  0.000000  0.250000 -0.250000    0.01562500   8 t-inv F
 -0.250000  0.000000 -0.250000    0.01562500   8 t-inv F spinflp
  0.000000 -0.250000  0.250000    0.01562500   8 t-inv F spinflp
  0.250000  0.000000 -0.250000    0.01562500   8 t-inv F spinflp
  0.000000  0.250000  0.250000    0.01562500   8 t-inv F spinflp
  0.000000 -0.500000 -0.250000    0.01562500   9 t-inv F
 -0.500000  0.000000 -0.250000    0.01562500   9 t-inv F spinflp
  0.000000 -0.500000  0.250000    0.01562500   9 t-inv F spinflp
  0.250000 -0.250000 -0.250000    0.01562500  10 t-inv F
 -0.250000 -0.250000  0.250000    0.01562500  10 t-inv F
 -0.250000  0.250000 -0.250000    0.01562500  10 t-inv F
  0.250000 -0.500000 -0.250000    0.01562500  11 t-inv F
 -0.500000 -0.250000  0.250000    0.01562500  11 t-inv F
 -0.250000  0.500000 -0.250000    0.01562500  11 t-inv F
 -0.500000  0.250000 -0.250000    0.01562500  11 t-inv F spinflp
 -0.250000 -0.500000  0.250000    0.01562500  11 t-inv F spinflp
  0.500000 -0.250000 -0.250000    0.01562500  11 t-inv F spinflp
  0.250000  0.500000  0.250000    0.01562500  11 t-inv F spinflp
  0.500000 -0.500000 -0.250000    0.01562500  12 t-inv F
  0.000000 -0.250000 -0.500000    0.01562500  14 t-inv F
 -0.250000  0.000000  0.500000    0.01562500  14 t-inv F
  0.000000  0.250000 -0.500000    0.01562500  14 t-inv F
  0.000000 -0.500000 -0.500000    0.01562500  15 t-inv F
  0.250000 -0.250000 -0.500000    0.01562500  16 t-inv F
 -0.250000 -0.250000  0.500000    0.01562500  16 t-inv F
 -0.250000  0.250000 -0.500000    0.01562500  16 t-inv F
  0.250000 -0.500000 -0.500000    0.01562500  17 t-inv F
 -0.500000 -0.250000  0.500000    0.01562500  17 t-inv F
 -0.250000  0.500000 -0.500000    0.01562500  17 t-inv F
 -0.250000 -0.250000 -0.250000    0.01562500  10 t-inv T
 -0.250000  0.250000  0.250000    0.01562500  10 t-inv T
  0.250000  0.250000 -0.250000    0.01562500  10 t-inv T
  0.250000 -0.250000  0.250000    0.01562500  10 t-inv T


--------------------------------------------------------------------------------------------------------




 Dimension of arrays:
   k-points           NKPTS =     18   k-points in BZ     NKDIM =     18   number of bands    NBANDS=    512
   number of dos      NEDOS =    301   number of ions     NIONS =     64
   non local maximal  LDIM  =      6   non local SUM 2l+1 LMDIM =     18
   total plane-waves  NPLWV = 829440
   max r-space proj   IRMAX =      1   max aug-charges    IRDMAX=  22895
   dimension x,y,z NGX =    96 NGY =   96 NGZ =   90
   dimension x,y,z NGXF=   192 NGYF=  192 NGZF=  180
   support grid    NGXF=   192 NGYF=  192 NGZF=  180
   ions per type =              32  16  16
   NGX,Y,Z   is equivalent  to a cutoff of  15.18, 15.18, 14.37 a.u.
   NGXF,Y,Z  is equivalent  to a cutoff of  30.35, 30.35, 28.74 a.u.

 SYSTEM =  CuFeS2                                  
 POSCAR =  generated by phonopy                    

 Startparameter for this run:
   NWRITE =      2    write-flag & timer
   PREC   = accura    normal or accurate (medium, high low for compatibility)
   ISTART =      1    job   : 0-new  1-cont  2-samecut
   ICHARG =      1    charge: 1-file 2-atom 10-const
   ISPIN  =      2    spin polarized calculation?
   LNONCOLLINEAR =      F non collinear calculations
   LSORBIT =      F    spin-orbit coupling
   INIWAV =      1    electr: 0-lowe 1-rand  2-diag
   LASPH  =      F    aspherical Exc in radial PAW
   METAGGA=      F    non-selfconsistent MetaGGA calc.

 Electronic Relaxation 1
   ENCUT  =  700.0 eV  51.45 Ry    7.17 a.u.  22.69 22.69 22.46*2*pi/ulx,y,z
   ENINI  =  700.0     initial cutoff
   ENAUG  =  758.2 eV  augmentation charge cutoff
   NELM   =    500;   NELMIN=  2; NELMDL=  0     # of ELM steps 
   EDIFF  = 0.1E-07   stopping-criterion for ELM
   LREAL  =      F    real-space projection
   NLSPLINE    = F    spline interpolate recip. space projectors
   LCOMPAT=      F    compatible to vasp.4.4
   GGA_COMPAT  = T    GGA compatible to vasp.4.4-vasp.4.6
   LMAXPAW     = -100 max onsite density
   LMAXMIX     =    4 max onsite mixed and CHGCAR
   VOSKOWN=      0    Vosko Wilk Nusair interpolation
   ROPT   =    0.00000   0.00000   0.00000
 Ionic relaxation
   EDIFFG = -.1E-04   stopping-criterion for IOM
   NSW    =      0    number of steps for IOM
   NBLOCK =      1;   KBLOCK =      1    inner block; outer block 
   IBRION =     -1    ionic relax: 0-MD 1-quasi-New 2-CG
   NFREE  =      0    steps in history (QN), initial steepest desc. (CG)
   ISIF   =      2    stress and relaxation
   IWAVPR =     10    prediction:  0-non 1-charg 2-wave 3-comb
   ISYM   =      2    0-nonsym 1-usesym 2-fastsym
   LCORR  =      T    Harris-Foulkes like correction to forces

   POTIM  = 0.5000    time-step for ionic-motion
   TEIN   =    0.0    initial temperature
   TEBEG  =    0.0;   TEEND  =   0.0 temperature during run
   SMASS  =  -3.00    Nose mass-parameter (am)
   estimated Nose-frequenzy (Omega)   =  0.10E-29 period in steps =****** mass=  -0.253E-26a.u.
   SCALEE = 1.0000    scale energy and forces
   NPACO  =    256;   APACO  = 16.0  distance and # of slots for P.C.
   PSTRESS=    0.0 pullay stress

  Mass of Ions in am
   POMASS =  32.07 63.55 55.85
  Ionic Valenz
   ZVAL   =   6.00 17.00 14.00
  Atomic Wigner-Seitz radii
   RWIGS  =  -1.00 -1.00 -1.00
  virtual crystal weights 
   VCA    =   1.00  1.00  1.00
   NELECT =     688.0000    total number of electrons
   NUPDOWN=      -1.0000    fix difference up-down

 DOS related values:
   EMIN   =  10.00;   EMAX   =-10.00  energy-range for DOS
   EFERMI =   0.00
   ISMEAR =    -5;   SIGMA  =   0.03  broadening in eV -4-tet -1-fermi 0-gaus

 Electronic relaxation 2 (details)
   IALGO  =     38    algorithm
   LDIAG  =      T    sub-space diagonalisation (order eigenvalues)
   LSUBROT=      F    optimize rotation matrix (better conditioning)
   TURBO    =      0    0=normal 1=particle mesh
   IRESTART =      0    0=no restart 2=restart with 2 vectors
   NREBOOT  =      0    no. of reboots
   NMIN     =      0    reboot dimension
   EREF     =   0.00    reference energy to select bands
   IMIX   =      4    mixing-type and parameters
     AMIX     =   0.40;   BMIX     =  1.00
     AMIX_MAG =   1.60;   BMIX_MAG =  1.00
     AMIN     =   0.10
     WC   =   100.;   INIMIX=   1;  MIXPRE=   1;  MAXMIX= -45

 Intra band minimization:
   WEIMIN = 0.0000     energy-eigenvalue tresh-hold
   EBREAK =  0.49E-11  absolut break condition
   DEPER  =   0.30     relativ break condition  

   TIME   =   0.40     timestep for ELM

  volume/ion in A,a.u.               =      17.99       121.39
  Fermi-wavevector in a.u.,A,eV,Ry     =   1.378934  2.605808 25.870934  1.901460
  Thomas-Fermi vector in A             =   2.503950
 
 Write flags
   LWAVE        =      T    write WAVECAR
   LDOWNSAMPLE  =      F    k-point downsampling of WAVECAR
   LCHARG       =      T    write CHGCAR
   LVTOT        =      F    write LOCPOT, total local potential
   LVHAR        =      F    write LOCPOT, Hartree potential only
   LELF         =      F    write electronic localiz. function (ELF)
   LORBIT       =     11    0 simple, 1 ext, 2 COOP (PROOUT), +10 PAW based schemes


 Dipole corrections
   LMONO  =      F    monopole corrections only (constant potential shift)
   LDIPOL =      F    correct potential (dipole corrections)
   IDIPOL =      0    1-x, 2-y, 3-z, 4-all directions 
   EPSILON=  1.0000000 bulk dielectric constant

 LDA+U is selected, type is set to LDAUTYPE =  2
   angular momentum for each species LDAUL =     2    2    2
   U (eV)           for each species LDAUU =   0.0  0.1  4.7
   J (eV)           for each species LDAUJ =   0.0  0.0  0.0
 Exchange correlation treatment:
   GGA     =    PS    GGA type
   LEXCH   =    14    internal setting for exchange type
   VOSKOWN=      0    Vosko Wilk Nusair interpolation
   LHFCALC =     F    Hartree Fock is set to
   LHFONE  =     F    Hartree Fock one center treatment
   AEXX    =    0.0000 exact exchange contribution

 Linear response parameters
   LEPSILON=     T    determine dielectric tensor
   LRPA    =     F    only Hartree local field effects (RPA)
   LNABLA  =     F    use nabla operator in PAW spheres
   LVEL    =     F    velocity operator in full k-point grid
   LINTERFAST=   F  fast interpolation
   KINTER  =     0    interpolate to denser k-point grid
   CSHIFT  =0.1000    complex shift for real part using Kramers Kronig
   OMEGAMAX=  -1.0    maximum frequency
   DEG_THRESHOLD= 0.2000000E-02 threshold for treating states as degnerate
   RTIME   =   -0.100 relaxation time in fs
  (WPLASMAI=    0.000 imaginary part of plasma frequency in eV, 0.658/RTIME)
   DFIELD  = 0.0000000 0.0000000 0.0000000 field for delta impulse in time
 
 Orbital magnetization related:
   ORBITALMAG=     F  switch on orbital magnetization
   LCHIMAG   =     F  perturbation theory with respect to B field
   DQ        =  0.001000  dq finite difference perturbation B field
   LLRAUG    =     F  two centre corrections for induced B field

 PEAD related settings:
   LPEAD      =     T    switch on PEAD
   IPEAD      =     4    finite difference order for dpsi/dk
   LCALCPOL   =     T    calculate macroscopic polarization
   LCALCEPS   =     F    calculate dielectric tensor
   EFIELD_PEAD=    0.0000    0.0000    0.0000
   SKIP_EDOTP =     F
   LRPA       =     F
   SKIP_SCF   =     F


--------------------------------------------------------------------------------------------------------


 Static calculation
 charge density and potential will be updated during run
 spin polarized calculation
 Variant of blocked Davidson
 Davidson routine will perform the subspace rotation
 perform sub-space diagonalisation
    after iterative eigenvector-optimisation
 modified Broyden-mixing scheme, WC =      100.0
 initial mixing is a Kerker type mixing with AMIX =  0.4000 and BMIX =      1.0000
 Hartree-type preconditioning will be used
 using additional bands          168
 reciprocal scheme for non local part
 use partial core corrections
 calculate Harris-corrections to forces 
   (improved forces if not selfconsistent)
 use gradient corrections 
 use of overlap-Matrix (Vanderbilt PP)
 Fermi weights with tetrahedron method with Bloechl corrections


--------------------------------------------------------------------------------------------------------


  energy-cutoff  :      700.00
  volume of cell :     1151.28
      direct lattice vectors                 reciprocal lattice vectors
    10.515934896  0.000000000  0.000000000     0.095093780  0.000000000  0.000000000
     0.000000000 10.515934896  0.000000000     0.000000000  0.095093780  0.000000000
     0.000000000  0.000000000 10.410854009     0.000000000  0.000000000  0.096053599

  length of vectors
    10.515934896 10.515934896 10.410854009     0.095093780  0.095093780  0.096053599


 
 old parameters found on file WAVECAR:
  energy-cutoff  :      700.00
  volume of cell :     1151.28
      direct lattice vectors                 reciprocal lattice vectors
    10.515905448  0.000000000  0.000000000     0.095094046  0.000000000  0.000000000
     0.000000000 10.515905448  0.000000000     0.000000000  0.095094046  0.000000000
     0.000000000  0.000000000 10.410890494     0.000000000  0.000000000  0.096053263

  length of vectors

 
 k-points in units of 2pi/SCALE and weight: Automatic mesh                          
   0.00000000  0.00000000  0.00000000       0.016
   0.02377345  0.00000000  0.00000000       0.062
   0.04754689  0.00000000  0.00000000       0.031
   0.02377345  0.02377345  0.00000000       0.062
   0.04754689  0.02377345  0.00000000       0.062
   0.04754689  0.04754689  0.00000000       0.016
   0.00000000  0.00000000  0.02401340       0.031
   0.02377345  0.00000000  0.02401340       0.125
   0.04754689  0.00000000  0.02401340       0.062
   0.02377345  0.02377345  0.02401340       0.125
   0.04754689  0.02377345  0.02401340       0.125
   0.04754689  0.04754689  0.02401340       0.031
   0.00000000  0.00000000  0.04802680       0.016
   0.02377345  0.00000000  0.04802680       0.062
   0.04754689  0.00000000  0.04802680       0.031
   0.02377345  0.02377345  0.04802680       0.062
   0.04754689  0.02377345  0.04802680       0.062
   0.04754689  0.04754689  0.04802680       0.016
 
 k-points in reciprocal lattice and weights: Automatic mesh                          
   0.00000000  0.00000000  0.00000000       0.016
   0.25000000  0.00000000  0.00000000       0.062
   0.50000000  0.00000000  0.00000000       0.031
   0.25000000  0.25000000  0.00000000       0.062
   0.50000000  0.25000000  0.00000000       0.062
   0.50000000  0.50000000  0.00000000       0.016
   0.00000000  0.00000000  0.25000000       0.031
   0.25000000  0.00000000  0.25000000       0.125
   0.50000000  0.00000000  0.25000000       0.062
   0.25000000  0.25000000  0.25000000       0.125
   0.50000000  0.25000000  0.25000000       0.125
   0.50000000  0.50000000  0.25000000       0.031
   0.00000000  0.00000000  0.50000000       0.016
   0.25000000  0.00000000  0.50000000       0.062
   0.50000000  0.00000000  0.50000000       0.031
   0.25000000  0.25000000  0.50000000       0.062
   0.50000000  0.25000000  0.50000000       0.062
   0.50000000  0.50000000  0.50000000       0.016
 
 position of ions in fractional coordinates (direct lattice) 
   0.12615723  0.12500000  0.12500000
   0.62615723  0.12500000  0.12500000
   0.12615723  0.62500000  0.12500000
   0.62615723  0.62500000  0.12500000
   0.37384278  0.37500000  0.12500000
   0.87384278  0.37500000  0.12500000
   0.37384278  0.87500000  0.12500000
   0.87384278  0.87500000  0.12500000
   0.12500000  0.37384278  0.87500000
   0.62500000  0.37384278  0.87500000
   0.12500000  0.87384278  0.87500000
   0.62500000  0.87384278  0.87500000
   0.37500000  0.12615723  0.87500000
   0.87500000  0.12615723  0.87500000
   0.37500000  0.62615723  0.87500000
   0.87500000  0.62615723  0.87500000
   0.12384277  0.12500000  0.62500000
   0.62384277  0.12500000  0.62500000
   0.12384277  0.62500000  0.62500000
   0.62384277  0.62500000  0.62500000
   0.37615722  0.37500000  0.62500000
   0.87615722  0.37500000  0.62500000
   0.37615722  0.87500000  0.62500000
   0.87615722  0.87500000  0.62500000
   0.37500000  0.12384277  0.37500000
   0.87500000  0.12384277  0.37500000
   0.37500000  0.62384277  0.37500000
   0.87500000  0.62384277  0.37500000
   0.12500000  0.37615722  0.37500000
   0.62500000  0.37615722  0.37500000
   0.12500000  0.87615722  0.37500000
   0.62500000  0.87615722  0.37500000
   0.00000000  0.00000000  0.50000000
   0.50000000  0.00000000  0.50000000
   0.00000000  0.50000000  0.50000000
   0.50000000  0.50000000  0.50000000
   0.25000000  0.00000000  0.25000000
   0.75000000  0.00000000  0.25000000
   0.25000000  0.50000000  0.25000000
   0.75000000  0.50000000  0.25000000
   0.25000000  0.25000000  0.00000000
   0.75000000  0.25000000  0.00000000
   0.25000000  0.75000000  0.00000000
   0.75000000  0.75000000  0.00000000
   0.00000000  0.25000000  0.75000000
   0.50000000  0.25000000  0.75000000
   0.00000000  0.75000000  0.75000000
   0.50000000  0.75000000  0.75000000
   0.00000000  0.00000000  0.00000000
   0.50000000  0.00000000  0.00000000
   0.00000000  0.50000000  0.00000000
   0.50000000  0.50000000  0.00000000
   0.25000000  0.00000000  0.75000000
   0.75000000  0.00000000  0.75000000
   0.25000000  0.50000000  0.75000000
   0.75000000  0.50000000  0.75000000
   0.25000000  0.25000000  0.50000000
   0.75000000  0.25000000  0.50000000
   0.25000000  0.75000000  0.50000000
   0.75000000  0.75000000  0.50000000
   0.00000000  0.25000000  0.25000000
   0.50000000  0.25000000  0.25000000
   0.00000000  0.75000000  0.25000000
   0.50000000  0.75000000  0.25000000
 
 position of ions in cartesian coordinates  (Angst):
   1.32666126  1.31449186  1.30135675
   6.58462871  1.31449186  1.30135675
   1.32666126  6.57245931  1.30135675
   6.58462871  6.57245931  1.30135675
   3.93130635  3.94347559  1.30135675
   9.18927379  3.94347559  1.30135675
   3.93130635  9.20144303  1.30135675
   9.18927379  9.20144303  1.30135675
   1.31449186  3.93130635  9.10949726
   6.57245931  3.93130635  9.10949726
   1.31449186  9.18927379  9.10949726
   6.57245931  9.18927379  9.10949726
   3.94347559  1.32666126  9.10949726
   9.20144303  1.32666126  9.10949726
   3.94347559  6.58462871  9.10949726
   9.20144303  6.58462871  9.10949726
   1.30232246  1.31449186  6.50678376
   6.56028991  1.31449186  6.50678376
   1.30232246  6.57245931  6.50678376
   6.56028991  6.57245931  6.50678376
   3.95564483  3.94347559  6.50678376
   9.21361227  3.94347559  6.50678376
   3.95564483  9.20144303  6.50678376
   9.21361227  9.20144303  6.50678376
   3.94347559  1.30232246  3.90407025
   9.20144303  1.30232246  3.90407025
   3.94347559  6.56028991  3.90407025
   9.20144303  6.56028991  3.90407025
   1.31449186  3.95564483  3.90407025
   6.57245931  3.95564483  3.90407025
   1.31449186  9.21361227  3.90407025
   6.57245931  9.21361227  3.90407025
   0.00000000  0.00000000  5.20542700
   5.25796745  0.00000000  5.20542700
   0.00000000  5.25796745  5.20542700
   5.25796745  5.25796745  5.20542700
   2.62898372  0.00000000  2.60271350
   7.88695117  0.00000000  2.60271350
   2.62898372  5.25796745  2.60271350
   7.88695117  5.25796745  2.60271350
   2.62898372  2.62898372  0.00000000
   7.88695117  2.62898372  0.00000000
   2.62898372  7.88695117  0.00000000
   7.88695117  7.88695117  0.00000000
   0.00000000  2.62898372  7.80814051
   5.25796745  2.62898372  7.80814051
   0.00000000  7.88695117  7.80814051
   5.25796745  7.88695117  7.80814051
   0.00000000  0.00000000  0.00000000
   5.25796745  0.00000000  0.00000000
   0.00000000  5.25796745  0.00000000
   5.25796745  5.25796745  0.00000000
   2.62898372  0.00000000  7.80814051
   7.88695117  0.00000000  7.80814051
   2.62898372  5.25796745  7.80814051
   7.88695117  5.25796745  7.80814051
   2.62898372  2.62898372  5.20542700
   7.88695117  2.62898372  5.20542700
   2.62898372  7.88695117  5.20542700
   7.88695117  7.88695117  5.20542700
   0.00000000  2.62898372  2.60271350
   5.25796745  2.62898372  2.60271350
   0.00000000  7.88695117  2.60271350
   5.25796745  7.88695117  2.60271350
 


--------------------------------------------------------------------------------------------------------


 k-point  1 :   0.0000 0.0000 0.0000  plane waves:   48421
 k-point  2 :   0.2500 0.0000 0.0000  plane waves:   48443
 k-point  3 :   0.5000 0.0000 0.0000  plane waves:   48446
 k-point  4 :   0.2500 0.2500 0.0000  plane waves:   48406
 k-point  5 :   0.5000 0.2500 0.0000  plane waves:   48436
 k-point  6 :   0.5000 0.5000 0.0000  plane waves:   48424
 k-point  7 :   0.0000 0.0000 0.2500  plane waves:   48457
 k-point  8 :   0.2500 0.0000 0.2500  plane waves:   48431
 k-point  9 :   0.5000 0.0000 0.2500  plane waves:   48458
 k-point 10 :   0.2500 0.2500 0.2500  plane waves:   48402
 k-point 11 :   0.5000 0.2500 0.2500  plane waves:   48420
 k-point 12 :   0.5000 0.5000 0.2500  plane waves:   48416
 k-point 13 :   0.0000 0.0000 0.5000  plane waves:   48468
 k-point 14 :   0.2500 0.0000 0.5000  plane waves:   48412
 k-point 15 :   0.5000 0.0000 0.5000  plane waves:   48416
 k-point 16 :   0.2500 0.2500 0.5000  plane waves:   48394
 k-point 17 :   0.5000 0.2500 0.5000  plane waves:   48352
 k-point 18 :   0.5000 0.5000 0.5000  plane waves:   48400

 maximum and minimum number of plane-waves per node :     48468    48352

 maximum number of plane-waves:     48468
 maximum index in each direction: 
   IXMAX=   22   IYMAX=   22   IZMAX=   22
   IXMIN=  -23   IYMIN=  -23   IZMIN=  -22


 serial   3D FFT for wavefunctions
 parallel 3D FFT for charge:
    minimum data exchange during FFTs selected (reduces bandwidth)


 total amount of memory used by VASP MPI-rank0   591541. kBytes
=======================================================================

   base      :      30000. kBytes
   nonl-proj :     428032. kBytes
   fftplans  :       4588. kBytes
   grid      :      69719. kBytes
   one-center:       1990. kBytes
   wavefun   :      57212. kBytes
 
     INWAV:  cpu time   34.8618: real time   35.1046
 Broyden mixing: mesh for mixing (old mesh)
   NGX = 45   NGY = 45   NGZ = 45
  (NGX  =192   NGY  =192   NGZ  =180)
  gives a total of  91125 points

 initial charge density was supplied:
 number of electron     688.0000433 magnetization      -0.0000000
 keeping initial charge density in first step


--------------------------------------------------------------------------------------------------------


 Maximum index for augmentation-charges          899 (set IRDMAX)


--------------------------------------------------------------------------------------------------------


 First call to EWALD:  gamma=   0.169
 Maximum number of real-space cells 3x 3x 3
 Maximum number of reciprocal cells 3x 3x 3

    FEWALD:  cpu time    0.0023: real time    0.0023


--------------------------------------- Iteration      1(   1)  ---------------------------------------


    POTLOK:  cpu time    0.3481: real time    0.3714
    SETDIJ:  cpu time    0.0141: real time    0.0141
     EDDAV:  cpu time  269.8179: real time  272.3582
 BZINTS: Fermi energy:  4.834154;688.000000 electrons
         Band energy:***********;  BLOECHL correction:  0.000000
       DOS:  cpu time    0.0183: real time    0.0185
    CHARGE:  cpu time    2.7680: real time    2.8533
    MIXING:  cpu time    0.0032: real time    0.0032
    --------------------------------------------
      LOOP:  cpu time  272.9697: real time  275.6187

 eigenvalue-minimisations  : 45568
 total energy-change (2. order) :-0.3281266E+03  (-0.2580385E-05)
 number of electron     688.0000433 magnetization       0.0000000
 augmentation part      282.2198608 magnetization       0.0000000

 Broyden mixing:
  rms(total) = 0.19778E-03    rms(broyden)= 0.19777E-03
  rms(prec ) = 0.27309E-03
  weight for this iteration     100.00

 Free energy of the ion-electron system (eV)
  ---------------------------------------------------
  alpha Z        PSCENC =      2354.89474149
  Ewald energy   TEWEN  =    -62456.03169158
  -Hartree energ DENC   =    -42960.93554373
  -exchange      EXHF   =         0.00000000
  -V(xc)+E(xc)   XCENC  =      3286.47883654
  PAW double counting   =    112271.27371857  -115965.28494365
  entropy T*S    EENTRO =         0.00000000
  eigenvalues    EBANDS =    -10878.58684225
  atomic energy  EATOM  =    114020.06510763
  Solvation  Ediel_sol  =         0.00000000
  ---------------------------------------------------
  free energy    TOTEN  =      -328.12661698 eV

  energy without entropy =     -328.12661698  energy(sigma->0) =     -328.12661698


--------------------------------------------------------------------------------------------------------




--------------------------------------- Iteration      1(   2)  ---------------------------------------


    POTLOK:  cpu time    0.1201: real time    0.1211
    SETDIJ:  cpu time    0.0125: real time    0.0125
     EDDAV:  cpu time  297.9580: real time  300.0227
 BZINTS: Fermi energy:  4.857054;688.000000 electrons
         Band energy:***********;  BLOECHL correction:  0.000000
       DOS:  cpu time    0.0219: real time    0.0220
    CHARGE:  cpu time    2.7465: real time    2.7658
    MIXING:  cpu time    0.0040: real time    0.1470
    --------------------------------------------
      LOOP:  cpu time  300.8629: real time  303.0911

 eigenvalue-minimisations  : 46080
 total energy-change (2. order) : 0.7494236E-08  (-0.2389793E-06)
 number of electron     688.0000433 magnetization       0.0000000
 augmentation part      282.2195336 magnetization       0.0000000

 Broyden mixing:
  rms(total) = 0.53936E-03    rms(broyden)= 0.53935E-03
  rms(prec ) = 0.63299E-03
  weight for this iteration     100.00

 eigenvalues of (default mixing * dielectric matrix)
  average eigenvalue GAMMA=   0.2382
  0.2382

 Free energy of the ion-electron system (eV)
  ---------------------------------------------------
  alpha Z        PSCENC =      2354.89474149
  Ewald energy   TEWEN  =    -62456.03169158
  -Hartree energ DENC   =    -42960.92934099
  -exchange      EXHF   =         0.00000000
  -V(xc)+E(xc)   XCENC  =      3286.47824873
  PAW double counting   =    112271.28554028  -115965.29765021
  entropy T*S    EENTRO =         0.00000000
  eigenvalues    EBANDS =    -10878.59157232
  atomic energy  EATOM  =    114020.06510763
  Solvation  Ediel_sol  =         0.00000000
  ---------------------------------------------------
  free energy    TOTEN  =      -328.12661698 eV

  energy without entropy =     -328.12661698  energy(sigma->0) =     -328.12661698


--------------------------------------------------------------------------------------------------------




--------------------------------------- Iteration      1(   3)  ---------------------------------------


    POTLOK:  cpu time    0.1188: real time    0.1197
    SETDIJ:  cpu time    0.0123: real time    0.0124
     EDDAV:  cpu time  335.5311: real time  337.8382
 BZINTS: Fermi energy:  4.833753;688.000000 electrons
         Band energy:***********;  BLOECHL correction:  0.000000
       DOS:  cpu time    0.0217: real time    0.0218
    CHARGE:  cpu time    2.7446: real time    2.7639
    MIXING:  cpu time    0.0018: real time    0.0917
    --------------------------------------------
      LOOP:  cpu time  338.4304: real time  340.8477

 eigenvalue-minimisations  : 48896
 total energy-change (2. order) : 0.8649658E-07  (-0.7780516E-07)
 number of electron     688.0000433 magnetization       0.0000000
 augmentation part      282.2196240 magnetization       0.0000000

 Broyden mixing:
  rms(total) = 0.86098E-04    rms(broyden)= 0.86086E-04
  rms(prec ) = 0.10402E-03
  weight for this iteration     100.00

 eigenvalues of (default mixing * dielectric matrix)
  average eigenvalue GAMMA=   0.3842
  0.3842  0.3842

 Free energy of the ion-electron system (eV)
  ---------------------------------------------------
  alpha Z        PSCENC =      2354.89474149
  Ewald energy   TEWEN  =    -62456.03169158
  -Hartree energ DENC   =    -42960.93560649
  -exchange      EXHF   =         0.00000000
  -V(xc)+E(xc)   XCENC  =      3286.47883369
  PAW double counting   =    112271.29005662  -115965.30184252
  entropy T*S    EENTRO =         0.00000000
  eigenvalues    EBANDS =    -10878.58621572
  atomic energy  EATOM  =    114020.06510763
  Solvation  Ediel_sol  =         0.00000000
  ---------------------------------------------------
  free energy    TOTEN  =      -328.12661689 eV

  energy without entropy =     -328.12661689  energy(sigma->0) =     -328.12661689


--------------------------------------------------------------------------------------------------------




--------------------------------------- Iteration      1(   4)  ---------------------------------------


    POTLOK:  cpu time    0.1192: real time    0.1200
    SETDIJ:  cpu time    0.0123: real time    0.0123
     EDDAV:  cpu time  251.8896: real time  253.7058
 BZINTS: Fermi energy:  4.830680;688.000000 electrons
         Band energy:***********;  BLOECHL correction:  0.000000
       DOS:  cpu time    0.0187: real time    0.0188
    CHARGE:  cpu time    2.7425: real time    2.7619
    MIXING:  cpu time    0.0018: real time    0.9907
    --------------------------------------------
      LOOP:  cpu time  254.7841: real time  257.6095

 eigenvalue-minimisations  : 41728
 total energy-change (2. order) :-0.1373701E-07  (-0.4218168E-08)
 number of electron     688.0000433 magnetization       0.0000000
 augmentation part      282.2197269 magnetization       0.0000000

 Broyden mixing:
  rms(total) = 0.21234E-04    rms(broyden)= 0.21223E-04
  rms(prec ) = 0.24400E-04
  weight for this iteration     100.00

 eigenvalues of (default mixing * dielectric matrix)
  average eigenvalue GAMMA=   0.6374
  0.7846  0.7846  0.3430

 Free energy of the ion-electron system (eV)
  ---------------------------------------------------
  alpha Z        PSCENC =      2354.89474149
  Ewald energy   TEWEN  =    -62456.03169158
  -Hartree energ DENC   =    -42960.93182500
  -exchange      EXHF   =         0.00000000
  -V(xc)+E(xc)   XCENC  =      3286.47882363
  PAW double counting   =    112271.27947272  -115965.29083897
  entropy T*S    EENTRO =         0.00000000
  eigenvalues    EBANDS =    -10878.59040682
  atomic energy  EATOM  =    114020.06510763
  Solvation  Ediel_sol  =         0.00000000
  ---------------------------------------------------
  free energy    TOTEN  =      -328.12661690 eV

  energy without entropy =     -328.12661690  energy(sigma->0) =     -328.12661690


--------------------------------------------------------------------------------------------------------




--------------------------------------- Iteration      1(   5)  ---------------------------------------


    POTLOK:  cpu time    0.1189: real time    0.1198
    SETDIJ:  cpu time    0.0124: real time    0.0124
     EDDAV:  cpu time  286.3357: real time  288.2831
 BZINTS: Fermi energy:  4.795718;688.000000 electrons
         Band energy:***********;  BLOECHL correction:  0.000000
       DOS:  cpu time    0.0187: real time    0.0188
    --------------------------------------------
      LOOP:  cpu time  286.4857: real time  288.4341

 eigenvalue-minimisations  : 39680
 total energy-change (2. order) : 0.2735760E-08  (-0.2809338E-09)
 number of electron     688.0000433 magnetization       0.0000000
 augmentation part      282.2197269 magnetization       0.0000000

 Free energy of the ion-electron system (eV)
  ---------------------------------------------------
  alpha Z        PSCENC =      2354.89474149
  Ewald energy   TEWEN  =    -62456.03169158
  -Hartree energ DENC   =    -42960.93308861
  -exchange      EXHF   =         0.00000000
  -V(xc)+E(xc)   XCENC  =      3286.47887636
  PAW double counting   =    112271.27992980  -115965.29173750
  entropy T*S    EENTRO =         0.00000000
  eigenvalues    EBANDS =    -10878.58875448
  atomic energy  EATOM  =    114020.06510763
  Solvation  Ediel_sol  =         0.00000000
  ---------------------------------------------------
  free energy    TOTEN  =      -328.12661690 eV

  energy without entropy =     -328.12661690  energy(sigma->0) =     -328.12661690


--------------------------------------------------------------------------------------------------------




 average (electrostatic) potential at core
  the test charge radii are     0.9698  0.8297  0.9500
  (the norm of the test charge is              1.0000)
       1 -86.6271       2 -86.6271       3 -86.6271       4 -86.6271       5 -86.6271
       6 -86.6271       7 -86.6271       8 -86.6271       9 -86.6271      10 -86.6271
      11 -86.6271      12 -86.6271      13 -86.6271      14 -86.6271      15 -86.6271
      16 -86.6271      17 -86.6271      18 -86.6271      19 -86.6271      20 -86.6271
      21 -86.6271      22 -86.6271      23 -86.6271      24 -86.6271      25 -86.6271
      26 -86.6271      27 -86.6271      28 -86.6271      29 -86.6271      30 -86.6271
      31 -86.6271      32 -86.6271      33 -80.7051      34 -80.7051      35 -80.7051
      36 -80.7051      37 -80.7051      38 -80.7051      39 -80.7051      40 -80.7051
      41 -80.7051      42 -80.7051      43 -80.7051      44 -80.7051      45 -80.7051
      46 -80.7051      47 -80.7051      48 -80.7051      49 -80.2342      50 -80.2342
      51 -80.2342      52 -80.2342      53 -80.2342      54 -80.2342      55 -80.2342
      56 -80.2342      57 -80.2342      58 -80.2342      59 -80.2342      60 -80.2342
      61 -80.2342      62 -80.2342      63 -80.2342      64 -80.2342
 
 
 
 E-fermi :   4.7957     XC(G=0): -10.4636     alpha+bet :-10.5407


 spin component 1

 k-point     1 :       0.0000    0.0000    0.0000
  band No.  band energies     occupation 
      1     -64.3157      1.00000
      2     -64.3157      1.00000
      3     -64.3157      1.00000
      4     -64.3157      1.00000
      5     -64.3157      1.00000
      6     -64.3157      1.00000
      7     -64.3157      1.00000
      8     -64.3157      1.00000
      9     -64.2833      1.00000
     10     -64.2833      1.00000
     11     -64.2833      1.00000
     12     -64.2833      1.00000
     13     -64.2833      1.00000
     14     -64.2833      1.00000
     15     -64.2833      1.00000
     16     -64.2833      1.00000
     17     -64.2833      1.00000
     18     -64.2833      1.00000
     19     -64.2833      1.00000
     20     -64.2833      1.00000
     21     -64.2833      1.00000
     22     -64.2833      1.00000
     23     -64.2833      1.00000
     24     -64.2833      1.00000
     25     -64.2814      1.00000
     26     -64.2814      1.00000
     27     -64.2814      1.00000
     28     -64.2814      1.00000
     29     -64.2814      1.00000
     30     -64.2814      1.00000
     31     -64.2814      1.00000
     32     -64.2814      1.00000
     33     -64.2651      1.00000
     34     -64.2651      1.00000
     35     -64.2651      1.00000
     36     -64.2651      1.00000
     37     -64.2651      1.00000
     38     -64.2651      1.00000
     39     -64.2651      1.00000
     40     -64.2651      1.00000
     41     -64.2651      1.00000
     42     -64.2651      1.00000
     43     -64.2650      1.00000
     44     -64.2650      1.00000
     45     -64.2650      1.00000
     46     -64.2650      1.00000
     47     -64.2650      1.00000
     48     -64.2650      1.00000
     49     -51.8874      1.00000
     50     -51.8874      1.00000
     51     -51.8874      1.00000
     52     -51.8874      1.00000
     53     -51.8874      1.00000
     54     -51.8874      1.00000
     55     -51.8874      1.00000
     56     -51.8874      1.00000
     57     -51.8557      1.00000
     58     -51.8557      1.00000
     59     -51.8557      1.00000
     60     -51.8557      1.00000
     61     -51.8557      1.00000
     62     -51.8557      1.00000
     63     -51.8557      1.00000
     64     -51.8557      1.00000
     65     -51.8557      1.00000
     66     -51.8557      1.00000
     67     -51.8557      1.00000
     68     -51.8557      1.00000
     69     -51.8557      1.00000
     70     -51.8557      1.00000
     71     -51.8557      1.00000
     72     -51.8557      1.00000
     73     -47.7357      1.00000
     74     -47.7357      1.00000
     75     -47.7357      1.00000
     76     -47.7356      1.00000
     77     -47.7356      1.00000
     78     -47.7356      1.00000
     79     -47.7356      1.00000
     80     -47.7356      1.00000
     81     -47.7319      1.00000
     82     -47.7319      1.00000
     83     -47.7319      1.00000
     84     -47.7319      1.00000
     85     -47.7319      1.00000
     86     -47.7319      1.00000
     87     -47.7319      1.00000
     88     -47.7319      1.00000
     89     -47.7319      1.00000
     90     -47.7319      1.00000
     91     -47.7319      1.00000
     92     -47.7319      1.00000
     93     -47.7319      1.00000
     94     -47.7319      1.00000
     95     -47.7319      1.00000
     96     -47.7319      1.00000
     97      -9.1138      1.00000
     98      -8.5034      1.00000
     99      -8.5029      1.00000
    100      -8.5029      1.00000
    101      -8.5029      1.00000
    102      -8.5029      1.00000
    103      -8.4804      1.00000
    104      -8.1407      1.00000
    105      -8.1407      1.00000
    106      -8.1407      1.00000
    107      -8.1407      1.00000
    108      -8.1390      1.00000
    109      -8.1390      1.00000
    110      -8.1382      1.00000
    111      -8.1382      1.00000
    112      -8.1206      1.00000
    113      -8.1206      1.00000
    114      -8.1206      1.00000
    115      -8.1206      1.00000
    116      -8.1096      1.00000
    117      -8.1096      1.00000
    118      -8.0815      1.00000
    119      -8.0815      1.00000
    120      -7.7736      1.00000
    121      -7.7736      1.00000
    122      -7.7673      1.00000
    123      -7.7673      1.00000
    124      -7.7586      1.00000
    125      -7.7586      1.00000
    126      -7.7586      1.00000
    127      -7.7586      1.00000
    128      -7.7542      1.00000
    129      -2.0730      1.00000
    130      -2.0549      1.00000
    131      -2.0549      1.00000
    132      -2.0549      1.00000
    133      -2.0549      1.00000
    134      -2.0281      1.00000
    135      -1.9841      1.00000
    136      -1.9619      1.00000
    137      -1.9619      1.00000
    138      -1.9071      1.00000
    139      -1.8961      1.00000
    140      -1.8882      1.00000
    141      -1.8882      1.00000
    142      -1.8882      1.00000
    143      -1.8882      1.00000
    144      -1.8731      1.00000
    145      -1.8731      1.00000
    146      -1.8477      1.00000
    147      -1.8477      1.00000
    148      -1.8477      1.00000
    149      -1.8477      1.00000
    150      -1.8144      1.00000
    151      -1.8144      1.00000
    152      -1.7995      1.00000
    153      -1.7995      1.00000
    154      -1.7995      1.00000
    155      -1.7995      1.00000
    156      -1.7942      1.00000
    157      -1.7832      1.00000
    158      -1.7832      1.00000
    159      -1.7671      1.00000
    160      -1.7671      1.00000
    161      -1.7580      1.00000
    162      -1.7580      1.00000
    163      -1.7580      1.00000
    164      -1.7580      1.00000
    165      -1.7486      1.00000
    166      -1.7486      1.00000
    167      -1.7119      1.00000
    168      -1.7119      1.00000
    169      -0.9602      1.00000
    170      -0.9602      1.00000
    171      -0.8584      1.00000
    172      -0.8584      1.00000
    173      -0.7510      1.00000
    174      -0.4974      1.00000
    175      -0.2416      1.00000
    176      -0.2416      1.00000
    177      -0.2416      1.00000
    178      -0.2416      1.00000
    179      -0.1941      1.00000
    180      -0.1941      1.00000
    181      -0.1288      1.00000
    182      -0.0350      1.00000
    183      -0.0350      1.00000
    184      -0.0350      1.00000
    185      -0.0350      1.00000
    186       0.0370      1.00000
    187       0.0370      1.00000
    188       0.0970      1.00000
    189       0.0970      1.00000
    190       0.0970      1.00000
    191       0.0970      1.00000
    192       0.1057      1.00000
    193       0.1970      1.00000
    194       0.2591      1.00000
    195       0.2591      1.00000
    196       0.2591      1.00000
    197       0.2591      1.00000
    198       0.2902      1.00000
    199       0.3157      1.00000
    200       0.6727      1.00000
    201       0.7214      1.00000
    202       0.7214      1.00000
    203       0.7549      1.00000
    204       0.7965      1.00000
    205       0.7965      1.00000
    206       0.7965      1.00000
    207       0.7965      1.00000
    208       0.8654      1.00000
    209       0.8654      1.00000
    210       0.8654      1.00000
    211       0.8654      1.00000
    212       1.0004      1.00000
    213       1.0004      1.00000
    214       1.0004      1.00000
    215       1.0004      1.00000
    216       1.1250      1.00000
    217       1.1250      1.00000
    218       1.1331      1.00000
    219       1.1331      1.00000
    220       1.1583      1.00000
    221       1.1583      1.00000
    222       1.1745      1.00000
    223       1.1745      1.00000
    224       1.1745      1.00000
    225       1.1745      1.00000
    226       1.1822      1.00000
    227       1.1822      1.00000
    228       1.2457      1.00000
    229       1.2457      1.00000
    230       1.2764      1.00000
    231       1.2764      1.00000
    232       1.2764      1.00000
    233       1.2764      1.00000
    234       1.3051      1.00000
    235       1.3051      1.00000
    236       1.3474      1.00000
    237       1.3474      1.00000
    238       1.4319      1.00000
    239       1.5469      1.00000
    240       1.5469      1.00000
    241       1.6041      1.00000
    242       1.7822      1.00000
    243       1.7822      1.00000
    244       1.7822      1.00000
    245       1.7822      1.00000
    246       1.8455      1.00000
    247       1.8455      1.00000
    248       1.9255      1.00000
    249       1.9255      1.00000
    250       1.9273      1.00000
    251       1.9273      1.00000
    252       1.9273      1.00000
    253       1.9273      1.00000
    254       2.0335      1.00000
    255       2.0335      1.00000
    256       2.1285      1.00000
    257       2.1285      1.00000
    258       2.1456      1.00000
    259       2.1819      1.00000
    260       2.1819      1.00000
    261       2.1819      1.00000
    262       2.1819      1.00000
    263       2.2139      1.00000
    264       2.2139      1.00000
    265       2.6162      1.00000
    266       2.7213      1.00000
    267       2.7512      1.00000
    268       2.7512      1.00000
    269       2.7512      1.00000
    270       2.7512      1.00000
    271       2.7682      1.00000
    272       2.7682      1.00000
    273       2.7729      1.00000
    274       2.7729      1.00000
    275       2.7729      1.00000
    276       2.7729      1.00000
    277       2.7966      1.00000
    278       2.8203      1.00000
    279       2.8203      1.00000
    280       2.8656      1.00000
    281       2.8925      1.00000
    282       2.9120      1.00000
    283       2.9120      1.00000
    284       2.9120      1.00000
    285       2.9120      1.00000
    286       2.9477      1.00000
    287       2.9877      1.00000
    288       3.0859      1.00000
    289       3.0859      1.00000
    290       3.1121      1.00000
    291       3.1848      1.00000
    292       3.1848      1.00000
    293       3.2010      1.00000
    294       3.2010      1.00000
    295       3.2010      1.00000
    296       3.2010      1.00000
    297       3.2372      1.00000
    298       3.2372      1.00000
    299       3.2825      1.00000
    300       3.3870      1.00000
    301       3.3870      1.00000
    302       3.3870      1.00000
    303       3.3870      1.00000
    304       3.4740      1.00000
    305       3.4740      1.00000
    306       3.5401      1.00000
    307       3.5401      1.00000
    308       3.5401      1.00000
    309       3.5401      1.00000
    310       3.6354      1.00000
    311       3.6354      1.00000
    312       3.6471      1.00000
    313       3.6471      1.00000
    314       3.6471      1.00000
    315       3.6471      1.00000
    316       3.7525      1.00000
    317       3.7525      1.00000
    318       3.8619      1.00000
    319       4.0042      1.00000
    320       4.0569      1.00000
    321       4.0569      1.00000
    322       4.0569      1.00000
    323       4.0569      1.00000
    324       4.0913      1.00000
    325       4.0913      1.00000
    326       4.1109      1.00000
    327       4.1109      1.00000
    328       4.1256      1.00000
    329       4.1256      1.00000
    330       4.1256      1.00000
    331       4.1256      1.00000
    332       4.2228      1.00000
    333       4.2228      1.00000
    334       4.2892      1.00000
    335       4.3136      1.00000
    336       4.3136      1.00000
    337       4.6809      1.00000
    338       4.6809      1.00000
    339       4.6809      1.00000
    340       4.6809      1.00000
    341       4.6821      1.00000
    342       4.6821      1.00000
    343       4.7865      1.00000
    344       4.7865      1.00000
    345       5.7156      0.00000
    346       5.7156      0.00000
    347       5.7254      0.00000
    348       5.7254      0.00000
    349       5.7254      0.00000
    350       5.7254      0.00000
    351       5.7424      0.00000
    352       5.8585      0.00000
    353       5.9147      0.00000
    354       5.9147      0.00000
    355       5.9455      0.00000
    356       5.9455      0.00000
    357       5.9455      0.00000
    358       5.9455      0.00000
    359       5.9547      0.00000
    360       6.0193      0.00000
    361       6.0200      0.00000
    362       6.0200      0.00000
    363       6.0200      0.00000
    364       6.0200      0.00000
    365       6.1916      0.00000
    366       6.1916      0.00000
    367       6.1916      0.00000
    368       6.1916      0.00000
    369       6.1929      0.00000
    370       6.1929      0.00000
    371       6.2283      0.00000
    372       6.2283      0.00000
    373       6.2956      0.00000
    374       6.2956      0.00000
    375       6.3499      0.00000
    376       6.4182      0.00000
    377       6.4182      0.00000
    378       6.4515      0.00000
    379       6.4515      0.00000
    380       6.4515      0.00000
    381       6.4515      0.00000
    382       6.5427      0.00000
    383       6.7192      0.00000
    384       6.7192      0.00000
    385       7.6831      0.00000
    386       8.7829      0.00000
    387       8.8073      0.00000
    388       8.8073      0.00000
    389       9.0642      0.00000
    390       9.0642      0.00000
    391       9.2522      0.00000
    392       9.2522      0.00000
    393       9.3042      0.00000
    394       9.4358      0.00000
    395       9.4358      0.00000
    396       9.4358      0.00000
    397       9.4358      0.00000
    398       9.5625      0.00000
    399      10.0877      0.00000
    400      10.1215      0.00000
    401      10.1695      0.00000
    402      10.4432      0.00000
    403      10.4541      0.00000
    404      10.4541      0.00000
    405      10.6164      0.00000
    406      10.6164      0.00000
    407      10.6164      0.00000
    408      10.6164      0.00000
    409      10.6675      0.00000
    410      10.6675      0.00000
    411      10.6675      0.00000
    412      10.6675      0.00000
    413      10.7887      0.00000
    414      10.7887      0.00000
    415      10.7887      0.00000
    416      10.7887      0.00000
    417      10.8859      0.00000
    418      10.8859      0.00000
    419      10.9073      0.00000
    420      10.9073      0.00000
    421      10.9073      0.00000
    422      10.9073      0.00000
    423      10.9549      0.00000
    424      10.9549      0.00000
    425      10.9636      0.00000
    426      11.6874      0.00000
    427      11.6874      0.00000
    428      11.7268      0.00000
    429      11.7268      0.00000
    430      11.7268      0.00000
    431      11.7268      0.00000
    432      11.8094      0.00000
    433      11.8094      0.00000
    434      11.8203      0.00000
    435      11.8479      0.00000
    436      11.8479      0.00000
    437      11.8479      0.00000
    438      11.8479      0.00000
    439      11.8816      0.00000
    440      11.8816      0.00000
    441      12.1728      0.00000
    442      12.1728      0.00000
    443      12.2030      0.00000
    444      12.2500      0.00000
    445      12.2500      0.00000
    446      12.2935      0.00000
    447      12.2935      0.00000
    448      12.2935      0.00000
    449      12.2935      0.00000
    450      12.3106      0.00000
    451      12.3106      0.00000
    452      12.5990      0.00000
    453      12.5990      0.00000
    454      12.6712      0.00000
    455      12.6760      0.00000
    456      12.6760      0.00000
    457      12.6760      0.00000
    458      12.6760      0.00000
    459      12.6918      0.00000
    460      12.6918      0.00000
    461      12.7318      0.00000
    462      12.7318      0.00000
    463      12.7318      0.00000
    464      12.7318      0.00000
    465      12.8105      0.00000
    466      12.8105      0.00000
    467      13.1392      0.00000
    468      13.1392      0.00000
    469      13.2041      0.00000
    470      13.2041      0.00000
    471      13.2041      0.00000
    472      13.2041      0.00000
    473      13.2576      0.00000
    474      13.2576      0.00000
    475      13.2576      0.00000
    476      13.2576      0.00000
    477      13.3093      0.00000
    478      13.3756      0.00000
    479      13.3756      0.00000
    480      13.3756      0.00000
    481      13.3756      0.00000
    482      13.3800      0.00000
    483      13.4074      0.00000
    484      13.4074      0.00000
    485      13.4089      0.00000
    486      13.4089      0.00000
    487      13.4089      0.00000
    488      13.4089      0.00000
    489      13.4847      0.00000
    490      13.4847      0.00000
    491      13.8317      0.00000
    492      13.8317      0.00000
    493      13.8961      0.00000
    494      13.8961      0.00000
    495      14.0037      0.00000
    496      14.0037      0.00000
    497      14.0405      0.00000
    498      14.0405      0.00000
    499      14.0405      0.00000
    500      14.0405      0.00000
    501      14.0847      0.00000
    502      14.0847      0.00000
    503      14.0847      0.00000
    504      14.0847      0.00000
    505      14.0874      0.00000
    506      14.1077      0.00000
    507      14.1377      0.00000
    508      14.1377      0.00000
    509      14.1677      0.00000
    510      14.1677      0.00000
    511      14.1677      0.00000
    512      14.1677      0.00000

 k-point     2 :       0.2500    0.0000    0.0000
  band No.  band energies     occupation 
      1     -64.3157      1.00000
      2     -64.3157      1.00000
      3     -64.3157      1.00000
      4     -64.3157      1.00000
      5     -64.3157      1.00000
      6     -64.3157      1.00000
      7     -64.3157      1.00000
[...]
 
   8 primitive cells build up your supercell.
 

 Routine SETGRP: Setting up the symmetry group for a 
 simple tetragonal supercell.


 Subroutine GETGRP returns: Found  8 space group operations
 (whereof  4 operations were pure point group operations)
 out of a pool of 16 trial point group operations.


The static configuration has the point symmetry S_4 .
 The point group associated with its full space group is D_2d.


Analysis of symmetry for dynamics (positions and initial velocities):
=====================================================================
 Subroutine PRICEL returns following result:
 
  LATTYP: Found a body centered tetragonal cell.
 ALAT       =     5.2579674478
 C/A-ratio  =     1.9800149226
  
  Lattice vectors:
  
 A1 = (   2.6289837239,  -2.6289837239,   5.2054270045)
 A2 = (  -2.6289837239,   2.6289837239,   5.2054270045)
 A3 = (  -2.6289837239,  -2.6289837239,  -5.2054270045)
 
   8 primitive cells build up your supercell.
 

 Routine SETGRP: Setting up the symmetry group for a 
 simple tetragonal supercell.


 Subroutine GETGRP returns: Found  8 space group operations
 (whereof  4 operations were pure point group operations)
 out of a pool of 16 trial point group operations.


The dynamic configuration has the point symmetry S_4 .
 The point group associated with its full space group is D_2d.


Analysis of structural, dynamic, and magnetic symmetry:
=====================================================================
 Subroutine PRICEL returns following result:
 
  LATTYP: Found a body centered tetragonal cell.
 ALAT       =     5.2579674478
 C/A-ratio  =     1.9800149226
  
  Lattice vectors:
  
 A1 = (   2.6289837239,  -2.6289837239,   5.2054270045)
 A2 = (  -2.6289837239,   2.6289837239,   5.2054270045)
 A3 = (  -2.6289837239,  -2.6289837239,  -5.2054270045)
 
   8 primitive cells build up your supercell.
 

 Routine SETGRP: Setting up the symmetry group for a 
 simple tetragonal supercell.


 Subroutine GETGRP returns: Found  8 space group operations
 (whereof  4 operations were pure point group operations)
 out of a pool of 16 trial point group operations.


The magnetic configuration has the point symmetry S_4 .
 The point group associated with its full space group is D_2d.


 Subroutine INISYM returns: Found  8 space group operations
 (whereof  4 operations are pure point group operations),
 and found     8 'primitive' translations



--------------------------------------------------------------------------------------------------------




 MACROSCOPIC STATIC DIELECTRIC TENSOR (including local field effects in DFT)
 ------------------------------------------------------
        8480.006534     0.000000    -0.000000
           0.000000  8480.006534     0.000000
           0.000000     0.000000  7101.929404
 ------------------------------------------------------


 PIEZOELECTRIC TENSOR (including local field effects)  for field in x, y, z        (e  Angst)
          XX          YY          ZZ          XY          YZ          ZX
  --------------------------------------------------------------------------------
  x     4.15672    -1.88557     3.89494     0.00000   -48.39213     0.00000
  y     2.88663     2.67487    -1.65530     0.00000     0.00000   -59.94127
  z    -9.01927    -9.01927     2.67657   -48.42815     0.00000     0.00000

 PIEZOELECTRIC TENSOR (including local field effects)  for field in x, y, z        (C/m^2)
          XX          YY          ZZ          XY          YZ          ZX
  --------------------------------------------------------------------------------
  x     0.00000     0.00000    -0.00000     0.00000    -0.75374     0.00000
  y    -0.00000     0.00000     0.00000     0.00000     0.00000    -0.75361
  z     0.00000     0.00000     0.00000    -0.67395     0.00000     0.00000
 
 BORN EFFECTIVE CHARGES (including local field effects) (in e, cummulative output)
 ---------------------------------------------------------------------------------
 ion    1
    1    -1.18055    -0.00000    -0.00000
    2     0.04779    -1.44552    -0.93664
    3    -0.08361    -0.96843     0.09547
 ion    2
    1    -1.18055    -0.00000     0.00000
    2     0.04779    -1.44552    -0.93664
    3    -0.08361    -0.96843     0.09547
 ion    3
    1    -1.18055    -0.00000    -0.00000
    2     0.04779    -1.44552    -0.93664
    3    -0.08361    -0.96843     0.09547
 ion    4
    1    -1.18055    -0.00000    -0.00000
    2     0.04779    -1.44552    -0.93664
    3    -0.08361    -0.96843     0.09547
 ion    5
    1    -1.14385    -0.00000    -0.00000
    2    -0.04779    -1.44552     0.93664
    3     0.08361     0.96843     0.09547
 ion    6
    1    -1.14385    -0.00000     0.00000
    2    -0.04779    -1.44552     0.93664
    3     0.08361     0.96843     0.09547
 ion    7
    1    -1.14385    -0.00000     0.00000
    2    -0.04779    -1.44552     0.93664
    3     0.08361     0.96843     0.09547
 ion    8
    1    -1.14385    -0.00000    -0.00000
    2    -0.04779    -1.44552     0.93664
    3     0.08361     0.96843     0.09547
 ion    9
    1    -1.65331    -0.02204     1.29318
    2     0.00000    -2.08183    -0.00000
    3     0.96843     0.08361     0.09547
 ion   10
    1    -1.65331    -0.02204     1.29318
    2     0.00000    -2.08183    -0.00000
    3     0.96843     0.08361     0.09547
 ion   11
    1    -1.65331    -0.02204     1.29318
    2     0.00000    -2.08183    -0.00000
    3     0.96843     0.08361     0.09547
 ion   12
    1    -1.65331    -0.02204     1.29318
    2     0.00000    -2.08183    -0.00000
    3     0.96843     0.08361     0.09547
 ion   13
    1    -1.65331     0.02204    -1.29318
    2     0.00000    -1.84402    -0.00000
    3    -0.96843    -0.08361     0.09547
 ion   14
    1    -1.65331     0.02204    -1.29318
    2     0.00000    -1.84402    -0.00000
    3    -0.96843    -0.08361     0.09547
 ion   15
    1    -1.65331     0.02204    -1.29318
    2     0.00000    -1.84402     0.00000
    3    -0.96843    -0.08361     0.09547
 ion   16
    1    -1.65331     0.02204    -1.29318
    2     0.00000    -1.84402    -0.00000
    3    -0.96843    -0.08361     0.09547
 ion   17
    1    -1.14385    -0.00000    -0.00000
    2    -0.04779    -1.44552     0.93664
    3     0.08361     0.96843     0.09547
 ion   18
    1    -1.14385    -0.00000    -0.00000
    2    -0.04779    -1.44552     0.93664
    3     0.08361     0.96843     0.09547
 ion   19
    1    -1.14385    -0.00000    -0.00000
    2    -0.04779    -1.44552     0.93664
    3     0.08361     0.96843     0.09547
 ion   20
    1    -1.14385    -0.00000     0.00000
    2    -0.04779    -1.44552     0.93664
    3     0.08361     0.96843     0.09547
 ion   21
    1    -1.18055    -0.00000     0.00000
    2     0.04779    -1.44552    -0.93664
    3    -0.08361    -0.96843     0.09547
 ion   22
    1    -1.18055    -0.00000    -0.00000
    2     0.04779    -1.44552    -0.93664
    3    -0.08361    -0.96843     0.09547
 ion   23
    1    -1.18055    -0.00000     0.00000
    2     0.04779    -1.44552    -0.93664
    3    -0.08361    -0.96843     0.09547
 ion   24
    1    -1.18055    -0.00000     0.00000
    2     0.04779    -1.44552    -0.93664
    3    -0.08361    -0.96843     0.09547
 ion   25
    1    -1.65331    -0.02204     1.29318
    2     0.00000    -2.08183    -0.00000
    3     0.96843     0.08361     0.09547
 ion   26
    1    -1.65331    -0.02204     1.29318
    2     0.00000    -2.08183    -0.00000
    3     0.96843     0.08361     0.09547
 ion   27
    1    -1.65331    -0.02204     1.29318
    2     0.00000    -2.08183     0.00000
    3     0.96843     0.08361     0.09547
 ion   28
    1    -1.65331    -0.02204     1.29318
    2     0.00000    -2.08183     0.00000
    3     0.96843     0.08361     0.09547
 ion   29
    1    -1.65331     0.02204    -1.29318
    2     0.00000    -1.84402    -0.00000
    3    -0.96843    -0.08361     0.09547
 ion   30
    1    -1.65331     0.02204    -1.29318
    2     0.00000    -1.84402     0.00000
    3    -0.96843    -0.08361     0.09547
 ion   31
    1    -1.65331     0.02204    -1.29318
    2     0.00000    -1.84402     0.00000
    3    -0.96843    -0.08361     0.09547
 ion   32
    1    -1.65331     0.02204    -1.29318
    2     0.00000    -1.84402     0.00000
    3    -0.96843    -0.08361     0.09547
 ion   33
    1     0.40319    -0.23117    -0.02335
    2     0.18906     0.73619     0.03443
    3    -0.00000     0.00000    -0.94249
 ion   34
    1     0.40319    -0.23117    -0.02335
    2     0.18906     0.73619     0.03443
    3    -0.00000     0.00000    -0.94249
 ion   35
    1     0.40319    -0.23117    -0.02335
    2     0.18906     0.73619     0.03443
    3    -0.00000     0.00000    -0.94249
 ion   36
    1     0.40319    -0.23117    -0.02335
    2     0.18906     0.73619     0.03443
    3    -0.00000     0.00000    -0.94249
 ion   37
    1     0.40319     0.23117     0.02335
    2    -0.18906     0.73619    -0.03443
    3    -0.00000     0.00000    -0.94249
 ion   38
    1     0.40319     0.23117     0.02335
    2    -0.18906     0.73619    -0.03443
    3    -0.00000     0.00000    -0.94249
 ion   39
    1     0.40319     0.23117     0.02335
    2    -0.18906     0.73619    -0.03443
    3    -0.00000     0.00000    -0.94249
 ion   40
    1     0.40319     0.23117     0.02335
    2    -0.18906     0.73619    -0.03443
    3    -0.00000     0.00000    -0.94249
 ion   41
    1     0.40319    -0.23117    -0.02335
    2     0.18906     0.73619     0.03443
    3    -0.00000     0.00000    -0.94249
 ion   42
    1     0.40319    -0.23117    -0.02335
    2     0.18906     0.73619     0.03443
    3    -0.00000     0.00000    -0.94249
 ion   43
    1     0.40319    -0.23117    -0.02335
    2     0.18906     0.73619     0.03443
    3    -0.00000     0.00000    -0.94249
 ion   44
    1     0.40319    -0.23117    -0.02335
    2     0.18906     0.73619     0.03443
    3    -0.00000     0.00000    -0.94249
 ion   45
    1     0.40319     0.23117     0.02335
    2    -0.18906     0.73619    -0.03443
    3    -0.00000     0.00000    -0.94249
 ion   46
    1     0.40319     0.23117     0.02335
    2    -0.18906     0.73619    -0.03443
    3    -0.00000     0.00000    -0.94249
 ion   47
    1     0.40319     0.23117     0.02335
    2    -0.18906     0.73619    -0.03443
    3    -0.00000     0.00000    -0.94249
 ion   48
    1     0.40319     0.23117     0.02335
    2    -0.18906     0.73619    -0.03443
    3    -0.00000     0.00000    -0.94249
 ion   49
    1     2.41232    -0.06968    -0.02060
    2    -0.09031     2.67225     0.14774
    3    -0.00000     0.00000     0.75156
 ion   50
    1     2.41232    -0.06968    -0.02060
    2    -0.09031     2.67225     0.14774
    3    -0.00000     0.00000     0.75156
 ion   51
    1     2.41232    -0.06968    -0.02060
    2    -0.09031     2.67225     0.14774
    3    -0.00000     0.00000     0.75156
 ion   52
    1     2.41232    -0.06968    -0.02060
    2    -0.09031     2.67225     0.14774
    3    -0.00000     0.00000     0.75156
 ion   53
    1     2.41232     0.06968     0.02060
    2     0.09031     2.67225    -0.14774
    3    -0.00000     0.00000     0.75156
 ion   54
    1     2.41232     0.06968     0.02060
    2     0.09031     2.67225    -0.14774
    3    -0.00000     0.00000     0.75156
 ion   55
    1     2.41232     0.06968     0.02060
    2     0.09031     2.67225    -0.14774
    3    -0.00000     0.00000     0.75156
 ion   56
    1     2.41232     0.06968     0.02060
    2     0.09031     2.67225    -0.14774
    3    -0.00000     0.00000     0.75156
 ion   57
    1     2.41232    -0.06968    -0.02060
    2    -0.09031     2.67225     0.14774
    3    -0.00000     0.00000     0.75156
 ion   58
    1     2.41232    -0.06968    -0.02060
    2    -0.09031     2.67225     0.14774
    3    -0.00000     0.00000     0.75156
 ion   59
    1     2.41232    -0.06968    -0.02060
    2    -0.09031     2.67225     0.14774
    3    -0.00000     0.00000     0.75156
 ion   60
    1     2.41232    -0.06968    -0.02060
    2    -0.09031     2.67225     0.14774
    3    -0.00000     0.00000     0.75156
 ion   61
    1     2.41232     0.06968     0.02060
    2     0.09031     2.67225    -0.14774
    3    -0.00000     0.00000     0.75156
 ion   62
    1     2.41232     0.06968     0.02060
    2     0.09031     2.67225    -0.14774
    3    -0.00000     0.00000     0.75156
 ion   63
    1     2.41232     0.06968     0.02060
    2     0.09031     2.67225    -0.14774
    3    -0.00000     0.00000     0.75156
 ion   64
    1     2.41232     0.06968     0.02060
    2     0.09031     2.67225    -0.14774
    3    -0.00000     0.00000     0.75156


--------------------------------------------------------------------------------------------------------


 writing wavefunctions
     LOOP+:  cpu time45956.3146: real time47017.3367
    4ORBIT:  cpu time    0.0000: real time    0.0000
 


 total charge     
 
# of ion       s       p       d       tot
------------------------------------------
    1        1.313   2.410   0.000   3.724
    2        1.313   2.410   0.000   3.724
    3        1.313   2.410   0.000   3.724
    4        1.313   2.410   0.000   3.724
    5        1.313   2.410   0.000   3.723
    6        1.313   2.410   0.000   3.723
    7        1.313   2.410   0.000   3.723
    8        1.313   2.410   0.000   3.723
    9        1.313   2.410   0.000   3.724
   10        1.313   2.410   0.000   3.724
   11        1.313   2.410   0.000   3.724
   12        1.313   2.410   0.000   3.724
   13        1.313   2.410   0.000   3.724
   14        1.313   2.410   0.000   3.724
   15        1.313   2.410   0.000   3.724
   16        1.313   2.410   0.000   3.724
   17        1.313   2.410   0.000   3.723
   18        1.313   2.410   0.000   3.723
   19        1.313   2.410   0.000   3.723
   20        1.313   2.410   0.000   3.723
   21        1.313   2.410   0.000   3.724
   22        1.313   2.410   0.000   3.724
   23        1.313   2.410   0.000   3.724
   24        1.313   2.410   0.000   3.724
   25        1.313   2.410   0.000   3.724
   26        1.313   2.410   0.000   3.724
   27        1.313   2.410   0.000   3.724
   28        1.313   2.410   0.000   3.724
   29        1.313   2.410   0.000   3.724
   30        1.313   2.410   0.000   3.724
   31        1.313   2.410   0.000   3.724
   32        1.313   2.410   0.000   3.724
   33        0.260   6.202   8.917  15.378
   34        0.260   6.202   8.917  15.378
   35        0.260   6.202   8.917  15.378
   36        0.260   6.202   8.917  15.378
   37        0.260   6.202   8.917  15.378
   38        0.260   6.202   8.917  15.378
   39        0.260   6.202   8.917  15.378
   40        0.260   6.202   8.917  15.378
   41        0.260   6.202   8.917  15.378
   42        0.260   6.202   8.917  15.378
   43        0.260   6.202   8.917  15.378
   44        0.260   6.202   8.917  15.378
   45        0.260   6.202   8.917  15.378
   46        0.260   6.202   8.917  15.378
   47        0.260   6.202   8.917  15.378
   48        0.260   6.202   8.917  15.378
   49        0.350   6.351   5.820  12.521
   50        0.350   6.351   5.820  12.521
   51        0.350   6.351   5.820  12.521
   52        0.350   6.351   5.820  12.521
   53        0.350   6.351   5.820  12.521
   54        0.350   6.351   5.820  12.521
   55        0.350   6.351   5.820  12.521
   56        0.350   6.351   5.820  12.521
   57        0.350   6.351   5.820  12.521
   58        0.350   6.351   5.820  12.521
   59        0.350   6.351   5.820  12.521
   60        0.350   6.351   5.820  12.521
   61        0.350   6.351   5.820  12.521
   62        0.350   6.351   5.820  12.521
   63        0.350   6.351   5.820  12.521
   64        0.350   6.351   5.820  12.521
--------------------------------------------------
tot         51.789 277.975 235.777 565.542
 


 magnetization (x)
 
# of ion       s       p       d       tot
------------------------------------------
    1        0.000  -0.000   0.000  -0.000
    2        0.000  -0.000   0.000  -0.000
    3        0.000  -0.000   0.000  -0.000
    4        0.000  -0.000   0.000  -0.000
    5        0.000  -0.000   0.000  -0.000
    6        0.000  -0.000   0.000  -0.000
    7        0.000  -0.000   0.000  -0.000
    8        0.000  -0.000   0.000  -0.000
    9       -0.000   0.000   0.000   0.000
   10       -0.000   0.000   0.000   0.000
   11       -0.000   0.000   0.000   0.000
   12       -0.000   0.000   0.000   0.000
   13       -0.000   0.000   0.000   0.000
   14       -0.000   0.000   0.000   0.000
   15       -0.000   0.000   0.000   0.000
   16       -0.000   0.000   0.000   0.000
   17        0.000  -0.000   0.000  -0.000
   18        0.000  -0.000   0.000  -0.000
   19        0.000  -0.000   0.000  -0.000
   20        0.000  -0.000   0.000  -0.000
   21        0.000  -0.000   0.000  -0.000
   22        0.000  -0.000   0.000  -0.000
   23        0.000  -0.000   0.000  -0.000
   24        0.000  -0.000   0.000  -0.000
   25       -0.000   0.000   0.000   0.000
   26       -0.000   0.000   0.000   0.000
   27       -0.000   0.000   0.000   0.000
   28       -0.000   0.000   0.000   0.000
   29       -0.000   0.000   0.000   0.000
   30       -0.000   0.000   0.000   0.000
   31       -0.000   0.000   0.000   0.000
   32       -0.000   0.000   0.000   0.000
   33        0.000   0.000  -0.001   0.000
   34        0.000   0.000  -0.001   0.000
   35        0.000   0.000  -0.001   0.000
   36        0.000   0.000  -0.001   0.000
   37       -0.000  -0.000   0.001  -0.000
   38       -0.000  -0.000   0.001  -0.000
   39       -0.000  -0.000   0.001  -0.000
   40       -0.000  -0.000   0.001  -0.000
   41        0.000   0.000  -0.001   0.000
   42        0.000   0.000  -0.001   0.000
   43        0.000   0.000  -0.001   0.000
   44        0.000   0.000  -0.001   0.000
   45       -0.000  -0.000   0.001  -0.000
   46       -0.000  -0.000   0.001  -0.000
   47       -0.000  -0.000   0.001  -0.000
   48       -0.000  -0.000   0.001  -0.000
   49        0.020   0.054   3.671   3.745
   50        0.020   0.054   3.671   3.745
   51        0.020   0.054   3.671   3.745
   52        0.020   0.054   3.671   3.745
   53       -0.020  -0.054  -3.671  -3.745
   54       -0.020  -0.054  -3.671  -3.745
   55       -0.020  -0.054  -3.671  -3.745
   56       -0.020  -0.054  -3.671  -3.745
   57        0.020   0.054   3.671   3.745
   58        0.020   0.054   3.671   3.745
   59        0.020   0.054   3.671   3.745
   60        0.020   0.054   3.671   3.745
   61       -0.020  -0.054  -3.671  -3.745
   62       -0.020  -0.054  -3.671  -3.745
   63       -0.020  -0.054  -3.671  -3.745
   64       -0.020  -0.054  -3.671  -3.745
--------------------------------------------------
tot         -0.000  -0.000   0.000  -0.000
 
 BZINTS: Fermi energy:  5.000967;688.000000 electrons
         Band energy:***********;  BLOECHL correction:  0.000000

 total amount of memory used by VASP MPI-rank0   591541. kBytes
=======================================================================

   base      :      30000. kBytes
   nonl-proj :     428032. kBytes
   fftplans  :       4588. kBytes
   grid      :      69719. kBytes
   one-center:       1990. kBytes
   wavefun   :      57212. kBytes
 
  
  
 General timing and accounting informations for this job:
 ========================================================
  
                  Total CPU time used (sec):    46051.516
                            User time (sec):    45928.409
                          System time (sec):      123.105
                         Elapsed time (sec):    47115.940
  
                   Maximum memory used (kb):     1686576.
                   Average memory used (kb):           0.
  
                          Minor page faults:      9598179
                          Major page faults:         5968
                 Voluntary context switches:         8901
