       N       E                     dE             d eps       ncg     rms          rms(c)
DAV:   1     0.605620412929E+04    0.60562E+04   -0.51596E+05 16384   0.196E+03
DAV:   2    -0.722353394214E+02   -0.61284E+04   -0.60189E+04 17408   0.445E+02
DAV:   3    -0.324999239635E+03   -0.25276E+03   -0.25175E+03 23552   0.982E+01
DAV:   4    -0.328443859863E+03   -0.34446E+01   -0.34445E+01 18176   0.115E+01
DAV:   5    -0.328546785230E+03   -0.10293E+00   -0.10292E+00 22784   0.197E+00    0.531E+00
DAV:   6    -0.328179524460E+03    0.36726E+00   -0.31905E-01 25600   0.182E+00    0.279E+00
DAV:   7    -0.328065768488E+03    0.11376E+00   -0.26198E-01 25856   0.124E+00    0.142E+00
DAV:   8    -0.328061984223E+03    0.37843E-02   -0.10173E-01 21760   0.862E-01    0.850E-01
DAV:   9    -0.328060388619E+03    0.15956E-02   -0.61930E-02 23296   0.685E-01    0.664E-01
DAV:  10    -0.328059838680E+03    0.54994E-03   -0.71398E-03 19712   0.247E-01    0.293E-01
DAV:  11    -0.328060275576E+03   -0.43690E-03   -0.18497E-03 23040   0.732E-02    0.138E-01
DAV:  12    -0.328060516132E+03   -0.24056E-03   -0.78050E-04 16896   0.441E-02    0.522E-02
DAV:  13    -0.328060545266E+03   -0.29134E-04   -0.77626E-05 22016   0.206E-02    0.309E-02
DAV:  14    -0.328060568629E+03   -0.23363E-04   -0.66390E-05 20992   0.127E-02    0.180E-02
DAV:  15    -0.328060580699E+03   -0.12070E-04   -0.36063E-05 22016   0.711E-03    0.870E-03
DAV:  16    -0.328060584254E+03   -0.35542E-05   -0.84457E-06 18176   0.300E-03    0.634E-03
DAV:  17    -0.328060586750E+03   -0.24964E-05   -0.14406E-05 22016   0.362E-03    0.263E-03
DAV:  18    -0.328060587105E+03   -0.35479E-06   -0.22884E-06 18432   0.166E-03    0.213E-03
DAV:  19    -0.328060587133E+03   -0.28376E-07   -0.10969E-07 21504   0.429E-04    0.138E-03
DAV:  20    -0.328060587147E+03   -0.14028E-07   -0.20918E-07 20480   0.529E-04    0.387E-04
DAV:  21    -0.328060587150E+03   -0.24156E-08   -0.13335E-08 17408   0.192E-04
   1 F= -.32806059E+03 E0= -.32806059E+03  d E =0.000000E+00  mag=     0.0000
