 vasp.5.4.4.18Apr17-6-g9f103f2a35 (build Oct 30 2023 17:30:16) complex          
  
 executed on             LinuxIFC date 2024.06.29  18:55:30
 running on  256 total cores
 distrk:  each k-point on  256 cores,    1 groups
 distr:  one band on NCORES_PER_BAND=   1 cores,  256 groups


--------------------------------------------------------------------------------------------------------


 INCAR:
 POTCAR:    PAW_PBE S 06Sep2000                   
 POTCAR:     PAW_PBE Cu_pv 06Sep2000              
 POTCAR:     PAW_PBE Fe_pv 02Aug2007              

 ----------------------------------------------------------------------------- 
|                                                                             |
|           W    W    AA    RRRRR   N    N  II  N    N   GGGG   !!!           |
|           W    W   A  A   R    R  NN   N  II  NN   N  G    G  !!!           |
|           W    W  A    A  R    R  N N  N  II  N N  N  G       !!!           |
|           W WW W  AAAAAA  RRRRR   N  N N  II  N  N N  G  GGG   !            |
|           WW  WW  A    A  R   R   N   NN  II  N   NN  G    G                |
|           W    W  A    A  R    R  N    N  II  N    N   GGGG   !!!           |
|                                                                             |
|      For optimal performance we recommend to set                            |
|        NCORE= 4 - approx SQRT( number of cores)                             |
|      NCORE specifies how many cores store one orbital (NPAR=cpu/NCORE).     |
|      This setting can  greatly improve the performance of VASP for DFT.     |
|      The default,   NCORE=1            might be grossly inefficient         |
|      on modern multi-core architectures or massively parallel machines.     |
|      Do your own testing !!!!                                               |
|      Unfortunately you need to use the default for GW and RPA calculations. |
|      (for HF NCORE is supported but not extensively tested yet)             |
|                                                                             |
 ----------------------------------------------------------------------------- 

 POTCAR:    PAW_PBE S 06Sep2000                   
   SHA256 =  0fc7481fb0695f01bdc6462160264c5c84044ae9ec85a907d398b887a2bc3132 S/
   COPYR  = (c) Copyright 06Sep2000 Georg Kresse                                
   COPYR  = This file is part of the software VASP. Any use, copying, and all ot
   COPYR  = If you do not have a valid VASP license, you may not use, copy or di
   VRHFIN =S : s2p4                                                             
   LEXCH  = PE                                                                  
   EATOM  =   276.8230 eV,   20.3459 Ry                                         
                                                                                
   TITEL  = PAW_PBE S 06Sep2000                                                 
   LULTRA =        F    use ultrasoft PP ?                                      
   IUNSCR =        1    unscreen: 0-lin 1-nonlin 2-no                           
   RPACOR =    1.500    partial core radius                                     
   POMASS =   32.066; ZVAL   =    6.000    mass and valenz                      
   RCORE  =    1.900    outmost cutoff radius                                   
   RWIGS  =    2.200; RWIGS  =    1.164    wigner-seitz radius (au A)           
   ENMAX  =  258.689; ENMIN  =  194.016 eV                                      
   ICORE  =        2    local potential                                         
   LCOR   =        T    correct aug charges                                     
   LPAW   =        T    paw PP                                                  
   EAUG   =  335.092                                                            
   DEXC   =    0.000                                                            
   RMAX   =    1.942    core radius for proj-oper                               
   RAUG   =    1.300    factor for augmentation sphere                          
   RDEP   =    1.954    radius for radial grids                                 
   RDEPT  =    1.744    core radius for aug-charge                              
                                                                                
   Atomic configuration                                                         
    6 entries                                                                   
     n  l   j            E        occ.                                          
     1  0  0.50     -2405.8406   2.0000                                         
     2  0  0.50      -211.7007   2.0000                                         
     2  1  1.50      -156.4958   6.0000                                         
     3  0  0.50       -17.2562   2.0000                                         
     3  1  0.50        -7.0085   4.0000                                         
     3  2  1.50        -6.8029   0.0000                                         
   Description                                                                  
     l       E           TYP  RCUT    TYP  RCUT                                 
     0    -17.2561641     23  1.900                                             
     0    -15.8743224     23  1.900                                             
     1     -7.0085400     23  1.900                                             
     1     -2.7779785     23  1.900                                             
     2     -6.8029130     23  1.900                                             
  local pseudopotential read in
  partial core-charges read in
  partial kinetic energy density read in
  atomic valenz-charges read in
  non local Contribution for L=           0  read in
    real space projection operators read in
  non local Contribution for L=           0  read in
    real space projection operators read in
  non local Contribution for L=           1  read in
    real space projection operators read in
  non local Contribution for L=           1  read in
    real space projection operators read in
    PAW grid and wavefunctions read in
 
   number of l-projection  operators is LMAX  =           4
   number of lm-projection operators is LMMAX =           8
 
 POTCAR:     PAW_PBE Cu_pv 06Sep2000              
   SHA256 =  cb7b504e2ea725fe1f25c85a9ac77d4012ce94cd394135b722c4e25ec297f1cb Cu
   COPYR  = (c) Copyright 06Sep2000 Georg Kresse                                
   COPYR  = This file is part of the software VASP. Any use, copying, and all ot
   COPYR  = If you do not have a valid VASP license, you may not use, copy or di
   VRHFIN =Cu: d10 p1                                                           
   LEXCH  = PE                                                                  
   EATOM  =  4120.1201 eV,  302.8203 Ry                                         
                                                                                
   TITEL  = PAW_PBE Cu_pv 06Sep2000                                             
   LULTRA =        F    use ultrasoft PP ?                                      
   IUNSCR =        1    unscreen: 0-lin 1-nonlin 2-no                           
   RPACOR =    1.500    partial core radius                                     
   POMASS =   63.546; ZVAL   =   17.000    mass and valenz                      
   RCORE  =    2.000    outmost cutoff radius                                   
   RWIGS  =    2.000; RWIGS  =    1.058    wigner-seitz radius (au A)           
   ENMAX  =  368.648; ENMIN  =  276.486 eV                                      
   RCLOC  =    1.304    cutoff for local pot                                    
   LCOR   =        T    correct aug charges                                     
   LPAW   =        T    paw PP                                                  
   EAUG   =  758.233                                                            
   DEXC   =    0.000                                                            
   RMAX   =    2.046    core radius for proj-oper                               
   RAUG   =    1.300    factor for augmentation sphere                          
   RDEP   =    2.025    radius for radial grids                                 
   RDEPT  =    1.558    core radius for aug-charge                              
                                                                                
   Atomic configuration                                                         
    8 entries                                                                   
     n  l   j            E        occ.                                          
     1  0  0.50     -8850.2467   2.0000                                         
     2  0  0.50     -1062.3498   2.0000                                         
     2  1  1.50      -916.8226   6.0000                                         
     3  0  0.50      -114.6929   2.0000                                         
     3  1  1.50       -72.1325   6.0000                                         
     3  2  2.50        -5.0394  10.0000                                         
     4  0  0.50        -4.6097   1.0000                                         
     4  3  2.50        -1.3606   0.0000                                         
   Description                                                                  
     l       E           TYP  RCUT    TYP  RCUT                                 
     1    -72.1324777     23  1.700                                             
     1     -1.3605826     23  1.700                                             
     2     -5.0393776     23  2.000                                             
     2     -6.3999602     23  2.000                                             
     0     -4.6097062     23  1.800                                             
     0     14.1620818     23  1.800                                             
  local pseudopotential read in
  partial core-charges read in
  partial kinetic energy density read in
  atomic valenz-charges read in
  non local Contribution for L=           1  read in
    real space projection operators read in
  non local Contribution for L=           1  read in
    real space projection operators read in
  non local Contribution for L=           2  read in
    real space projection operators read in
  non local Contribution for L=           2  read in
    real space projection operators read in
  non local Contribution for L=           0  read in
    real space projection operators read in
  non local Contribution for L=           0  read in
    real space projection operators read in
    PAW grid and wavefunctions read in
 
   number of l-projection  operators is LMAX  =           6
   number of lm-projection operators is LMMAX =          18
 
 POTCAR:     PAW_PBE Fe_pv 02Aug2007              
   SHA256 =  5d22e414b1f82158bf2c7ecb8b97b28fd0923e48cadc1c3bf74d524558f5dd32 Fe
   COPYR  = (c) Copyright 02Aug2007 Georg Kresse                                
   COPYR  = This file is part of the software VASP. Any use, copying, and all ot
   COPYR  = If you do not have a valid VASP license, you may not use, copy or di
   VRHFIN =Fe:  3pd7s1                                                          
   LEXCH  = PE                                                                  
   EATOM  =  2457.4239 eV,  180.6156 Ry                                         
                                                                                
   TITEL  = PAW_PBE Fe_pv 02Aug2007                                             
   LULTRA =        F    use ultrasoft PP ?                                      
   IUNSCR =        1    unscreen: 0-lin 1-nonlin 2-no                           
   RPACOR =    1.750    partial core radius                                     
   POMASS =   55.847; ZVAL   =   14.000    mass and valenz                      
   RCORE  =    2.200    outmost cutoff radius                                   
   RWIGS  =    2.200; RWIGS  =    1.164    wigner-seitz radius (au A)           
   ENMAX  =  293.238; ENMIN  =  219.928 eV                                      
   ICORE  =        3    local potential                                         
   LCOR   =        T    correct aug charges                                     
   LPAW   =        T    paw PP                                                  
   EAUG   =  578.342                                                            
   DEXC   =    0.000                                                            
   RMAX   =    2.249    core radius for proj-oper                               
   RAUG   =    1.300    factor for augmentation sphere                          
   RDEP   =    2.296    radius for radial grids                                 
   RDEPT  =    1.766    core radius for aug-charge                              
                                                                                
   Atomic configuration                                                         
    8 entries                                                                   
     n  l   j            E        occ.                                          
     1  0  0.50     -6993.8440   2.0000                                         
     2  0  0.50      -814.6047   2.0000                                         
     2  1  1.50      -693.3689   6.0000                                         
     3  0  0.50       -89.4732   2.0000                                         
     3  1  1.50       -55.6373   6.0000                                         
     3  2  2.50        -3.8151   7.0000                                         
     4  0  0.50        -4.2551   1.0000                                         
     4  3  2.50        -1.3606   0.0000                                         
   Description                                                                  
     l       E           TYP  RCUT    TYP  RCUT                                 
     1    -55.6372668     23  2.000                                             
     1     -5.4423304     23  2.000                                             
     2     -3.8151096     23  2.200                                             
     2     -5.1756922     23  2.200                                             
     0     -4.2550951     23  2.200                                             
     0     27.2116520     23  2.200                                             
     3     -1.3605826     23  2.200                                             
  local pseudopotential read in
  partial core-charges read in
  partial kinetic energy density read in
  atomic valenz-charges read in
  non local Contribution for L=           1  read in
    real space projection operators read in
  non local Contribution for L=           1  read in
    real space projection operators read in
  non local Contribution for L=           2  read in
    real space projection operators read in
  non local Contribution for L=           2  read in
    real space projection operators read in
  non local Contribution for L=           0  read in
    real space projection operators read in
  non local Contribution for L=           0  read in
    real space projection operators read in
    PAW grid and wavefunctions read in
 
   number of l-projection  operators is LMAX  =           6
   number of lm-projection operators is LMMAX =          18
 

 ----------------------------------------------------------------------------- 
|                                                                             |
|  ADVICE TO THIS USER RUNNING 'VASP/VAMP'   (HEAR YOUR MASTER'S VOICE ...):  |
|                                                                             |
|      You have a (more or less) 'large supercell' and for larger cells       |
|      it might be more efficient to use real space projection opertators     |
|      So try LREAL= Auto  in the INCAR   file.                               |
|      Mind:          For very  accurate calculation you might also keep the  |
|      reciprocal projection scheme          (i.e. LREAL=.FALSE.)             |
|                                                                             |
 ----------------------------------------------------------------------------- 


 ----------------------------------------------------------------------------- 
|                                                                             |
|  ADVICE TO THIS USER RUNNING 'VASP/VAMP'   (HEAR YOUR MASTER'S VOICE ...):  |
|                                                                             |
|      You enforced a specific xc-type in the INCAR file,                     |
|      a different type was found on the POTCAR file                          |
|          I HOPE YOU KNOW, WHAT YOU ARE  DOING                               |
|                                                                             |
 ----------------------------------------------------------------------------- 

  PAW_PBE S 06Sep2000                   :
 energy of atom  1       EATOM= -276.8230
 kinetic energy error for atom=    0.0007 (will be added to EATOM!!)
   PAW_PBE Cu_pv 06Sep2000              :
 energy of atom  2       EATOM=-4120.1201
 kinetic energy error for atom=    0.0094 (will be added to EATOM!!)
   PAW_PBE Fe_pv 02Aug2007              :
 energy of atom  3       EATOM=-2457.4239
 kinetic energy error for atom=    0.0025 (will be added to EATOM!!)
 
 
 POSCAR: Fe16 Cu16 S32                           
  positions in direct lattice
  No initial velocities read in
 exchange correlation table for  LEXCH =       14
   RHO(1)=    0.500       N(1)  =     2000
   RHO(2)=  100.500       N(2)  =     4000
 


--------------------------------------------------------------------------------------------------------


 ion  position               nearest neighbor table
   1  0.126  0.125  0.123-  37 2.26  41 2.27  61 2.27  49 2.28
   2  0.626  0.125  0.123-  38 2.26  42 2.27  62 2.27  50 2.28
   3  0.126  0.625  0.123-  39 2.26  43 2.27  63 2.27  51 2.28
   4  0.626  0.625  0.123-  40 2.26  44 2.27  64 2.27  52 2.28
   5  0.374  0.375  0.123-  39 2.26  41 2.27  62 2.27  52 2.28
   6  0.874  0.375  0.123-  40 2.26  42 2.27  61 2.27  51 2.28
   7  0.374  0.875  0.123-  37 2.26  43 2.27  64 2.27  50 2.28
   8  0.874  0.875  0.123-  38 2.26  44 2.27  63 2.27  49 2.28
   9  0.125  0.374  0.873-  41 2.26  45 2.27  51 2.27  55 2.28
  10  0.625  0.374  0.873-  42 2.26  46 2.27  52 2.27  56 2.28
  11  0.125  0.874  0.873-  43 2.26  47 2.27  49 2.27  53 2.28
  12  0.625  0.874  0.873-  44 2.26  48 2.27  50 2.27  54 2.28
  13  0.375  0.126  0.873-  41 2.26  46 2.27  50 2.27  53 2.28
  14  0.875  0.126  0.873-  42 2.26  45 2.27  49 2.27  54 2.28
  15  0.375  0.626  0.873-  43 2.26  48 2.27  52 2.27  55 2.28
  16  0.875  0.626  0.873-  44 2.26  47 2.27  51 2.27  56 2.28
  17  0.124  0.125  0.623-  45 2.26  33 2.27  53 2.27  57 2.28
  18  0.624  0.125  0.623-  46 2.26  34 2.27  54 2.27  58 2.28
  19  0.124  0.625  0.623-  47 2.26  35 2.27  55 2.27  59 2.28
  20  0.624  0.625  0.623-  48 2.26  36 2.27  56 2.27  60 2.28
  21  0.376  0.375  0.623-  46 2.26  36 2.27  55 2.27  57 2.28
  22  0.876  0.375  0.623-  45 2.26  35 2.27  56 2.27  58 2.28
  23  0.376  0.875  0.623-  48 2.26  34 2.27  53 2.27  59 2.28
  24  0.876  0.875  0.623-  47 2.26  33 2.27  54 2.27  60 2.28
  25  0.375  0.124  0.373-  34 2.26  37 2.27  57 2.27  62 2.28
  26  0.875  0.124  0.373-  33 2.26  38 2.27  58 2.27  61 2.28
  27  0.375  0.624  0.373-  36 2.26  39 2.27  59 2.27  64 2.28
  28  0.875  0.624  0.373-  35 2.26  40 2.27  60 2.27  63 2.28
  29  0.125  0.376  0.373-  35 2.26  39 2.27  57 2.27  61 2.28
  30  0.625  0.376  0.373-  36 2.26  40 2.27  58 2.27  62 2.28
  31  0.125  0.876  0.373-  33 2.26  37 2.27  59 2.27  63 2.28
  32  0.625  0.876  0.373-  34 2.26  38 2.27  60 2.27  64 2.28
  33  0.000  0.000  0.502-  26 2.26  31 2.26  17 2.27  24 2.27
  34  0.500  0.000  0.502-  25 2.26  32 2.26  18 2.27  23 2.27
  35  0.000  0.500  0.502-  28 2.26  29 2.26  19 2.27  22 2.27
  36  0.500  0.500  0.502-  27 2.26  30 2.26  20 2.27  21 2.27
  37  0.250  0.000  0.252-   1 2.26   7 2.26  25 2.27  31 2.27
  38  0.750  0.000  0.252-   2 2.26   8 2.26  26 2.27  32 2.27
  39  0.250  0.500  0.252-   3 2.26   5 2.26  27 2.27  29 2.27
  40  0.750  0.500  0.252-   4 2.26   6 2.26  28 2.27  30 2.27
  41  0.250  0.250  0.002-   9 2.26  13 2.26   1 2.27   5 2.27
  42  0.750  0.250  0.002-  10 2.26  14 2.26   2 2.27   6 2.27
  43  0.250  0.750  0.002-  11 2.26  15 2.26   3 2.27   7 2.27
  44  0.750  0.750  0.002-  12 2.26  16 2.26   4 2.27   8 2.27
  45  0.000  0.250  0.752-  17 2.26  22 2.26   9 2.27  14 2.27
  46  0.500  0.250  0.752-  18 2.26  21 2.26  10 2.27  13 2.27
  47  0.000  0.750  0.752-  19 2.26  24 2.26  11 2.27  16 2.27
  48  0.500  0.750  0.752-  20 2.26  23 2.26  12 2.27  15 2.27
  49  0.000  0.000  0.003-  11 2.27  14 2.27   1 2.28   8 2.28
  50  0.500  0.000  0.003-  12 2.27  13 2.27   2 2.28   7 2.28
  51  0.000  0.500  0.003-   9 2.27  16 2.27   3 2.28   6 2.28
  52  0.500  0.500  0.003-  10 2.27  15 2.27   4 2.28   5 2.28
  53  0.250  0.000  0.753-  17 2.27  23 2.27  11 2.28  13 2.28
  54  0.750  0.000  0.753-  18 2.27  24 2.27  12 2.28  14 2.28
  55  0.250  0.500  0.753-  19 2.27  21 2.27   9 2.28  15 2.28
  56  0.750  0.500  0.753-  20 2.27  22 2.27  10 2.28  16 2.28
  57  0.250  0.250  0.503-  25 2.27  29 2.27  17 2.28  21 2.28
  58  0.750  0.250  0.503-  26 2.27  30 2.27  18 2.28  22 2.28
  59  0.250  0.750  0.503-  27 2.27  31 2.27  19 2.28  23 2.28
  60  0.750  0.750  0.503-  28 2.27  32 2.27  20 2.28  24 2.28
  61  0.000  0.250  0.253-   1 2.27   6 2.27  26 2.28  29 2.28
  62  0.500  0.250  0.253-   2 2.27   5 2.27  25 2.28  30 2.28
  63  0.000  0.750  0.253-   3 2.27   8 2.27  28 2.28  31 2.28
  64  0.500  0.750  0.253-   4 2.27   7 2.27  27 2.28  32 2.28
 
  LATTYP: Found a base centered orthorhombic cell.
 ALAT       =    14.5471168905
 B/A-ratio  =     1.0427684610
 C/A-ratio  =     0.7165023199
  
  Lattice vectors:
  
 A1 = (  10.5063310000,   0.2199660000,   0.0000000000)
 A2 = (  -0.2199660000, -10.5063310000,   0.0000000000)
 A3 = (   0.0000000000,   0.0000000000, -10.4230430000)


Analysis of symmetry for initial positions (statically):
=====================================================================
 Subroutine PRICEL returns following result:
 
  LATTYP: Found a face centered orthorhombic cell.
 ALAT       =     7.2735584453
 B/A-ratio  =     1.0427684610
 C/A-ratio  =     1.4330046398
  
  Lattice vectors:
  
 A1 = (  -2.6815742500,  -2.6815742500,   5.2115215000)
 A2 = (  -2.5715912500,   2.5715912500,   5.2115215000)
 A3 = (  -5.2531655000,  -0.1099830000,   0.0000000000)
 
   8 primitive cells build up your supercell.
 

 Routine SETGRP: Setting up the symmetry group for a 
 base centered orthorhombic supercell.


 Subroutine GETGRP returns: Found  4 space group operations
 (whereof  2 operations were pure point group operations)
 out of a pool of  8 trial point group operations.


The static configuration has the point symmetry C_2 .
 The point group associated with its full space group is C_2v.


Analysis of symmetry for dynamics (positions and initial velocities):
=====================================================================
 Subroutine PRICEL returns following result:
 
  LATTYP: Found a face centered orthorhombic cell.
 ALAT       =     7.2735584453
 B/A-ratio  =     1.0427684610
 C/A-ratio  =     1.4330046398
  
  Lattice vectors:
  
 A1 = (  -2.6815742500,  -2.6815742500,   5.2115215000)
 A2 = (  -2.5715912500,   2.5715912500,   5.2115215000)
 A3 = (  -5.2531655000,  -0.1099830000,   0.0000000000)
 
   8 primitive cells build up your supercell.
 

 Routine SETGRP: Setting up the symmetry group for a 
 base centered orthorhombic supercell.


 Subroutine GETGRP returns: Found  4 space group operations
 (whereof  2 operations were pure point group operations)
 out of a pool of  8 trial point group operations.


The dynamic configuration has the point symmetry C_2 .
 The point group associated with its full space group is C_2v.


Analysis of structural, dynamic, and magnetic symmetry:
=====================================================================
 Subroutine PRICEL returns following result:
 
  LATTYP: Found a face centered orthorhombic cell.
 ALAT       =     7.2735584453
 B/A-ratio  =     1.0427684610
 C/A-ratio  =     1.4330046398
  
  Lattice vectors:
  
 A1 = (  -2.6815742500,  -2.6815742500,   5.2115215000)
 A2 = (  -2.5715912500,   2.5715912500,   5.2115215000)
 A3 = (  -5.2531655000,  -0.1099830000,   0.0000000000)
 
   8 primitive cells build up your supercell.
 

 Routine SETGRP: Setting up the symmetry group for a 
 base centered orthorhombic supercell.


 Subroutine GETGRP returns: Found  4 space group operations
 (whereof  2 operations were pure point group operations)
 out of a pool of  8 trial point group operations.


The magnetic configuration has the point symmetry C_2 .
 The point group associated with its full space group is C_2v.


 Subroutine INISYM returns: Found  4 space group operations
 (whereof  2 operations are pure point group operations),
 and found     8 'primitive' translations

 
 
 KPOINTS: Automatic mesh                          

Automatic generation of k-mesh.
Space group operators:
 irot       det(A)        alpha          n_x          n_y          n_z        tau_x        tau_y        tau_z
    1     1.000000     0.000001     1.000000     0.000000     0.000000     0.000000     0.000000     0.000000
    2     1.000000   180.000000     0.000000     0.000000     1.000000     0.000000     0.000000     0.000000
    3    -1.000000   180.000000     0.707107     0.707107     0.000000    -0.750000     0.000000     0.750000
    4    -1.000000   180.000000     0.707107    -0.707107     0.000000    -0.750000     0.000000     0.750000
 
 Subroutine IBZKPT returns following result:
 ===========================================
 
 Found      6 irreducible k-points:
 
 Following reciprocal coordinates:
            Coordinates               Weight
  0.000000  0.000000  0.000000      1.000000
  0.500000  0.000000  0.000000      2.000000
  0.500000  0.500000  0.000000      1.000000
  0.000000  0.000000  0.500000      1.000000
  0.500000  0.000000  0.500000      2.000000
  0.500000  0.500000  0.500000      1.000000
 
 Following cartesian coordinates:
            Coordinates               Weight
  0.000000  0.000000  0.000000      1.000000
  0.047611 -0.000997  0.000000      2.000000
  0.046614  0.046614  0.000000      1.000000
  0.000000  0.000000  0.047971      1.000000
  0.047611 -0.000997  0.047971      2.000000
  0.046614  0.046614  0.047971      1.000000
 
 
 Subroutine IBZKPT_HF returns following result:
 ==============================================
 
 Found      8 k-points in 1st BZ
 the following      8 k-points will be used (e.g. in the exchange kernel)
 Following reciprocal coordinates:   # in IRBZ
  0.000000  0.000000  0.000000    0.12500000   1 t-inv F
  0.500000  0.000000  0.000000    0.12500000   2 t-inv F
  0.500000  0.500000  0.000000    0.12500000   3 t-inv F
  0.000000  0.000000  0.500000    0.12500000   4 t-inv F
  0.500000  0.000000  0.500000    0.12500000   5 t-inv F
  0.500000  0.500000  0.500000    0.12500000   6 t-inv F
 -0.000000 -0.500000  0.000000    0.12500000   2 t-inv F spinflp
 -0.000000 -0.500000  0.500000    0.12500000   5 t-inv F spinflp


--------------------------------------------------------------------------------------------------------




 Dimension of arrays:
   k-points           NKPTS =      6   k-points in BZ     NKDIM =      6   number of bands    NBANDS=    512
   number of dos      NEDOS =    301   number of ions     NIONS =     64
   non local maximal  LDIM  =      6   non local SUM 2l+1 LMDIM =     18
   total plane-waves  NPLWV = 829440
   max r-space proj   IRMAX =      1   max aug-charges    IRDMAX=  22919
   dimension x,y,z NGX =    96 NGY =   96 NGZ =   90
   dimension x,y,z NGXF=   192 NGYF=  192 NGZF=  180
   support grid    NGXF=   192 NGYF=  192 NGZF=  180
   ions per type =              32  16  16
   NGX,Y,Z   is equivalent  to a cutoff of  15.19, 15.19, 14.35 a.u.
   NGXF,Y,Z  is equivalent  to a cutoff of  30.37, 30.37, 28.71 a.u.

 SYSTEM =  CuFeS2                                  
 POSCAR =  Fe16 Cu16 S32                           

 Startparameter for this run:
   NWRITE =      2    write-flag & timer
   PREC   = accura    normal or accurate (medium, high low for compatibility)
   ISTART =      1    job   : 0-new  1-cont  2-samecut
   ICHARG =      1    charge: 1-file 2-atom 10-const
   ISPIN  =      2    spin polarized calculation?
   LNONCOLLINEAR =      F non collinear calculations
   LSORBIT =      F    spin-orbit coupling
   INIWAV =      1    electr: 0-lowe 1-rand  2-diag
   LASPH  =      F    aspherical Exc in radial PAW
   METAGGA=      F    non-selfconsistent MetaGGA calc.

 Electronic Relaxation 1
   ENCUT  =  700.0 eV  51.45 Ry    7.17 a.u.  22.67 22.67 22.49*2*pi/ulx,y,z
   ENINI  =  700.0     initial cutoff
   ENAUG  =  758.2 eV  augmentation charge cutoff
   NELM   =    500;   NELMIN=  2; NELMDL=  0     # of ELM steps 
   EDIFF  = 0.1E-07   stopping-criterion for ELM
   LREAL  =      F    real-space projection
   NLSPLINE    = F    spline interpolate recip. space projectors
   LCOMPAT=      F    compatible to vasp.4.4
   GGA_COMPAT  = T    GGA compatible to vasp.4.4-vasp.4.6
   LMAXPAW     = -100 max onsite density
   LMAXMIX     =    4 max onsite mixed and CHGCAR
   VOSKOWN=      0    Vosko Wilk Nusair interpolation
   ROPT   =    0.00000   0.00000   0.00000
 Ionic relaxation
   EDIFFG = -.1E-04   stopping-criterion for IOM
   NSW    =      0    number of steps for IOM
   NBLOCK =      1;   KBLOCK =      1    inner block; outer block 
   IBRION =     -1    ionic relax: 0-MD 1-quasi-New 2-CG
   NFREE  =      0    steps in history (QN), initial steepest desc. (CG)
   ISIF   =      2    stress and relaxation
   IWAVPR =     10    prediction:  0-non 1-charg 2-wave 3-comb
   ISYM   =      2    0-nonsym 1-usesym 2-fastsym
   LCORR  =      T    Harris-Foulkes like correction to forces

   POTIM  = 0.5000    time-step for ionic-motion
   TEIN   =    0.0    initial temperature
   TEBEG  =    0.0;   TEEND  =   0.0 temperature during run
   SMASS  =  -3.00    Nose mass-parameter (am)
   estimated Nose-frequenzy (Omega)   =  0.10E-29 period in steps =****** mass=  -0.252E-26a.u.
   SCALEE = 1.0000    scale energy and forces
   NPACO  =    256;   APACO  = 16.0  distance and # of slots for P.C.
   PSTRESS=    0.0 pullay stress

  Mass of Ions in am
   POMASS =  32.07 63.55 55.85
  Ionic Valenz
   ZVAL   =   6.00 17.00 14.00
  Atomic Wigner-Seitz radii
   RWIGS  =  -1.00 -1.00 -1.00
  virtual crystal weights 
   VCA    =   1.00  1.00  1.00
   NELECT =     688.0000    total number of electrons
   NUPDOWN=      -1.0000    fix difference up-down

 DOS related values:
   EMIN   =  10.00;   EMAX   =-10.00  energy-range for DOS
   EFERMI =   0.00
   ISMEAR =     0;   SIGMA  =   0.03  broadening in eV -4-tet -1-fermi 0-gaus

 Electronic relaxation 2 (details)
   IALGO  =     38    algorithm
   LDIAG  =      T    sub-space diagonalisation (order eigenvalues)
   LSUBROT=      F    optimize rotation matrix (better conditioning)
   TURBO    =      0    0=normal 1=particle mesh
   IRESTART =      0    0=no restart 2=restart with 2 vectors
   NREBOOT  =      0    no. of reboots
   NMIN     =      0    reboot dimension
   EREF     =   0.00    reference energy to select bands
   IMIX   =      4    mixing-type and parameters
     AMIX     =   0.40;   BMIX     =  1.00
     AMIX_MAG =   1.60;   BMIX_MAG =  1.00
     AMIN     =   0.10
     WC   =   100.;   INIMIX=   1;  MIXPRE=   1;  MAXMIX= -45

 Intra band minimization:
   WEIMIN = 0.0000     energy-eigenvalue tresh-hold
   EBREAK =  0.49E-11  absolut break condition
   DEPER  =   0.30     relativ break condition  

   TIME   =   0.40     timestep for ELM

  volume/ion in A,a.u.               =      17.97       121.26
  Fermi-wavevector in a.u.,A,eV,Ry     =   1.379438  2.606760 25.889839  1.902849
  Thomas-Fermi vector in A             =   2.504408
 
 Write flags
   LWAVE        =      T    write WAVECAR
   LDOWNSAMPLE  =      F    k-point downsampling of WAVECAR
   LCHARG       =      T    write CHGCAR
   LVTOT        =      F    write LOCPOT, total local potential
   LVHAR        =      F    write LOCPOT, Hartree potential only
   LELF         =      F    write electronic localiz. function (ELF)
   LORBIT       =     11    0 simple, 1 ext, 2 COOP (PROOUT), +10 PAW based schemes


 Dipole corrections
   LMONO  =      F    monopole corrections only (constant potential shift)
   LDIPOL =      F    correct potential (dipole corrections)
   IDIPOL =      0    1-x, 2-y, 3-z, 4-all directions 
   EPSILON=  1.0000000 bulk dielectric constant

 LDA+U is selected, type is set to LDAUTYPE =  2
   angular momentum for each species LDAUL =     2    2    2
   U (eV)           for each species LDAUU =   0.0  0.1  4.7
   J (eV)           for each species LDAUJ =   0.0  0.0  0.0
 Exchange correlation treatment:
   GGA     =    PS    GGA type
   LEXCH   =    14    internal setting for exchange type
   VOSKOWN=      0    Vosko Wilk Nusair interpolation
   LHFCALC =     F    Hartree Fock is set to
   LHFONE  =     F    Hartree Fock one center treatment
   AEXX    =    0.0000 exact exchange contribution

 Linear response parameters
   LEPSILON=     F    determine dielectric tensor
   LRPA    =     F    only Hartree local field effects (RPA)
   LNABLA  =     F    use nabla operator in PAW spheres
   LVEL    =     F    velocity operator in full k-point grid
   LINTERFAST=   F  fast interpolation
   KINTER  =     0    interpolate to denser k-point grid
   CSHIFT  =0.1000    complex shift for real part using Kramers Kronig
   OMEGAMAX=  -1.0    maximum frequency
   DEG_THRESHOLD= 0.2000000E-02 threshold for treating states as degnerate
   RTIME   =   -0.100 relaxation time in fs
  (WPLASMAI=    0.000 imaginary part of plasma frequency in eV, 0.658/RTIME)
   DFIELD  = 0.0000000 0.0000000 0.0000000 field for delta impulse in time
 
 Orbital magnetization related:
   ORBITALMAG=     F  switch on orbital magnetization
   LCHIMAG   =     F  perturbation theory with respect to B field
   DQ        =  0.001000  dq finite difference perturbation B field
   LLRAUG    =     F  two centre corrections for induced B field

 PEAD related settings:
   LPEAD      =     T    switch on PEAD
   IPEAD      =     4    finite difference order for dpsi/dk
   LCALCPOL   =     T    calculate macroscopic polarization
   LCALCEPS   =     F    calculate dielectric tensor
   EFIELD_PEAD=    0.0000    0.0000    0.0000
   SKIP_EDOTP =     F
   LRPA       =     F
   SKIP_SCF   =     F


--------------------------------------------------------------------------------------------------------


 Static calculation
 charge density and potential will be updated during run
 spin polarized calculation
 Variant of blocked Davidson
 Davidson routine will perform the subspace rotation
 perform sub-space diagonalisation
    after iterative eigenvector-optimisation
 modified Broyden-mixing scheme, WC =      100.0
 initial mixing is a Kerker type mixing with AMIX =  0.4000 and BMIX =      1.0000
 Hartree-type preconditioning will be used
 using additional bands          168
 reciprocal scheme for non local part
 use partial core corrections
 calculate Harris-corrections to forces 
   (improved forces if not selfconsistent)
 use gradient corrections 
 use of overlap-Matrix (Vanderbilt PP)
 Gauss-broadening in eV      SIGMA  =   0.03


--------------------------------------------------------------------------------------------------------


  energy-cutoff  :      700.00
  volume of cell :     1150.02
      direct lattice vectors                 reciprocal lattice vectors
    10.506331000  0.219966000  0.000000000     0.095222445 -0.001993627  0.000000000
     0.219966000 10.506331000  0.000000000    -0.001993627  0.095222445  0.000000000
     0.000000000  0.000000000 10.423043000     0.000000000  0.000000000  0.095941272

  length of vectors
    10.508633409 10.508633409 10.423043000     0.095243313  0.095243313  0.095941272


 
 old parameters found on file WAVECAR:
  energy-cutoff  :      700.00
  volume of cell :     1150.02
      direct lattice vectors                 reciprocal lattice vectors
    10.506331000  0.219966000  0.000000000     0.095222445 -0.001993627  0.000000000
     0.219966000 10.506331000  0.000000000    -0.001993627  0.095222445  0.000000000
     0.000000000  0.000000000 10.423043000     0.000000000  0.000000000  0.095941272

  length of vectors

 
 k-points in units of 2pi/SCALE and weight: Automatic mesh                          
   0.00000000  0.00000000  0.00000000       0.125
   0.04761122 -0.00099681  0.00000000       0.250
   0.04661441  0.04661441  0.00000000       0.125
   0.00000000  0.00000000  0.04797064       0.125
   0.04761122 -0.00099681  0.04797064       0.250
   0.04661441  0.04661441  0.04797064       0.125
 
 k-points in reciprocal lattice and weights: Automatic mesh                          
   0.00000000  0.00000000  0.00000000       0.125
   0.50000000  0.00000000  0.00000000       0.250
   0.50000000  0.50000000  0.00000000       0.125
   0.00000000  0.00000000  0.50000000       0.125
   0.50000000  0.00000000  0.50000000       0.250
   0.50000000  0.50000000  0.50000000       0.125
 
 position of ions in fractional coordinates (direct lattice) 
   0.12614300  0.12526700  0.12266400
   0.62614300  0.12526700  0.12266400
   0.12614300  0.62526700  0.12266400
   0.62614300  0.62526700  0.12266400
   0.37385700  0.37473300  0.12266400
   0.87385700  0.37473300  0.12266400
   0.37385700  0.87473300  0.12266400
   0.87385700  0.87473300  0.12266400
   0.12473300  0.37385700  0.87266400
   0.62473300  0.37385700  0.87266400
   0.12473300  0.87385700  0.87266400
   0.62473300  0.87385700  0.87266400
   0.37526700  0.12614300  0.87266400
   0.87526700  0.12614300  0.87266400
   0.37526700  0.62614300  0.87266400
   0.87526700  0.62614300  0.87266400
   0.12385700  0.12473300  0.62266400
   0.62385700  0.12473300  0.62266400
   0.12385700  0.62473300  0.62266400
   0.62385700  0.62473300  0.62266400
   0.37614300  0.37526700  0.62266400
   0.87614300  0.37526700  0.62266400
   0.37614300  0.87526700  0.62266400
   0.87614300  0.87526700  0.62266400
   0.37473300  0.12385700  0.37266400
   0.87473300  0.12385700  0.37266400
   0.37473300  0.62385700  0.37266400
   0.87473300  0.62385700  0.37266400
   0.12526700  0.37614300  0.37266400
   0.62526700  0.37614300  0.37266400
   0.12526700  0.87614300  0.37266400
   0.62526700  0.87614300  0.37266400
   0.00000000  0.00000000  0.50198900
   0.50000000  0.00000000  0.50198900
   0.00000000  0.50000000  0.50198900
   0.50000000  0.50000000  0.50198900
   0.25000000  0.00000000  0.25198900
   0.75000000  0.00000000  0.25198900
   0.25000000  0.50000000  0.25198900
   0.75000000  0.50000000  0.25198900
   0.25000000  0.25000000  0.00198900
   0.75000000  0.25000000  0.00198900
   0.25000000  0.75000000  0.00198900
   0.75000000  0.75000000  0.00198900
   0.00000000  0.25000000  0.75198900
   0.50000000  0.25000000  0.75198900
   0.00000000  0.75000000  0.75198900
   0.50000000  0.75000000  0.75198900
   0.00000000  0.00000000  0.00268200
   0.50000000  0.00000000  0.00268200
   0.00000000  0.50000000  0.00268200
   0.50000000  0.50000000  0.00268200
   0.25000000  0.00000000  0.75268200
   0.75000000  0.00000000  0.75268200
   0.25000000  0.50000000  0.75268200
   0.75000000  0.50000000  0.75268200
   0.25000000  0.25000000  0.50268200
   0.75000000  0.25000000  0.50268200
   0.25000000  0.75000000  0.50268200
   0.75000000  0.75000000  0.50268200
   0.00000000  0.25000000  0.25268200
   0.50000000  0.25000000  0.25268200
   0.00000000  0.75000000  0.25268200
   0.50000000  0.75000000  0.25268200
 
 position of ions in cartesian coordinates  (Angst):
   1.35285459  1.34384374  1.27853215
   6.60602009  1.45382674  1.27853215
   1.46283759  6.59700924  1.27853215
   6.71600309  6.70699224  1.27853215
   4.01029391  4.01930476  1.27853215
   9.26345941  4.12928776  1.27853215
   4.12027691  9.27247026  1.27853215
   9.37344241  9.38245326  1.27853215
   1.39272201  3.95530241  9.09581440
   6.64588751  4.06528541  9.09581440
   1.50270501  9.20846791  9.09581440
   6.75587051  9.31845091  9.09581440
   3.97042649  1.40784609  9.09581440
   9.22359199  1.51782909  9.09581440
   4.08040949  6.66101159  9.09581440
   9.33357499  6.77099459  9.09581440
   1.32871966  1.33773051  6.49005365
   6.58188516  1.44771351  6.49005365
   1.43870266  6.59089601  6.49005365
   6.69186816  6.70087901  6.49005365
   4.03442884  4.02541799  6.49005365
   9.28759434  4.13540099  6.49005365
   4.14441184  9.27858349  6.49005365
   9.39757734  9.38856649  6.49005365
   3.96431326  1.38371116  3.88429290
   9.21747876  1.49369416  3.88429290
   4.07429626  6.63687666  3.88429290
   9.32746176  6.74685966  3.88429290
   1.39883524  3.97943734  3.88429290
   6.65200074  4.08942034  3.88429290
   1.50881824  9.23260284  3.88429290
   6.76198374  9.34258584  3.88429290
   0.00000000  0.00000000  5.23225293
   5.25316550  0.10998300  5.23225293
   0.10998300  5.25316550  5.23225293
   5.36314850  5.36314850  5.23225293
   2.62658275  0.05499150  2.62649218
   7.87974825  0.16497450  2.62649218
   2.73656575  5.30815700  2.62649218
   7.98973125  5.41814000  2.62649218
   2.68157425  2.68157425  0.02073143
   7.93473975  2.79155725  0.02073143
   2.79155725  7.93473975  0.02073143
   8.04472275  8.04472275  0.02073143
   0.05499150  2.62658275  7.83801368
   5.30815700  2.73656575  7.83801368
   0.16497450  7.87974825  7.83801368
   5.41814000  7.98973125  7.83801368
   0.00000000  0.00000000  0.02795460
   5.25316550  0.10998300  0.02795460
   0.10998300  5.25316550  0.02795460
   5.36314850  5.36314850  0.02795460
   2.62658275  0.05499150  7.84523685
   7.87974825  0.16497450  7.84523685
   2.73656575  5.30815700  7.84523685
   7.98973125  5.41814000  7.84523685
   2.68157425  2.68157425  5.23947610
   7.93473975  2.79155725  5.23947610
   2.79155725  7.93473975  5.23947610
   8.04472275  8.04472275  5.23947610
   0.05499150  2.62658275  2.63371535
   5.30815700  2.73656575  2.63371535
   0.16497450  7.87974825  2.63371535
   5.41814000  7.98973125  2.63371535
 


--------------------------------------------------------------------------------------------------------


 k-point  1 :   0.0000 0.0000 0.0000  plane waves:   48383
 k-point  2 :   0.5000 0.0000 0.0000  plane waves:   48384
 k-point  3 :   0.5000 0.5000 0.0000  plane waves:   48416
 k-point  4 :   0.0000 0.0000 0.5000  plane waves:   48416
 k-point  5 :   0.5000 0.0000 0.5000  plane waves:   48348
 k-point  6 :   0.5000 0.5000 0.5000  plane waves:   48280

 maximum and minimum number of plane-waves per node :     48416    48280

 maximum number of plane-waves:     48416
 maximum index in each direction: 
   IXMAX=   22   IYMAX=   22   IZMAX=   22
   IXMIN=  -23   IYMIN=  -23   IZMIN=  -22


 serial   3D FFT for wavefunctions
 parallel 3D FFT for charge:
    minimum data exchange during FFTs selected (reduces bandwidth)


 total amount of memory used by VASP MPI-rank0   301249. kBytes
=======================================================================

   base      :      30000. kBytes
   nonl-proj :     175882. kBytes
   fftplans  :       4588. kBytes
   grid      :      69719. kBytes
   one-center:       1990. kBytes
   wavefun   :      19070. kBytes
 
     INWAV:  cpu time   11.3411: real time   11.4400
 Broyden mixing: mesh for mixing (old mesh)
   NGX = 45   NGY = 45   NGZ = 45
  (NGX  =192   NGY  =192   NGZ  =180)
  gives a total of  91125 points

 initial charge density was supplied:
 number of electron     688.0000345 magnetization       0.0000000
 keeping initial charge density in first step


--------------------------------------------------------------------------------------------------------


 Maximum index for augmentation-charges          892 (set IRDMAX)


--------------------------------------------------------------------------------------------------------


 First call to EWALD:  gamma=   0.169
 Maximum number of real-space cells 3x 3x 3
 Maximum number of reciprocal cells 3x 3x 3

    FEWALD:  cpu time    0.0027: real time    0.0032


--------------------------------------- Iteration      1(   1)  ---------------------------------------


    POTLOK:  cpu time    0.3434: real time    0.4116
    SETDIJ:  cpu time    0.0146: real time    0.0147
     EDDAV:  cpu time  142.3634: real time  143.4051
       DOS:  cpu time    0.0017: real time    0.0017
    CHARGE:  cpu time    1.1998: real time    1.2076
    MIXING:  cpu time    0.0045: real time    0.0046
    --------------------------------------------
      LOOP:  cpu time  143.9273: real time  145.0453

 eigenvalue-minimisations  : 18944
 total energy-change (2. order) :-0.2984472E+03  (-0.1755232E+03)
 number of electron     688.0000346 magnetization       0.0000000
 augmentation part      283.1563160 magnetization       0.0000000

 Broyden mixing:
  rms(total) = 0.41520E+01    rms(broyden)= 0.41520E+01
  rms(prec ) = 0.41535E+01
  weight for this iteration     100.00

 Free energy of the ion-electron system (eV)
  ---------------------------------------------------
  alpha Z        PSCENC =      2357.47640996
  Ewald energy   TEWEN  =    -62487.42609692
  -Hartree energ DENC   =    -42952.71979451
  -exchange      EXHF   =         0.00000000
  -V(xc)+E(xc)   XCENC  =      3287.09916675
  PAW double counting   =    112306.38014915  -115998.98796151
  entropy T*S    EENTRO =        -0.00000000
  eigenvalues    EBANDS =    -10830.33414801
  atomic energy  EATOM  =    114020.06510763
  Solvation  Ediel_sol  =         0.00000000
  ---------------------------------------------------
  free energy    TOTEN  =      -298.44716746 eV

  energy without entropy =     -298.44716746  energy(sigma->0) =     -298.44716746


--------------------------------------------------------------------------------------------------------




--------------------------------------- Iteration      1(   2)  ---------------------------------------


    POTLOK:  cpu time    0.1410: real time    0.1422
    SETDIJ:  cpu time    0.0131: real time    0.0132
     EDDAV:  cpu time   82.5005: real time   83.0897
       DOS:  cpu time    0.0008: real time    0.0008
    CHARGE:  cpu time    1.2017: real time    1.2086
    MIXING:  cpu time    0.0032: real time    0.1490
    --------------------------------------------
      LOOP:  cpu time   83.8604: real time   84.6035

 eigenvalue-minimisations  : 14080
 total energy-change (2. order) :-0.2919282E+02  (-0.2926617E+02)
 number of electron     688.0000345 magnetization       0.0000000
 augmentation part      281.4565235 magnetization       0.0000000

 Broyden mixing:
  rms(total) = 0.16874E+01    rms(broyden)= 0.16874E+01
  rms(prec ) = 0.17025E+01
  weight for this iteration     100.00

 eigenvalues of (default mixing * dielectric matrix)
  average eigenvalue GAMMA=   0.7007
  0.7007

 Free energy of the ion-electron system (eV)
  ---------------------------------------------------
  alpha Z        PSCENC =      2357.47640996
  Ewald energy   TEWEN  =    -62487.42609692
  -Hartree energ DENC   =    -42965.01645441
  -exchange      EXHF   =         0.00000000
  -V(xc)+E(xc)   XCENC  =      3287.45655953
  PAW double counting   =    115864.02985857  -119573.47281840
  entropy T*S    EENTRO =        -0.00000000
  eigenvalues    EBANDS =    -10830.75255552
  atomic energy  EATOM  =    114020.06510763
  Solvation  Ediel_sol  =         0.00000000
  ---------------------------------------------------
  free energy    TOTEN  =      -327.63998957 eV

  energy without entropy =     -327.63998957  energy(sigma->0) =     -327.63998957


--------------------------------------------------------------------------------------------------------




--------------------------------------- Iteration      1(   3)  ---------------------------------------


    POTLOK:  cpu time    0.1416: real time    0.1426
    SETDIJ:  cpu time    0.0132: real time    0.0133
     EDDAV:  cpu time  148.6889: real time  149.6666
       DOS:  cpu time    0.0008: real time    0.0008
    CHARGE:  cpu time    1.1998: real time    1.2069
    MIXING:  cpu time    0.0019: real time    0.0030
    --------------------------------------------
      LOOP:  cpu time  150.0463: real time  151.0332

 eigenvalue-minimisations  : 19968
 total energy-change (2. order) :-0.3214223E+00  (-0.5274621E+00)
 number of electron     688.0000346 magnetization       0.0000000
 augmentation part      282.3370835 magnetization       0.0000000

 Broyden mixing:
  rms(total) = 0.12608E+01    rms(broyden)= 0.12608E+01
  rms(prec ) = 0.12752E+01
  weight for this iteration     100.00

 eigenvalues of (default mixing * dielectric matrix)
  average eigenvalue GAMMA=   0.5092
  0.5092  0.5092

 Free energy of the ion-electron system (eV)
  ---------------------------------------------------
  alpha Z        PSCENC =      2357.47640996
  Ewald energy   TEWEN  =    -62487.42609692
  -Hartree energ DENC   =    -42928.31482885
  -exchange      EXHF   =         0.00000000
  -V(xc)+E(xc)   XCENC  =      3286.73521315
  PAW double counting   =    114864.64398281  -118564.26040316
  entropy T*S    EENTRO =        -0.00000000
  eigenvalues    EBANDS =    -10876.88079651
  atomic energy  EATOM  =    114020.06510763
  Solvation  Ediel_sol  =         0.00000000
  ---------------------------------------------------
  free energy    TOTEN  =      -327.96141189 eV

  energy without entropy =     -327.96141189  energy(sigma->0) =     -327.96141189


--------------------------------------------------------------------------------------------------------




--------------------------------------- Iteration      1(   4)  ---------------------------------------


    POTLOK:  cpu time    0.1407: real time    0.1415
    SETDIJ:  cpu time    0.0130: real time    0.0131
     EDDAV:  cpu time   85.4255: real time   86.0283
       DOS:  cpu time    0.0009: real time    0.0009
    CHARGE:  cpu time    1.1990: real time    1.2070
    MIXING:  cpu time    0.0020: real time    0.0033
    --------------------------------------------
      LOOP:  cpu time   86.7810: real time   87.3940

 eigenvalue-minimisations  : 13824
 total energy-change (2. order) : 0.2168980E-01  (-0.5739736E-01)
 number of electron     688.0000345 magnetization       0.0000000
 augmentation part      282.1871386 magnetization       0.0000000

 Broyden mixing:
  rms(total) = 0.10553E+01    rms(broyden)= 0.10553E+01
  rms(prec ) = 0.10562E+01
  weight for this iteration     100.00

 eigenvalues of (default mixing * dielectric matrix)
  average eigenvalue GAMMA=   0.5324
  0.6252  0.6252  0.3470

 Free energy of the ion-electron system (eV)
  ---------------------------------------------------
  alpha Z        PSCENC =      2357.47640996
  Ewald energy   TEWEN  =    -62487.42609692
  -Hartree energ DENC   =    -42930.15565392
  -exchange      EXHF   =         0.00000000
  -V(xc)+E(xc)   XCENC  =      3286.40200268
  PAW double counting   =    114561.64416701  -118261.96327923
  entropy T*S    EENTRO =        -0.00000000
  eigenvalues    EBANDS =    -10873.98237929
  atomic energy  EATOM  =    114020.06510763
  Solvation  Ediel_sol  =         0.00000000
  ---------------------------------------------------
  free energy    TOTEN  =      -327.93972209 eV

  energy without entropy =     -327.93972209  energy(sigma->0) =     -327.93972209


--------------------------------------------------------------------------------------------------------




--------------------------------------- Iteration      1(   5)  ---------------------------------------


    POTLOK:  cpu time    0.1392: real time    0.1407
    SETDIJ:  cpu time    0.0131: real time    0.0132
     EDDAV:  cpu time   96.5410: real time   97.2131
       DOS:  cpu time    0.0008: real time    0.0008
    CHARGE:  cpu time    1.1831: real time    1.1910
    MIXING:  cpu time    0.0019: real time    0.0019
    --------------------------------------------
      LOOP:  cpu time   97.8792: real time   98.5607

 eigenvalue-minimisations  : 15104
 total energy-change (2. order) : 0.2756008E-03  (-0.3798594E-02)
 number of electron     688.0000345 magnetization       0.0000000
 augmentation part      282.1202741 magnetization       0.0000000

 Broyden mixing:
  rms(total) = 0.91028E+00    rms(broyden)= 0.91028E+00
  rms(prec ) = 0.91053E+00
  weight for this iteration     100.00

 eigenvalues of (default mixing * dielectric matrix)
  average eigenvalue GAMMA=   0.5852
  0.8058  0.8058  0.3646  0.3646

 Free energy of the ion-electron system (eV)
  ---------------------------------------------------
  alpha Z        PSCENC =      2357.47640996
  Ewald energy   TEWEN  =    -62487.42609692
  -Hartree energ DENC   =    -42938.20174564
  -exchange      EXHF   =         0.00000000
  -V(xc)+E(xc)   XCENC  =      3286.61988728
  PAW double counting   =    114220.13047739  -117920.20995389
  entropy T*S    EENTRO =        -0.00000000
  eigenvalues    EBANDS =    -10866.39353230
  atomic energy  EATOM  =    114020.06510763
  Solvation  Ediel_sol  =         0.00000000
  ---------------------------------------------------
  free energy    TOTEN  =      -327.93944649 eV

  energy without entropy =     -327.93944649  energy(sigma->0) =     -327.93944649


--------------------------------------------------------------------------------------------------------




--------------------------------------- Iteration      1(   6)  ---------------------------------------


    POTLOK:  cpu time    0.1395: real time    0.1404
    SETDIJ:  cpu time    0.0132: real time    0.0133
     EDDAV:  cpu time  106.1743: real time  106.8942
       DOS:  cpu time    0.0008: real time    0.0009
    CHARGE:  cpu time    1.1991: real time    1.2068
    MIXING:  cpu time    0.0020: real time    0.0020
    --------------------------------------------
      LOOP:  cpu time  107.5289: real time  108.2575

 eigenvalue-minimisations  : 15872
 total energy-change (2. order) : 0.3578843E-03  (-0.4012896E-03)
 number of electron     688.0000345 magnetization      -0.0000000
 augmentation part      282.1104641 magnetization      -0.0000000

 Broyden mixing:
  rms(total) = 0.72011E+00    rms(broyden)= 0.72011E+00
  rms(prec ) = 0.72057E+00
  weight for this iteration     100.00

 eigenvalues of (default mixing * dielectric matrix)
  average eigenvalue GAMMA=   0.8107
  1.3241  1.3241  0.5378  0.5378  0.3299

 Free energy of the ion-electron system (eV)
  ---------------------------------------------------
  alpha Z        PSCENC =      2357.47640996
  Ewald energy   TEWEN  =    -62487.42609692
  -Hartree energ DENC   =    -42939.82063522
  -exchange      EXHF   =         0.00000000
  -V(xc)+E(xc)   XCENC  =      3286.60259543
  PAW double counting   =    113784.37354870  -117483.07194784
  entropy T*S    EENTRO =        -0.00000000
  eigenvalues    EBANDS =    -10866.13807034
  atomic energy  EATOM  =    114020.06510763
  Solvation  Ediel_sol  =         0.00000000
  ---------------------------------------------------
  free energy    TOTEN  =      -327.93908861 eV

  energy without entropy =     -327.93908861  energy(sigma->0) =     -327.93908861


--------------------------------------------------------------------------------------------------------




--------------------------------------- Iteration      1(   7)  ---------------------------------------


    POTLOK:  cpu time    0.1391: real time    0.1401
    SETDIJ:  cpu time    0.0131: real time    0.0132
     EDDAV:  cpu time  112.2098: real time  112.9621
       DOS:  cpu time    0.0008: real time    0.0008
    CHARGE:  cpu time    1.1987: real time    1.2059
    MIXING:  cpu time    0.0020: real time    0.0021
    --------------------------------------------
      LOOP:  cpu time  113.5637: real time  114.3242

 eigenvalue-minimisations  : 16128
 total energy-change (2. order) : 0.2184188E-02  (-0.7517947E-03)
 number of electron     688.0000346 magnetization      -0.0000000
 augmentation part      282.2098792 magnetization      -0.0000000

 Broyden mixing:
  rms(total) = 0.15382E+00    rms(broyden)= 0.15382E+00
  rms(prec ) = 0.15404E+00
  weight for this iteration     100.00

 eigenvalues of (default mixing * dielectric matrix)
  average eigenvalue GAMMA=   0.8732
  1.5530  1.5530  0.6171  0.6171  0.5598  0.3391

 Free energy of the ion-electron system (eV)
  ---------------------------------------------------
  alpha Z        PSCENC =      2357.47640996
  Ewald energy   TEWEN  =    -62487.42609692
  -Hartree energ DENC   =    -42940.77257178
  -exchange      EXHF   =         0.00000000
  -V(xc)+E(xc)   XCENC  =      3286.52493433
  PAW double counting   =    112522.43199138  -116216.65556463
  entropy T*S    EENTRO =        -0.00000000
  eigenvalues    EBANDS =    -10869.58111439
  atomic energy  EATOM  =    114020.06510763
  Solvation  Ediel_sol  =         0.00000000
  ---------------------------------------------------
  free energy    TOTEN  =      -327.93690442 eV

  energy without entropy =     -327.93690442  energy(sigma->0) =     -327.93690442


--------------------------------------------------------------------------------------------------------




--------------------------------------- Iteration      1(   8)  ---------------------------------------


    POTLOK:  cpu time    0.1364: real time    0.1406
    SETDIJ:  cpu time    0.0130: real time    0.0131
     EDDAV:  cpu time   84.6887: real time   85.2847
       DOS:  cpu time    0.0008: real time    0.0008
    CHARGE:  cpu time    1.1848: real time    1.1918
    MIXING:  cpu time    0.0022: real time    0.0022
    --------------------------------------------
      LOOP:  cpu time   86.0259: real time   86.6333

 eigenvalue-minimisations  : 13824
 total energy-change (2. order) :-0.2292736E-04  (-0.3276095E-04)
 number of electron     688.0000346 magnetization       0.0000000
 augmentation part      282.2074907 magnetization       0.0000000

 Broyden mixing:
  rms(total) = 0.10225E+00    rms(broyden)= 0.10225E+00
  rms(prec ) = 0.10249E+00
  weight for this iteration     100.00

 eigenvalues of (default mixing * dielectric matrix)
  average eigenvalue GAMMA=   0.8011
  1.5784  1.5784  0.6303  0.6303  0.5129  0.3656  0.3118

 Free energy of the ion-electron system (eV)
  ---------------------------------------------------
  alpha Z        PSCENC =      2357.47640996
  Ewald energy   TEWEN  =    -62487.42609692
  -Hartree energ DENC   =    -42941.30476148
  -exchange      EXHF   =         0.00000000
  -V(xc)+E(xc)   XCENC  =      3286.53360569
  PAW double counting   =    112427.32503671  -116121.38986730
  entropy T*S    EENTRO =        -0.00000000
  eigenvalues    EBANDS =    -10869.21636164
  atomic energy  EATOM  =    114020.06510763
  Solvation  Ediel_sol  =         0.00000000
  ---------------------------------------------------
  free energy    TOTEN  =      -327.93692735 eV

  energy without entropy =     -327.93692735  energy(sigma->0) =     -327.93692735


--------------------------------------------------------------------------------------------------------




--------------------------------------- Iteration      1(   9)  ---------------------------------------


    POTLOK:  cpu time    0.1357: real time    0.1396
    SETDIJ:  cpu time    0.0132: real time    0.0132
     EDDAV:  cpu time  141.1494: real time  142.0657
       DOS:  cpu time    0.0008: real time    0.0008
    CHARGE:  cpu time    1.1985: real time    1.2056
    MIXING:  cpu time    0.0022: real time    0.0022
    --------------------------------------------
      LOOP:  cpu time  142.4999: real time  143.4272

 eigenvalue-minimisations  : 18432
 total energy-change (2. order) : 0.1208149E-04  (-0.2100299E-05)
 number of electron     688.0000346 magnetization      -0.0000000
 augmentation part      282.2087673 magnetization      -0.0000000

 Broyden mixing:
  rms(total) = 0.92250E-01    rms(broyden)= 0.92250E-01
  rms(prec ) = 0.92450E-01
  weight for this iteration     100.00

 eigenvalues of (default mixing * dielectric matrix)
  average eigenvalue GAMMA=   1.1253
  2.4817  2.2804  1.0784  1.0044  0.3367  0.5937  0.5937  0.6335

 Free energy of the ion-electron system (eV)
  ---------------------------------------------------
  alpha Z        PSCENC =      2357.47640996
  Ewald energy   TEWEN  =    -62487.42609692
  -Hartree energ DENC   =    -42941.17055440
  -exchange      EXHF   =         0.00000000
  -V(xc)+E(xc)   XCENC  =      3286.53183317
  PAW double counting   =    112417.41459312  -116111.47972348
  entropy T*S    EENTRO =        -0.00000000
  eigenvalues    EBANDS =    -10869.34848435
  atomic energy  EATOM  =    114020.06510763
  Solvation  Ediel_sol  =         0.00000000
  ---------------------------------------------------
  free energy    TOTEN  =      -327.93691527 eV

  energy without entropy =     -327.93691527  energy(sigma->0) =     -327.93691527


--------------------------------------------------------------------------------------------------------




--------------------------------------- Iteration      1(  10)  ---------------------------------------


    POTLOK:  cpu time    0.1384: real time    0.1396
    SETDIJ:  cpu time    0.0131: real time    0.0131
     EDDAV:  cpu time   79.9424: real time   80.5129
       DOS:  cpu time    0.0008: real time    0.0008
    CHARGE:  cpu time    1.2004: real time    1.2074
    MIXING:  cpu time    0.0022: real time    0.0022
    --------------------------------------------
      LOOP:  cpu time   81.2974: real time   81.8761

 eigenvalue-minimisations  : 13312
 total energy-change (2. order) : 0.3997041E-04  (-0.4572190E-04)
 number of electron     688.0000346 magnetization      -0.0000000
 augmentation part      282.2221798 magnetization      -0.0000000

 Broyden mixing:
  rms(total) = 0.17708E-02    rms(broyden)= 0.17704E-02
  rms(prec ) = 0.18405E-02
  weight for this iteration     100.00

 eigenvalues of (default mixing * dielectric matrix)
  average eigenvalue GAMMA=   1.0702
  2.8861  1.6804  1.4053  0.3367  0.7839  0.7839  0.5851  0.5851  0.5855

 Free energy of the ion-electron system (eV)
  ---------------------------------------------------
  alpha Z        PSCENC =      2357.47640996
  Ewald energy   TEWEN  =    -62487.42609692
  -Hartree energ DENC   =    -42940.64016273
  -exchange      EXHF   =         0.00000000
  -V(xc)+E(xc)   XCENC  =      3286.51802964
  PAW double counting   =    112274.62519042  -115968.40261734
  entropy T*S    EENTRO =        -0.00000000
  eigenvalues    EBANDS =    -10870.15273596
  atomic energy  EATOM  =    114020.06510763
  Solvation  Ediel_sol  =         0.00000000
  ---------------------------------------------------
  free energy    TOTEN  =      -327.93687529 eV

  energy without entropy =     -327.93687529  energy(sigma->0) =     -327.93687529


--------------------------------------------------------------------------------------------------------




--------------------------------------- Iteration      1(  11)  ---------------------------------------


    POTLOK:  cpu time    0.1383: real time    0.1406
    SETDIJ:  cpu time    0.0132: real time    0.0133
     EDDAV:  cpu time  101.2059: real time  101.8973
       DOS:  cpu time    0.0008: real time    0.0008
    CHARGE:  cpu time    1.1987: real time    1.2062
    MIXING:  cpu time    0.0024: real time    0.0024
    --------------------------------------------
      LOOP:  cpu time  102.5594: real time  103.2606

 eigenvalue-minimisations  : 15104
 total energy-change (2. order) :-0.1996887E-05  (-0.1262857E-05)
 number of electron     688.0000346 magnetization      -0.0000000
 augmentation part      282.2233513 magnetization      -0.0000000

 Broyden mixing:
  rms(total) = 0.22482E-02    rms(broyden)= 0.22482E-02
  rms(prec ) = 0.22640E-02
  weight for this iteration     100.00

 eigenvalues of (default mixing * dielectric matrix)
  average eigenvalue GAMMA=   1.0502
  2.9359  1.5583  1.5583  0.3367  0.8024  0.8024  0.6422  0.6422  0.6118  0.6118

 Free energy of the ion-electron system (eV)
  ---------------------------------------------------
  alpha Z        PSCENC =      2357.47640996
  Ewald energy   TEWEN  =    -62487.42609692
  -Hartree energ DENC   =    -42940.65489062
  -exchange      EXHF   =         0.00000000
  -V(xc)+E(xc)   XCENC  =      3286.51772983
  PAW double counting   =    112267.01673221  -115960.78354936
  entropy T*S    EENTRO =        -0.00000000
  eigenvalues    EBANDS =    -10870.14832002
  atomic energy  EATOM  =    114020.06510763
  Solvation  Ediel_sol  =         0.00000000
  ---------------------------------------------------
  free energy    TOTEN  =      -327.93687729 eV

  energy without entropy =     -327.93687729  energy(sigma->0) =     -327.93687729


--------------------------------------------------------------------------------------------------------




--------------------------------------- Iteration      1(  12)  ---------------------------------------


    POTLOK:  cpu time    0.1382: real time    0.1403
    SETDIJ:  cpu time    0.0130: real time    0.0131
     EDDAV:  cpu time  126.8619: real time  127.6979
       DOS:  cpu time    0.0008: real time    0.0008
    CHARGE:  cpu time    1.1985: real time    1.2063
    MIXING:  cpu time    0.0025: real time    0.0030
    --------------------------------------------
      LOOP:  cpu time  128.2149: real time  129.0615

 eigenvalue-minimisations  : 17408
 total energy-change (2. order) :-0.8778879E-06  (-0.1433877E-06)
 number of electron     688.0000346 magnetization       0.0000000
 augmentation part      282.2234571 magnetization       0.0000000

 Broyden mixing:
  rms(total) = 0.41989E-02    rms(broyden)= 0.41989E-02
  rms(prec ) = 0.42034E-02
  weight for this iteration     100.00

 eigenvalues of (default mixing * dielectric matrix)
  average eigenvalue GAMMA=   1.1710
  3.2589  1.9470  1.9470  1.0841  1.0841  0.3367  0.5961  0.5961  0.7130  0.7130
  0.6049

 Free energy of the ion-electron system (eV)
  ---------------------------------------------------
  alpha Z        PSCENC =      2357.47640996
  Ewald energy   TEWEN  =    -62487.42609692
  -Hartree energ DENC   =    -42940.66865635
  -exchange      EXHF   =         0.00000000
  -V(xc)+E(xc)   XCENC  =      3286.51797695
  PAW double counting   =    112262.49024487  -115956.25920271
  entropy T*S    EENTRO =        -0.00000000
  eigenvalues    EBANDS =    -10870.13266160
  atomic energy  EATOM  =    114020.06510763
  Solvation  Ediel_sol  =         0.00000000
  ---------------------------------------------------
  free energy    TOTEN  =      -327.93687817 eV

  energy without entropy =     -327.93687817  energy(sigma->0) =     -327.93687817


--------------------------------------------------------------------------------------------------------




--------------------------------------- Iteration      1(  13)  ---------------------------------------


    POTLOK:  cpu time    0.1390: real time    0.1407
    SETDIJ:  cpu time    0.0131: real time    0.0132
     EDDAV:  cpu time  123.9511: real time  124.7644
       DOS:  cpu time    0.0008: real time    0.0008
    CHARGE:  cpu time    1.1891: real time    1.1965
    MIXING:  cpu time    0.0024: real time    0.0024
    --------------------------------------------
      LOOP:  cpu time  125.2955: real time  126.1181

 eigenvalue-minimisations  : 16896
 total energy-change (2. order) :-0.1108565E-05  (-0.2652912E-06)
 number of electron     688.0000346 magnetization       0.0000000
 augmentation part      282.2230412 magnetization       0.0000000

 Broyden mixing:
  rms(total) = 0.44949E-02    rms(broyden)= 0.44948E-02
  rms(prec ) = 0.44960E-02
  weight for this iteration     100.00

 eigenvalues of (default mixing * dielectric matrix)
  average eigenvalue GAMMA=   1.1575
  3.1662  2.0278  2.0278  1.1511  1.1511  0.3367  0.8074  0.8074  0.5978  0.5978
  0.6096  0.6096

 Free energy of the ion-electron system (eV)
  ---------------------------------------------------
  alpha Z        PSCENC =      2357.47640996
  Ewald energy   TEWEN  =    -62487.42609692
  -Hartree energ DENC   =    -42940.69508295
  -exchange      EXHF   =         0.00000000
  -V(xc)+E(xc)   XCENC  =      3286.51853866
  PAW double counting   =    112261.22210513  -115955.00723540
  entropy T*S    EENTRO =        -0.00000000
  eigenvalues    EBANDS =    -10870.09062539
  atomic energy  EATOM  =    114020.06510763
  Solvation  Ediel_sol  =         0.00000000
  ---------------------------------------------------
  free energy    TOTEN  =      -327.93687928 eV

  energy without entropy =     -327.93687928  energy(sigma->0) =     -327.93687928


--------------------------------------------------------------------------------------------------------




--------------------------------------- Iteration      1(  14)  ---------------------------------------


    POTLOK:  cpu time    0.1360: real time    0.1399
    SETDIJ:  cpu time    0.0130: real time    0.0131
     EDDAV:  cpu time   75.0719: real time   75.6114
       DOS:  cpu time    0.0008: real time    0.0008
    CHARGE:  cpu time    1.1964: real time    1.2043
    MIXING:  cpu time    0.0024: real time    0.0024
    --------------------------------------------
      LOOP:  cpu time   76.4207: real time   76.9720

 eigenvalue-minimisations  : 12800
 total energy-change (2. order) :-0.4623435E-06  (-0.2691399E-07)
 number of electron     688.0000346 magnetization       0.0000000
 augmentation part      282.2228858 magnetization       0.0000000

 Broyden mixing:
  rms(total) = 0.18727E-02    rms(broyden)= 0.18727E-02
  rms(prec ) = 0.18735E-02
  weight for this iteration     100.00

 eigenvalues of (default mixing * dielectric matrix)
  average eigenvalue GAMMA=   1.1849
  3.2273  2.2165  2.2165  1.1681  1.1681  0.9432  0.9432  0.3367  0.5987  0.5987
  0.6912  0.6912  0.6050

 Free energy of the ion-electron system (eV)
  ---------------------------------------------------
  alpha Z        PSCENC =      2357.47640996
  Ewald energy   TEWEN  =    -62487.42609692
  -Hartree energ DENC   =    -42940.68336631
  -exchange      EXHF   =         0.00000000
  -V(xc)+E(xc)   XCENC  =      3286.51859379
  PAW double counting   =    112266.27809974  -115960.07988364
  entropy T*S    EENTRO =        -0.00000000
  eigenvalues    EBANDS =    -10870.08574398
  atomic energy  EATOM  =    114020.06510763
  Solvation  Ediel_sol  =         0.00000000
  ---------------------------------------------------
  free energy    TOTEN  =      -327.93687974 eV

  energy without entropy =     -327.93687974  energy(sigma->0) =     -327.93687974


--------------------------------------------------------------------------------------------------------




--------------------------------------- Iteration      1(  15)  ---------------------------------------


    POTLOK:  cpu time    0.1402: real time    0.1411
    SETDIJ:  cpu time    0.0130: real time    0.0132
     EDDAV:  cpu time  131.9820: real time  132.8384
       DOS:  cpu time    0.0008: real time    0.0008
    CHARGE:  cpu time    1.1969: real time    1.2048
    MIXING:  cpu time    0.0025: real time    0.0025
    --------------------------------------------
      LOOP:  cpu time  133.3356: real time  134.2008

 eigenvalue-minimisations  : 17408
 total energy-change (2. order) :-0.3162568E-06  (-0.3928999E-07)
 number of electron     688.0000346 magnetization       0.0000000
 augmentation part      282.2229509 magnetization       0.0000000

 Broyden mixing:
  rms(total) = 0.73427E-03    rms(broyden)= 0.73427E-03
  rms(prec ) = 0.73554E-03
  weight for this iteration     100.00

 eigenvalues of (default mixing * dielectric matrix)
  average eigenvalue GAMMA=   1.2572
  3.8753  2.3935  2.3935  1.3541  1.3541  1.0129  1.0129  0.3367  0.5970  0.5970
  0.7299  0.7299  0.6072  0.6072

 Free energy of the ion-electron system (eV)
  ---------------------------------------------------
  alpha Z        PSCENC =      2357.47640996
  Ewald energy   TEWEN  =    -62487.42609692
  -Hartree energ DENC   =    -42940.66934905
  -exchange      EXHF   =         0.00000000
  -V(xc)+E(xc)   XCENC  =      3286.51825092
  PAW double counting   =    112268.34216353  -115962.15124837
  entropy T*S    EENTRO =        -0.00000000
  eigenvalues    EBANDS =    -10870.09211776
  atomic energy  EATOM  =    114020.06510763
  Solvation  Ediel_sol  =         0.00000000
  ---------------------------------------------------
  free energy    TOTEN  =      -327.93688006 eV

  energy without entropy =     -327.93688006  energy(sigma->0) =     -327.93688006


--------------------------------------------------------------------------------------------------------




--------------------------------------- Iteration      1(  16)  ---------------------------------------


    POTLOK:  cpu time    0.1373: real time    0.1403
    SETDIJ:  cpu time    0.0133: real time    0.0133
     EDDAV:  cpu time   99.1618: real time   99.8358
       DOS:  cpu time    0.0008: real time    0.0008
    CHARGE:  cpu time    1.1957: real time    1.2039
    MIXING:  cpu time    0.0026: real time    0.0026
    --------------------------------------------
      LOOP:  cpu time  100.5117: real time  101.1969

 eigenvalue-minimisations  : 14848
 total energy-change (2. order) :-0.7393828E-07  (-0.1849514E-07)
 number of electron     688.0000346 magnetization       0.0000000
 augmentation part      282.2228620 magnetization       0.0000000

 Broyden mixing:
  rms(total) = 0.20614E-03    rms(broyden)= 0.20613E-03
  rms(prec ) = 0.20693E-03
  weight for this iteration     100.00

 eigenvalues of (default mixing * dielectric matrix)
  average eigenvalue GAMMA=   1.2737
  4.3127  2.6600  1.9055  1.9055  1.2186  1.2186  0.3367  0.5982  0.5982  0.8096
  0.8096  0.7560  0.7560  0.6105  0.6105

 Free energy of the ion-electron system (eV)
  ---------------------------------------------------
  alpha Z        PSCENC =      2357.47640996
  Ewald energy   TEWEN  =    -62487.42609692
  -Hartree energ DENC   =    -42940.66510122
  -exchange      EXHF   =         0.00000000
  -V(xc)+E(xc)   XCENC  =      3286.51816925
  PAW double counting   =    112269.45955377  -115963.27236666
  entropy T*S    EENTRO =        -0.00000000
  eigenvalues    EBANDS =    -10870.09255595
  atomic energy  EATOM  =    114020.06510763
  Solvation  Ediel_sol  =         0.00000000
  ---------------------------------------------------
  free energy    TOTEN  =      -327.93688013 eV

  energy without entropy =     -327.93688013  energy(sigma->0) =     -327.93688013


--------------------------------------------------------------------------------------------------------




--------------------------------------- Iteration      1(  17)  ---------------------------------------


    POTLOK:  cpu time    0.1398: real time    0.1407
    SETDIJ:  cpu time    0.0130: real time    0.0131
     EDDAV:  cpu time   88.4421: real time   89.0329
       DOS:  cpu time    0.0008: real time    0.0008
    --------------------------------------------
      LOOP:  cpu time   88.5955: real time   89.1873

 eigenvalue-minimisations  : 12288
 total energy-change (2. order) :-0.8585630E-09  (-0.2648419E-08)
 number of electron     688.0000346 magnetization       0.0000000
 augmentation part      282.2228620 magnetization       0.0000000

 Free energy of the ion-electron system (eV)
  ---------------------------------------------------
  alpha Z        PSCENC =      2357.47640996
  Ewald energy   TEWEN  =    -62487.42609692
  -Hartree energ DENC   =    -42940.66482431
  -exchange      EXHF   =         0.00000000
  -V(xc)+E(xc)   XCENC  =      3286.51825173
  PAW double counting   =    112270.22089561  -115964.03549331
  entropy T*S    EENTRO =        -0.00000000
  eigenvalues    EBANDS =    -10870.09113052
  atomic energy  EATOM  =    114020.06510763
  Solvation  Ediel_sol  =         0.00000000
  ---------------------------------------------------
  free energy    TOTEN  =      -327.93688013 eV

  energy without entropy =     -327.93688013  energy(sigma->0) =     -327.93688013


--------------------------------------------------------------------------------------------------------




 average (electrostatic) potential at core
  the test charge radii are     0.9698  0.8297  0.9500
  (the norm of the test charge is              1.0000)
       1 -86.6144       2 -86.6144       3 -86.6144       4 -86.6144       5 -86.6144
       6 -86.6144       7 -86.6144       8 -86.6144       9 -86.6144      10 -86.6144
      11 -86.6144      12 -86.6144      13 -86.6144      14 -86.6144      15 -86.6144
      16 -86.6144      17 -86.6144      18 -86.6144      19 -86.6144      20 -86.6144
      21 -86.6144      22 -86.6144      23 -86.6144      24 -86.6144      25 -86.6144
      26 -86.6144      27 -86.6144      28 -86.6144      29 -86.6144      30 -86.6144
      31 -86.6144      32 -86.6144      33 -80.6957      34 -80.6957      35 -80.6957
      36 -80.6957      37 -80.6957      38 -80.6957      39 -80.6957      40 -80.6957
      41 -80.6957      42 -80.6957      43 -80.6957      44 -80.6957      45 -80.6957
      46 -80.6957      47 -80.6957      48 -80.6957      49 -80.2184      50 -80.2184
      51 -80.2184      52 -80.2184      53 -80.2184      54 -80.2184      55 -80.2184
      56 -80.2184      57 -80.2184      58 -80.2184      59 -80.2184      60 -80.2184
      61 -80.2184      62 -80.2184      63 -80.2184      64 -80.2184
 
 
 
 E-fermi :   5.0388     XC(G=0): -10.4704     alpha+bet :-10.5523


 spin component 1

 k-point     1 :       0.0000    0.0000    0.0000
  band No.  band energies     occupation 
      1     -64.3069      1.00000
      2     -64.3069      1.00000
      3     -64.3069      1.00000
      4     -64.3069      1.00000
      5     -64.3069      1.00000
      6     -64.3069      1.00000
      7     -64.3069      1.00000
      8     -64.3069      1.00000
      9     -64.2764      1.00000
     10     -64.2764      1.00000
     11     -64.2764      1.00000
     12     -64.2764      1.00000
     13     -64.2764      1.00000
     14     -64.2764      1.00000
     15     -64.2764      1.00000
     16     -64.2764      1.00000
     17     -64.2723      1.00000
     18     -64.2723      1.00000
     19     -64.2723      1.00000
     20     -64.2723      1.00000
     21     -64.2723      1.00000
     22     -64.2723      1.00000
     23     -64.2723      1.00000
     24     -64.2723      1.00000
     25     -64.2695      1.00000
     26     -64.2695      1.00000
     27     -64.2695      1.00000
     28     -64.2695      1.00000
     29     -64.2695      1.00000
     30     -64.2695      1.00000
     31     -64.2695      1.00000
     32     -64.2695      1.00000
     33     -64.2647      1.00000
     34     -64.2647      1.00000
     35     -64.2647      1.00000
     36     -64.2647      1.00000
     37     -64.2647      1.00000
     38     -64.2647      1.00000
     39     -64.2647      1.00000
     40     -64.2647      1.00000
     41     -64.2473      1.00000
     42     -64.2473      1.00000
     43     -64.2473      1.00000
     44     -64.2473      1.00000
     45     -64.2473      1.00000
     46     -64.2473      1.00000
     47     -64.2473      1.00000
     48     -64.2473      1.00000
     49     -51.8644      1.00000
     50     -51.8644      1.00000
     51     -51.8644      1.00000
[...]
   -.438E+00 0.421E+02 0.129E+02   0.423E+00 -.430E+02 -.130E+02   0.146E-01 0.859E+00 0.129E+00   -.143E-05 0.224E-04 0.124E-04
   -.421E+02 0.438E+00 0.129E+02   0.430E+02 -.423E+00 -.130E+02   -.859E+00 -.146E-01 0.129E+00   -.224E-04 0.143E-05 0.124E-04
   -.421E+02 0.438E+00 0.129E+02   0.430E+02 -.423E+00 -.130E+02   -.859E+00 -.146E-01 0.129E+00   -.224E-04 0.143E-05 0.124E-04
   -.421E+02 0.438E+00 0.129E+02   0.430E+02 -.423E+00 -.130E+02   -.859E+00 -.146E-01 0.129E+00   -.224E-04 0.143E-05 0.124E-04
   -.421E+02 0.438E+00 0.129E+02   0.430E+02 -.423E+00 -.130E+02   -.859E+00 -.146E-01 0.129E+00   -.224E-04 0.143E-05 0.124E-04
   0.421E+02 -.438E+00 0.129E+02   -.430E+02 0.423E+00 -.130E+02   0.859E+00 0.146E-01 0.129E+00   0.224E-04 -.143E-05 0.124E-04
   0.421E+02 -.438E+00 0.129E+02   -.430E+02 0.423E+00 -.130E+02   0.859E+00 0.146E-01 0.129E+00   0.224E-04 -.143E-05 0.124E-04
   0.421E+02 -.438E+00 0.129E+02   -.430E+02 0.423E+00 -.130E+02   0.859E+00 0.146E-01 0.129E+00   0.224E-04 -.143E-05 0.124E-04
   0.421E+02 -.438E+00 0.129E+02   -.430E+02 0.423E+00 -.130E+02   0.859E+00 0.146E-01 0.129E+00   0.224E-04 -.143E-05 0.124E-04
   0.438E+00 -.421E+02 0.129E+02   -.423E+00 0.430E+02 -.130E+02   -.146E-01 -.859E+00 0.129E+00   0.143E-05 -.224E-04 0.124E-04
   0.438E+00 -.421E+02 0.129E+02   -.423E+00 0.430E+02 -.130E+02   -.146E-01 -.859E+00 0.129E+00   0.143E-05 -.224E-04 0.124E-04
   0.438E+00 -.421E+02 0.129E+02   -.423E+00 0.430E+02 -.130E+02   -.146E-01 -.859E+00 0.129E+00   0.143E-05 -.224E-04 0.124E-04
   0.438E+00 -.421E+02 0.129E+02   -.423E+00 0.430E+02 -.130E+02   -.146E-01 -.859E+00 0.129E+00   0.143E-05 -.224E-04 0.124E-04
   -.438E+00 0.421E+02 0.129E+02   0.423E+00 -.430E+02 -.130E+02   0.146E-01 0.859E+00 0.129E+00   -.143E-05 0.224E-04 0.124E-04
   -.438E+00 0.421E+02 0.129E+02   0.423E+00 -.430E+02 -.130E+02   0.146E-01 0.859E+00 0.129E+00   -.143E-05 0.224E-04 0.124E-04
   -.438E+00 0.421E+02 0.129E+02   0.423E+00 -.430E+02 -.130E+02   0.146E-01 0.859E+00 0.129E+00   -.143E-05 0.224E-04 0.124E-04
   -.438E+00 0.421E+02 0.129E+02   0.423E+00 -.430E+02 -.130E+02   0.146E-01 0.859E+00 0.129E+00   -.143E-05 0.224E-04 0.124E-04
   -.182E-06 0.637E-07 -.152E+02   0.198E-12 -.355E-13 0.146E+02   0.840E-25 -.207E-24 0.614E+00   -.808E-12 0.628E-12 -.598E-04
   -.182E-06 0.637E-07 -.152E+02   0.230E-12 -.284E-13 0.146E+02   0.147E-24 0.517E-25 0.614E+00   0.403E-13 0.367E-12 -.598E-04
   -.182E-06 0.637E-07 -.152E+02   0.226E-12 -.497E-13 0.146E+02   -.307E-25 0.362E-24 0.614E+00   -.823E-12 -.494E-12 -.598E-04
   -.182E-06 0.636E-07 -.152E+02   0.315E-12 -.568E-13 0.146E+02   0.162E-25 0.258E-24 0.614E+00   0.157E-12 -.332E-12 -.598E-04
   0.637E-07 -.182E-06 -.152E+02   -.142E-12 0.853E-13 0.146E+02   -.658E-24 0.000E+00 0.614E+00   -.364E-12 0.321E-12 -.598E-04
   0.637E-07 -.182E-06 -.152E+02   -.853E-13 0.853E-13 0.146E+02   -.489E-25 0.000E+00 0.614E+00   0.463E-13 0.315E-12 -.598E-04
   0.637E-07 -.182E-06 -.152E+02   -.114E-12 0.568E-13 0.146E+02   0.126E-24 0.388E-25 0.614E+00   -.456E-12 -.135E-12 -.598E-04
   0.637E-07 -.182E-06 -.152E+02   -.114E-12 0.568E-13 0.146E+02   0.101E-23 0.258E-25 0.614E+00   0.750E-13 -.332E-12 -.598E-04
   -.182E-06 0.637E-07 -.152E+02   0.291E-12 0.488E-14 0.146E+02   0.162E-25 0.103E-24 0.614E+00   -.543E-12 0.455E-12 -.598E-04
   -.182E-06 0.637E-07 -.152E+02   0.291E-12 -.595E-13 0.146E+02   0.687E-25 0.103E-24 0.614E+00   -.208E-12 0.509E-12 -.598E-04
   -.182E-06 0.637E-07 -.152E+02   0.284E-12 -.320E-13 0.146E+02   -.145E-25 0.879E-24 0.614E+00   -.333E-12 -.337E-12 -.598E-04
   -.182E-06 0.637E-07 -.152E+02   0.284E-12 -.249E-13 0.146E+02   -.355E-25 -.362E-24 0.614E+00   -.372E-12 -.490E-12 -.598E-04
   0.637E-07 -.182E-06 -.152E+02   -.152E-12 0.111E-12 0.146E+02   -.303E-24 0.323E-25 0.614E+00   0.260E-12 0.568E-12 -.598E-04
   0.637E-07 -.182E-06 -.152E+02   -.121E-12 0.544E-13 0.146E+02   -.187E-24 0.226E-24 0.614E+00   -.578E-12 0.457E-12 -.598E-04
   0.637E-07 -.182E-06 -.152E+02   -.138E-12 0.146E-12 0.146E+02   0.557E-25 -.775E-25 0.614E+00   0.430E-12 -.409E-12 -.598E-04
   0.637E-07 -.182E-06 -.152E+02   -.107E-12 0.146E-12 0.146E+02   0.382E-25 0.000E+00 0.614E+00   -.714E-12 -.384E-12 -.598E-04
   0.641E-07 -.701E-07 -.122E+02   -.728E-13 -.192E-12 0.115E+02   0.929E-26 0.194E-25 0.731E+00   0.469E-12 0.464E-12 -.201E-04
   0.641E-07 -.701E-07 -.122E+02   -.266E-13 -.156E-12 0.115E+02   -.995E-25 0.582E-25 0.731E+00   -.743E-12 0.284E-12 -.201E-04
   0.641E-07 -.701E-07 -.122E+02   -.444E-13 -.206E-12 0.115E+02   0.203E-25 -.582E-25 0.731E+00   0.435E-12 -.185E-12 -.201E-04
   0.641E-07 -.700E-07 -.122E+02   -.551E-13 -.270E-12 0.115E+02   0.754E-25 -.517E-25 0.731E+00   -.654E-12 -.170E-13 -.201E-04
   -.701E-07 0.641E-07 -.122E+02   -.156E-12 -.924E-13 0.115E+02   -.226E-25 -.155E-24 0.731E+00   -.147E-12 0.451E-12 -.201E-04
   -.701E-07 0.641E-07 -.122E+02   -.142E-12 -.924E-13 0.115E+02   0.182E-25 -.181E-24 0.731E+00   -.402E-12 0.633E-12 -.201E-04
   -.701E-07 0.641E-07 -.122E+02   -.185E-12 -.639E-13 0.115E+02   -.404E-25 0.000E+00 0.731E+00   -.170E-12 -.171E-12 -.201E-04
   -.701E-07 0.641E-07 -.122E+02   -.171E-12 -.121E-12 0.115E+02   -.662E-25 -.258E-25 0.731E+00   -.352E-12 -.313E-12 -.201E-04
   0.641E-07 -.701E-07 -.122E+02   -.142E-13 -.118E-12 0.115E+02   0.487E-25 0.291E-25 0.731E+00   -.186E-12 0.415E-12 -.201E-04
   0.641E-07 -.701E-07 -.122E+02   0.284E-13 -.118E-12 0.115E+02   -.165E-25 0.162E-26 0.731E+00   -.704E-13 0.473E-12 -.201E-04
   0.641E-07 -.700E-07 -.122E+02   0.000E+00 -.848E-13 0.115E+02   0.333E-26 -.258E-25 0.731E+00   -.428E-13 -.148E-12 -.201E-04
   0.641E-07 -.700E-07 -.122E+02   0.142E-13 -.848E-13 0.115E+02   0.974E-25 0.469E-25 0.731E+00   -.233E-12 -.214E-12 -.201E-04
   -.701E-07 0.641E-07 -.122E+02   -.149E-12 0.279E-13 0.115E+02   0.129E-25 0.258E-25 0.731E+00   -.469E-12 0.528E-12 -.201E-04
   -.701E-07 0.641E-07 -.122E+02   -.164E-12 0.207E-13 0.115E+02   -.226E-25 0.388E-25 0.731E+00   -.828E-13 0.368E-12 -.201E-04
   -.701E-07 0.641E-07 -.122E+02   -.119E-12 0.183E-13 0.115E+02   -.279E-25 -.323E-24 0.731E+00   -.379E-12 -.116E-12 -.201E-04
   -.701E-07 0.641E-07 -.122E+02   -.927E-13 0.254E-13 0.115E+02   0.751E-25 0.103E-24 0.731E+00   -.116E-12 -.147E-12 -.201E-04
 -----------------------------------------------------------------------------------------------
   -.944E-06 -.944E-06 -.257E+02   -.217E-12 0.118E-12 0.885E-12   -.166E-14 -.144E-14 0.257E+02   -.753E-11 0.277E-11 -.880E-03
 
 
 POSITION                                       TOTAL-FORCE (eV/Angst)
 -----------------------------------------------------------------------------------
      1.35285      1.34384      1.27853         0.000207     -0.000219      0.000186
      6.60602      1.45383      1.27853         0.000207     -0.000219      0.000186
      1.46284      6.59701      1.27853         0.000207     -0.000219      0.000186
      6.71600      6.70699      1.27853         0.000207     -0.000219      0.000186
      4.01029      4.01930      1.27853        -0.000207      0.000219      0.000186
      9.26346      4.12929      1.27853        -0.000207      0.000219      0.000186
      4.12028      9.27247      1.27853        -0.000207      0.000219      0.000186
      9.37344      9.38245      1.27853        -0.000207      0.000219      0.000186
      1.39272      3.95530      9.09581         0.000219     -0.000207      0.000186
      6.64589      4.06529      9.09581         0.000219     -0.000207      0.000186
      1.50271      9.20847      9.09581         0.000219     -0.000207      0.000186
      6.75587      9.31845      9.09581         0.000219     -0.000207      0.000186
      3.97043      1.40785      9.09581        -0.000219      0.000207      0.000186
      9.22359      1.51783      9.09581        -0.000219      0.000207      0.000186
      4.08041      6.66101      9.09581        -0.000219      0.000207      0.000186
      9.33357      6.77099      9.09581        -0.000219      0.000207      0.000186
      1.32872      1.33773      6.49005        -0.000207      0.000219      0.000186
      6.58189      1.44771      6.49005        -0.000207      0.000219      0.000186
      1.43870      6.59090      6.49005        -0.000207      0.000219      0.000186
      6.69187      6.70088      6.49005        -0.000207      0.000219      0.000186
      4.03443      4.02542      6.49005         0.000207     -0.000219      0.000186
      9.28759      4.13540      6.49005         0.000207     -0.000219      0.000186
      4.14441      9.27858      6.49005         0.000207     -0.000219      0.000186
      9.39758      9.38857      6.49005         0.000207     -0.000219      0.000186
      3.96431      1.38371      3.88429         0.000219     -0.000207      0.000186
      9.21748      1.49369      3.88429         0.000219     -0.000207      0.000186
      4.07430      6.63688      3.88429         0.000219     -0.000207      0.000186
      9.32746      6.74686      3.88429         0.000219     -0.000207      0.000186
      1.39884      3.97944      3.88429        -0.000219      0.000207      0.000186
      6.65200      4.08942      3.88429        -0.000219      0.000207      0.000186
      1.50882      9.23260      3.88429        -0.000219      0.000207      0.000186
      6.76198      9.34259      3.88429        -0.000219      0.000207      0.000186
      0.00000      0.00000      5.23225        -0.000000      0.000000     -0.001375
      5.25317      0.10998      5.23225        -0.000000      0.000000     -0.001375
      0.10998      5.25317      5.23225        -0.000000      0.000000     -0.001375
      5.36315      5.36315      5.23225        -0.000000      0.000000     -0.001375
      2.62658      0.05499      2.62649        -0.000000      0.000000     -0.001375
      7.87975      0.16497      2.62649        -0.000000      0.000000     -0.001375
      2.73657      5.30816      2.62649        -0.000000      0.000000     -0.001375
      7.98973      5.41814      2.62649        -0.000000      0.000000     -0.001375
      2.68157      2.68157      0.02073        -0.000000      0.000000     -0.001375
      7.93474      2.79156      0.02073        -0.000000      0.000000     -0.001375
      2.79156      7.93474      0.02073        -0.000000      0.000000     -0.001375
      8.04472      8.04472      0.02073        -0.000000      0.000000     -0.001375
      0.05499      2.62658      7.83801        -0.000000      0.000000     -0.001375
      5.30816      2.73657      7.83801        -0.000000      0.000000     -0.001375
      0.16497      7.87975      7.83801        -0.000000      0.000000     -0.001375
      5.41814      7.98973      7.83801        -0.000000      0.000000     -0.001375
      0.00000      0.00000      0.02795        -0.000000      0.000000      0.001003
      5.25317      0.10998      0.02795        -0.000000      0.000000      0.001003
      0.10998      5.25317      0.02795        -0.000000      0.000000      0.001003
      5.36315      5.36315      0.02795        -0.000000      0.000000      0.001003
      2.62658      0.05499      7.84524        -0.000000      0.000000      0.001003
      7.87975      0.16497      7.84524        -0.000000      0.000000      0.001003
      2.73657      5.30816      7.84524        -0.000000      0.000000      0.001003
      7.98973      5.41814      7.84524        -0.000000      0.000000      0.001003
      2.68157      2.68157      5.23948        -0.000000      0.000000      0.001003
      7.93474      2.79156      5.23948        -0.000000      0.000000      0.001003
      2.79156      7.93474      5.23948        -0.000000      0.000000      0.001003
      8.04472      8.04472      5.23948        -0.000000      0.000000      0.001003
      0.05499      2.62658      2.63372        -0.000000      0.000000      0.001003
      5.30816      2.73657      2.63372        -0.000000      0.000000      0.001003
      0.16497      7.87975      2.63372        -0.000000      0.000000      0.001003
      5.41814      7.98973      2.63372        -0.000000      0.000000      0.001003
 -----------------------------------------------------------------------------------
    total drift:                               -0.000001     -0.000001     -0.033290


--------------------------------------------------------------------------------------------------------



  FREE ENERGIE OF THE ION-ELECTRON SYSTEM (eV)
  ---------------------------------------------------
  free  energy   TOTEN  =      -327.93688013 eV

  energy  without entropy=     -327.93688013  energy(sigma->0) =     -327.93688013
 


--------------------------------------------------------------------------------------------------------


    POTLOK:  cpu time    0.1517: real time    0.1524


--------------------------------------------------------------------------------------------------------


 writing wavefunctions
     LOOP+:  cpu time 1975.4936: real time 2242.3366
    4ORBIT:  cpu time    0.0000: real time    0.0000
 


 total charge     
 
# of ion       s       p       d       tot
------------------------------------------
    1        1.314   2.410   0.000   3.723
    2        1.314   2.410   0.000   3.723
    3        1.314   2.410   0.000   3.723
    4        1.314   2.410   0.000   3.723
    5        1.314   2.410   0.000   3.723
    6        1.314   2.410   0.000   3.723
    7        1.314   2.410   0.000   3.723
    8        1.314   2.410   0.000   3.723
    9        1.314   2.410   0.000   3.724
   10        1.314   2.410   0.000   3.724
   11        1.314   2.410   0.000   3.724
   12        1.314   2.410   0.000   3.724
   13        1.314   2.410   0.000   3.724
   14        1.314   2.410   0.000   3.724
   15        1.314   2.410   0.000   3.724
   16        1.314   2.410   0.000   3.724
   17        1.314   2.410   0.000   3.723
   18        1.314   2.410   0.000   3.723
   19        1.314   2.410   0.000   3.723
   20        1.314   2.410   0.000   3.723
   21        1.314   2.410   0.000   3.723
   22        1.314   2.410   0.000   3.723
   23        1.314   2.410   0.000   3.723
   24        1.314   2.410   0.000   3.723
   25        1.314   2.410   0.000   3.724
   26        1.314   2.410   0.000   3.724
   27        1.314   2.410   0.000   3.724
   28        1.314   2.410   0.000   3.724
   29        1.314   2.410   0.000   3.724
   30        1.314   2.410   0.000   3.724
   31        1.314   2.410   0.000   3.724
   32        1.314   2.410   0.000   3.724
   33        0.260   6.202   8.916  15.378
   34        0.260   6.202   8.916  15.378
   35        0.260   6.202   8.916  15.378
   36        0.260   6.202   8.916  15.378
   37        0.259   6.202   8.916  15.378
   38        0.259   6.202   8.916  15.378
   39        0.259   6.202   8.916  15.378
   40        0.259   6.202   8.916  15.378
   41        0.260   6.202   8.916  15.378
   42        0.260   6.202   8.916  15.378
   43        0.260   6.202   8.916  15.378
   44        0.260   6.202   8.916  15.378
   45        0.259   6.202   8.916  15.378
   46        0.259   6.202   8.916  15.378
   47        0.259   6.202   8.916  15.378
   48        0.259   6.202   8.916  15.378
   49        0.350   6.350   5.820  12.520
   50        0.350   6.350   5.820  12.520
   51        0.350   6.350   5.820  12.520
   52        0.350   6.350   5.820  12.520
   53        0.350   6.350   5.820  12.520
   54        0.350   6.350   5.820  12.520
   55        0.350   6.350   5.820  12.520
   56        0.350   6.350   5.820  12.520
   57        0.350   6.350   5.820  12.520
   58        0.350   6.350   5.820  12.520
   59        0.350   6.350   5.820  12.520
   60        0.350   6.350   5.820  12.520
   61        0.350   6.350   5.820  12.520
   62        0.350   6.350   5.820  12.520
   63        0.350   6.350   5.820  12.520
   64        0.350   6.350   5.820  12.520
--------------------------------------------------
tot         51.787 277.955 235.786 565.528
 


 magnetization (x)
 
# of ion       s       p       d       tot
------------------------------------------
    1       -0.001  -0.010   0.000  -0.011
    2       -0.001  -0.010   0.000  -0.011
    3       -0.001  -0.010   0.000  -0.011
    4       -0.001  -0.010   0.000  -0.011
    5       -0.001  -0.010   0.000  -0.011
    6       -0.001  -0.010   0.000  -0.011
    7       -0.001  -0.010   0.000  -0.011
    8       -0.001  -0.010   0.000  -0.011
    9        0.001   0.010   0.000   0.011
   10        0.001   0.010   0.000   0.011
   11        0.001   0.010   0.000   0.011
   12        0.001   0.010   0.000   0.011
   13        0.001   0.010   0.000   0.011
   14        0.001   0.010   0.000   0.011
   15        0.001   0.010   0.000   0.011
   16        0.001   0.010   0.000   0.011
   17       -0.001  -0.010   0.000  -0.011
   18       -0.001  -0.010   0.000  -0.011
   19       -0.001  -0.010   0.000  -0.011
   20       -0.001  -0.010   0.000  -0.011
   21       -0.001  -0.010   0.000  -0.011
   22       -0.001  -0.010   0.000  -0.011
   23       -0.001  -0.010   0.000  -0.011
   24       -0.001  -0.010   0.000  -0.011
   25        0.001   0.010   0.000   0.011
   26        0.001   0.010   0.000   0.011
   27        0.001   0.010   0.000   0.011
   28        0.001   0.010   0.000   0.011
   29        0.001   0.010   0.000   0.011
   30        0.001   0.010   0.000   0.011
   31        0.001   0.010   0.000   0.011
   32        0.001   0.010   0.000   0.011
   33        0.000   0.000  -0.000   0.001
   34        0.000   0.000  -0.000   0.001
   35        0.000   0.000  -0.000   0.001
   36        0.000   0.000  -0.000   0.001
   37       -0.000  -0.000  -0.000  -0.001
   38       -0.000  -0.000  -0.000  -0.001
   39       -0.000  -0.000  -0.000  -0.001
   40       -0.000  -0.000  -0.000  -0.001
   41        0.000   0.000  -0.000   0.001
   42        0.000   0.000  -0.000   0.001
   43        0.000   0.000  -0.000   0.001
   44        0.000   0.000  -0.000   0.001
   45       -0.000  -0.000  -0.000  -0.001
   46       -0.000  -0.000  -0.000  -0.001
   47       -0.000  -0.000  -0.000  -0.001
   48       -0.000  -0.000  -0.000  -0.001
   49        0.020   0.054   3.670   3.744
   50        0.020   0.054   3.670   3.744
   51        0.020   0.054   3.670   3.744
   52        0.020   0.054   3.670   3.744
   53       -0.020  -0.054  -3.670  -3.744
   54       -0.020  -0.054  -3.670  -3.744
   55       -0.020  -0.054  -3.670  -3.744
   56       -0.020  -0.054  -3.670  -3.744
   57        0.020   0.054   3.670   3.744
   58        0.020   0.054   3.670   3.744
   59        0.020   0.054   3.670   3.744
   60        0.020   0.054   3.670   3.744
   61       -0.020  -0.054  -3.670  -3.744
   62       -0.020  -0.054  -3.670  -3.744
   63       -0.020  -0.054  -3.670  -3.744
   64       -0.020  -0.054  -3.670  -3.744
--------------------------------------------------
tot         -0.001   0.001  -0.001  -0.000
 

 total amount of memory used by VASP MPI-rank0   301249. kBytes
=======================================================================

   base      :      30000. kBytes
   nonl-proj :     175882. kBytes
   fftplans  :       4588. kBytes
   grid      :      69719. kBytes
   one-center:       1990. kBytes
   wavefun   :      19070. kBytes
 
  
  
 General timing and accounting informations for this job:
 ========================================================
  
                  Total CPU time used (sec):     2023.244
                            User time (sec):     2010.976
                          System time (sec):       12.268
                         Elapsed time (sec):     2294.014
  
                   Maximum memory used (kb):      666556.
                   Average memory used (kb):           0.
  
                          Minor page faults:       517671
                          Major page faults:         5538
                 Voluntary context switches:         8737
