       N       E                     dE             d eps       ncg     rms          ort
SDA:   1    -0.819335586883E+02   -0.81934E+02    0.00000E+00  7488   0.816E-04 0.000E+00
CGA:   2    -0.819335711963E+02   -0.12508E-04   -0.99102E-05  7488   0.507E-04 0.540E-04
CGA:   3    -0.819335860186E+02   -0.14822E-04   -0.26544E-05  7488   0.367E-04 0.350E-04
CGA:   4    -0.819335883109E+02   -0.22923E-05   -0.28328E-05  7488   0.298E-04 0.247E-04
CGA:   5    -0.819335965157E+02   -0.82048E-05   -0.12628E-05  7488   0.209E-04 0.194E-04
CGA:   6    -0.819335968897E+02   -0.37396E-06   -0.95483E-06  7488   0.172E-04 0.170E-04
CGA:   7    -0.819335981723E+02   -0.12826E-05   -0.74379E-06  7488   0.143E-04 0.139E-04
CGA:   8    -0.819336001558E+02   -0.19836E-05   -0.56169E-06  7488   0.119E-04 0.117E-04
CGA:   9    -0.819336012196E+02   -0.10638E-05   -0.41346E-06  7488   0.102E-04 0.101E-04
CGA:  10    -0.819336022369E+02   -0.10173E-05   -0.35812E-06  7488   0.877E-05 0.876E-05
CGA:  11    -0.819336033487E+02   -0.11119E-05   -0.25813E-06  7488   0.768E-05 0.768E-05
CGA:  12    -0.819336043006E+02   -0.95183E-06   -0.21309E-06  7488   0.682E-05 0.684E-05
CGA:  13    -0.819336050153E+02   -0.71475E-06   -0.15904E-06  7488   0.616E-05 0.617E-05
CGA:  14    -0.819336060799E+02   -0.10646E-05   -0.13273E-06  7488   0.562E-05 0.564E-05
CGA:  15    -0.819336066681E+02   -0.58817E-06   -0.95052E-07  7488   0.522E-05 0.523E-05
CGA:  16    -0.819336077865E+02   -0.11184E-05   -0.80591E-07  7488   0.488E-05 0.490E-05
CGA:  17    -0.819336077600E+02    0.26506E-07   -0.57391E-07  7488   0.464E-05 0.464E-05
CGA:  18    -0.819336079927E+02   -0.23267E-06   -0.62238E-07  7488   0.441E-05 0.441E-05
CGA:  19    -0.819336079937E+02   -0.10441E-08   -0.53941E-07  7488   0.419E-05 0.418E-05
CGA:  20    -0.819336081571E+02   -0.16333E-06   -0.52962E-07  7488   0.399E-05 0.397E-05
CGA:  21    -0.819336081640E+02   -0.69667E-08   -0.43371E-07  7488   0.381E-05 0.378E-05
CGA:  22    -0.819336083790E+02   -0.21496E-06   -0.40020E-07  7488   0.365E-05 0.361E-05
CGA:  23    -0.819336083699E+02    0.91022E-08   -0.32464E-07  7488   0.352E-05 0.347E-05
CGA:  24    -0.819336086579E+02   -0.28798E-06   -0.29871E-07  7488   0.340E-05 0.335E-05
CGA:  25    -0.819336085961E+02    0.61744E-07   -0.24137E-07  7488   0.330E-05 0.325E-05
CGA:  26    -0.819336087854E+02   -0.18928E-06   -0.24035E-07  7488   0.321E-05 0.315E-05
CGA:  27    -0.819336087266E+02    0.58852E-07   -0.20885E-07  7488   0.313E-05 0.307E-05
CGA:  28    -0.819336088618E+02   -0.13528E-06   -0.20775E-07  7488   0.305E-05 0.298E-05
CGA:  29    -0.819336088225E+02    0.39316E-07   -0.17558E-07  7488   0.298E-05 0.291E-05
CGA:  30    -0.819336089904E+02   -0.16789E-06   -0.16532E-07  7488   0.291E-05 0.284E-05
CGA:  31    -0.819336089415E+02    0.48931E-07   -0.13654E-07  7488   0.285E-05 0.278E-05
CGA:  32    -0.819336091334E+02   -0.19198E-06   -0.12739E-07  7488   0.281E-05 0.273E-05
CGA:  33    -0.819336090741E+02    0.59346E-07   -0.10429E-07  7488   0.276E-05 0.269E-05
CGA:  34    -0.819336092359E+02   -0.16178E-06   -0.98796E-08  7488   0.273E-05 0.265E-05
CGA:  35    -0.819336091563E+02    0.79555E-07   -0.84892E-08  7488   0.269E-05 0.261E-05
CGA:  36    -0.819336091519E+02    0.44092E-08   -0.91548E-08  7488   0.266E-05 0.258E-05
   1 F= -.81933609E+02 E0= -.81933609E+02  d E =0.000000E+00  mag=    -0.0000    -0.0000     0.0000
