 vasp.5.4.4.18Apr17-6-g9f103f2a35 (build Oct 30 2023 17:49:44) complex          
  
 executed on             LinuxIFC date 2024.12.09  07:52:57
 running on  256 total cores
 distrk:  each k-point on  256 cores,    1 groups
 distr:  one band on NCORES_PER_BAND=  32 cores,    8 groups


--------------------------------------------------------------------------------------------------------


 INCAR:
 POTCAR:    PAW_PBE S 06Sep2000                   
 POTCAR:     PAW_PBE Cu_pv 06Sep2000              
 POTCAR:     PAW_PBE Fe_pv 02Aug2007              
 POTCAR:    PAW_PBE S 06Sep2000                   
   SHA256 =  0fc7481fb0695f01bdc6462160264c5c84044ae9ec85a907d398b887a2bc3132 S/
   COPYR  = (c) Copyright 06Sep2000 Georg Kresse                                
   COPYR  = This file is part of the software VASP. Any use, copying, and all ot
   COPYR  = If you do not have a valid VASP license, you may not use, copy or di
   VRHFIN =S : s2p4                                                             
   LEXCH  = PE                                                                  
   EATOM  =   276.8230 eV,   20.3459 Ry                                         
                                                                                
   TITEL  = PAW_PBE S 06Sep2000                                                 
   LULTRA =        F    use ultrasoft PP ?                                      
   IUNSCR =        1    unscreen: 0-lin 1-nonlin 2-no                           
   RPACOR =    1.500    partial core radius                                     
   POMASS =   32.066; ZVAL   =    6.000    mass and valenz                      
   RCORE  =    1.900    outmost cutoff radius                                   
   RWIGS  =    2.200; RWIGS  =    1.164    wigner-seitz radius (au A)           
   ENMAX  =  258.689; ENMIN  =  194.016 eV                                      
   ICORE  =        2    local potential                                         
   LCOR   =        T    correct aug charges                                     
   LPAW   =        T    paw PP                                                  
   EAUG   =  335.092                                                            
   DEXC   =    0.000                                                            
   RMAX   =    1.942    core radius for proj-oper                               
   RAUG   =    1.300    factor for augmentation sphere                          
   RDEP   =    1.954    radius for radial grids                                 
   RDEPT  =    1.744    core radius for aug-charge                              
                                                                                
   Atomic configuration                                                         
    6 entries                                                                   
     n  l   j            E        occ.                                          
     1  0  0.50     -2405.8406   2.0000                                         
     2  0  0.50      -211.7007   2.0000                                         
     2  1  1.50      -156.4958   6.0000                                         
     3  0  0.50       -17.2562   2.0000                                         
     3  1  0.50        -7.0085   4.0000                                         
     3  2  1.50        -6.8029   0.0000                                         
   Description                                                                  
     l       E           TYP  RCUT    TYP  RCUT                                 
     0    -17.2561641     23  1.900                                             
     0    -15.8743224     23  1.900                                             
     1     -7.0085400     23  1.900                                             
     1     -2.7779785     23  1.900                                             
     2     -6.8029130     23  1.900                                             
  local pseudopotential read in
  partial core-charges read in
  partial kinetic energy density read in
  atomic valenz-charges read in
  non local Contribution for L=           0  read in
    real space projection operators read in
  non local Contribution for L=           0  read in
    real space projection operators read in
  non local Contribution for L=           1  read in
    real space projection operators read in
  non local Contribution for L=           1  read in
    real space projection operators read in
    PAW grid and wavefunctions read in
 
   number of l-projection  operators is LMAX  =           4
   number of lm-projection operators is LMMAX =           8
 
 POTCAR:     PAW_PBE Cu_pv 06Sep2000              
   SHA256 =  cb7b504e2ea725fe1f25c85a9ac77d4012ce94cd394135b722c4e25ec297f1cb Cu
   COPYR  = (c) Copyright 06Sep2000 Georg Kresse                                
   COPYR  = This file is part of the software VASP. Any use, copying, and all ot
   COPYR  = If you do not have a valid VASP license, you may not use, copy or di
   VRHFIN =Cu: d10 p1                                                           
   LEXCH  = PE                                                                  
   EATOM  =  4120.1201 eV,  302.8203 Ry                                         
                                                                                
   TITEL  = PAW_PBE Cu_pv 06Sep2000                                             
   LULTRA =        F    use ultrasoft PP ?                                      
   IUNSCR =        1    unscreen: 0-lin 1-nonlin 2-no                           
   RPACOR =    1.500    partial core radius                                     
   POMASS =   63.546; ZVAL   =   17.000    mass and valenz                      
   RCORE  =    2.000    outmost cutoff radius                                   
   RWIGS  =    2.000; RWIGS  =    1.058    wigner-seitz radius (au A)           
   ENMAX  =  368.648; ENMIN  =  276.486 eV                                      
   RCLOC  =    1.304    cutoff for local pot                                    
   LCOR   =        T    correct aug charges                                     
   LPAW   =        T    paw PP                                                  
   EAUG   =  758.233                                                            
   DEXC   =    0.000                                                            
   RMAX   =    2.046    core radius for proj-oper                               
   RAUG   =    1.300    factor for augmentation sphere                          
   RDEP   =    2.025    radius for radial grids                                 
   RDEPT  =    1.558    core radius for aug-charge                              
                                                                                
   Atomic configuration                                                         
    8 entries                                                                   
     n  l   j            E        occ.                                          
     1  0  0.50     -8850.2467   2.0000                                         
     2  0  0.50     -1062.3498   2.0000                                         
     2  1  1.50      -916.8226   6.0000                                         
     3  0  0.50      -114.6929   2.0000                                         
     3  1  1.50       -72.1325   6.0000                                         
     3  2  2.50        -5.0394  10.0000                                         
     4  0  0.50        -4.6097   1.0000                                         
     4  3  2.50        -1.3606   0.0000                                         
   Description                                                                  
     l       E           TYP  RCUT    TYP  RCUT                                 
     1    -72.1324777     23  1.700                                             
     1     -1.3605826     23  1.700                                             
     2     -5.0393776     23  2.000                                             
     2     -6.3999602     23  2.000                                             
     0     -4.6097062     23  1.800                                             
     0     14.1620818     23  1.800                                             
  local pseudopotential read in
  partial core-charges read in
  partial kinetic energy density read in
  atomic valenz-charges read in
  non local Contribution for L=           1  read in
    real space projection operators read in
  non local Contribution for L=           1  read in
    real space projection operators read in
  non local Contribution for L=           2  read in
    real space projection operators read in
  non local Contribution for L=           2  read in
    real space projection operators read in
  non local Contribution for L=           0  read in
    real space projection operators read in
  non local Contribution for L=           0  read in
    real space projection operators read in
    PAW grid and wavefunctions read in
 
   number of l-projection  operators is LMAX  =           6
   number of lm-projection operators is LMMAX =          18
 
 POTCAR:     PAW_PBE Fe_pv 02Aug2007              
   SHA256 =  5d22e414b1f82158bf2c7ecb8b97b28fd0923e48cadc1c3bf74d524558f5dd32 Fe
   COPYR  = (c) Copyright 02Aug2007 Georg Kresse                                
   COPYR  = This file is part of the software VASP. Any use, copying, and all ot
   COPYR  = If you do not have a valid VASP license, you may not use, copy or di
   VRHFIN =Fe:  3pd7s1                                                          
   LEXCH  = PE                                                                  
   EATOM  =  2457.4239 eV,  180.6156 Ry                                         
                                                                                
   TITEL  = PAW_PBE Fe_pv 02Aug2007                                             
   LULTRA =        F    use ultrasoft PP ?                                      
   IUNSCR =        1    unscreen: 0-lin 1-nonlin 2-no                           
   RPACOR =    1.750    partial core radius                                     
   POMASS =   55.847; ZVAL   =   14.000    mass and valenz                      
   RCORE  =    2.200    outmost cutoff radius                                   
   RWIGS  =    2.200; RWIGS  =    1.164    wigner-seitz radius (au A)           
   ENMAX  =  293.238; ENMIN  =  219.928 eV                                      
   ICORE  =        3    local potential                                         
   LCOR   =        T    correct aug charges                                     
   LPAW   =        T    paw PP                                                  
   EAUG   =  578.342                                                            
   DEXC   =    0.000                                                            
   RMAX   =    2.249    core radius for proj-oper                               
   RAUG   =    1.300    factor for augmentation sphere                          
   RDEP   =    2.296    radius for radial grids                                 
   RDEPT  =    1.766    core radius for aug-charge                              
                                                                                
   Atomic configuration                                                         
    8 entries                                                                   
     n  l   j            E        occ.                                          
     1  0  0.50     -6993.8440   2.0000                                         
     2  0  0.50      -814.6047   2.0000                                         
     2  1  1.50      -693.3689   6.0000                                         
     3  0  0.50       -89.4732   2.0000                                         
     3  1  1.50       -55.6373   6.0000                                         
     3  2  2.50        -3.8151   7.0000                                         
     4  0  0.50        -4.2551   1.0000                                         
     4  3  2.50        -1.3606   0.0000                                         
   Description                                                                  
     l       E           TYP  RCUT    TYP  RCUT                                 
     1    -55.6372668     23  2.000                                             
     1     -5.4423304     23  2.000                                             
     2     -3.8151096     23  2.200                                             
     2     -5.1756922     23  2.200                                             
     0     -4.2550951     23  2.200                                             
     0     27.2116520     23  2.200                                             
     3     -1.3605826     23  2.200                                             
  local pseudopotential read in
  partial core-charges read in
  partial kinetic energy density read in
  atomic valenz-charges read in
  non local Contribution for L=           1  read in
    real space projection operators read in
  non local Contribution for L=           1  read in
    real space projection operators read in
  non local Contribution for L=           2  read in
    real space projection operators read in
  non local Contribution for L=           2  read in
    real space projection operators read in
  non local Contribution for L=           0  read in
    real space projection operators read in
  non local Contribution for L=           0  read in
    real space projection operators read in
    PAW grid and wavefunctions read in
 
   number of l-projection  operators is LMAX  =           6
   number of lm-projection operators is LMMAX =          18
 

 ----------------------------------------------------------------------------- 
|                                                                             |
|  ADVICE TO THIS USER RUNNING 'VASP/VAMP'   (HEAR YOUR MASTER'S VOICE ...):  |
|                                                                             |
|      You enforced a specific xc-type in the INCAR file,                     |
|      a different type was found on the POTCAR file                          |
|          I HOPE YOU KNOW, WHAT YOU ARE  DOING                               |
|                                                                             |
 ----------------------------------------------------------------------------- 

  PAW_PBE S 06Sep2000                   :
 energy of atom  1       EATOM= -276.8230
 kinetic energy error for atom=    0.0007 (will be added to EATOM!!)
   PAW_PBE Cu_pv 06Sep2000              :
 energy of atom  2       EATOM=-4120.1201
 kinetic energy error for atom=    0.0094 (will be added to EATOM!!)
   PAW_PBE Fe_pv 02Aug2007              :
 energy of atom  3       EATOM=-2457.4239
 kinetic energy error for atom=    0.0025 (will be added to EATOM!!)
 
 
 POSCAR: sm_isp_SD0310437-standardized_unitcell  
  positions in direct lattice
  velocities in cartesian coordinates
 exchange correlation table for  LEXCH =       14
   RHO(1)=    0.500       N(1)  =     2000
   RHO(2)=  100.500       N(2)  =     4000
 


--------------------------------------------------------------------------------------------------------


 ion  position               nearest neighbor table
   1  0.252  0.250  0.125-  10 2.25  11 2.25  13 2.26  16 2.26
   2  0.748  0.750  0.125-  10 2.25  11 2.25  13 2.26  16 2.26
   3  0.250  0.747  0.875-  11 2.25  12 2.25  14 2.27  13 2.27
   4  0.750  0.253  0.875-  11 2.25  12 2.25  14 2.27  13 2.27
   5  0.248  0.250  0.625-   9 2.25  12 2.25  14 2.26  15 2.26
   6  0.752  0.750  0.625-   9 2.25  12 2.25  14 2.26  15 2.26
   7  0.750  0.247  0.375-   9 2.25  10 2.25  15 2.27  16 2.27
   8  0.250  0.753  0.375-   9 2.25  10 2.25  15 2.27  16 2.27
   9  0.000  0.000  0.501-   5 2.25   6 2.25   7 2.25   8 2.25
  10  0.500  0.000  0.249-   1 2.25   2 2.25   7 2.25   8 2.25
  11  0.500  0.500  0.001-   1 2.25   2 2.25   4 2.25   3 2.25
  12  0.000  0.500  0.749-   5 2.25   6 2.25   4 2.25   3 2.25
  13  0.000  0.000  1.000-   2 2.26   1 2.26   3 2.27   4 2.27
  14  0.500  0.000  0.750-   6 2.26   5 2.26   3 2.27   4 2.27
  15  0.500  0.500  0.500-   6 2.26   5 2.26   8 2.27   7 2.27
  16  0.000  0.500  0.250-   2 2.26   1 2.26   8 2.27   7 2.27
 
  LATTYP: Found a simple orthorhombic cell.
 ALAT       =     5.1010220859
 B/A-ratio  =     1.0736917286
 C/A-ratio  =     1.9792277963
  
  Lattice vectors:
  
 A1 = (   5.1010220859,   0.0000000000,   0.0000000000)
 A2 = (   0.0000000000,   5.4769252208,   0.0000000000)
 A3 = (   0.0000000000,   0.0000000000,  10.0960847020)


Analysis of symmetry for initial positions (statically):
=====================================================================
 Subroutine PRICEL returns following result:
 
  LATTYP: Found a body centered orthorhombic cell.
 ALAT       =     5.1010220859
 B/A-ratio  =     1.0736917286
 C/A-ratio  =     1.9792277963
  
  Lattice vectors:
  
 A1 = (   2.5505110429,  -2.7384626104,   5.0480423510)
 A2 = (  -2.5505110429,   2.7384626104,   5.0480423510)
 A3 = (  -2.5505110429,  -2.7384626104,  -5.0480423510)
 
   2 primitive cells build up your supercell.
 

 Routine SETGRP: Setting up the symmetry group for a 
 simple orthorhombic supercell.


 Subroutine GETGRP returns: Found  4 space group operations
 (whereof  2 operations were pure point group operations)
 out of a pool of  8 trial point group operations.


The static configuration has the point symmetry C_2 .
 The point group associated with its full space group is D_2 .


Analysis of symmetry for dynamics (positions and initial velocities):
=====================================================================
 Subroutine PRICEL returns following result:
 
  LATTYP: Found a body centered orthorhombic cell.
 ALAT       =     5.1010220859
 B/A-ratio  =     1.0736917286
 C/A-ratio  =     1.9792277963
  
  Lattice vectors:
  
 A1 = (   2.5505110429,  -2.7384626104,   5.0480423510)
 A2 = (  -2.5505110429,   2.7384626104,   5.0480423510)
 A3 = (  -2.5505110429,  -2.7384626104,  -5.0480423510)
 
   2 primitive cells build up your supercell.
 

 Routine SETGRP: Setting up the symmetry group for a 
 simple orthorhombic supercell.


 Subroutine GETGRP returns: Found  4 space group operations
 (whereof  2 operations were pure point group operations)
 out of a pool of  8 trial point group operations.


The dynamic configuration has the point symmetry C_2 .
 The point group associated with its full space group is D_2 .


Analysis of structural, dynamic, and magnetic symmetry:
=====================================================================
 Subroutine PRICEL returns following result:
 
  LATTYP: Found a body centered orthorhombic cell.
 ALAT       =     5.1010220859
 B/A-ratio  =     1.0736917286
 C/A-ratio  =     1.9792277963
  
  Lattice vectors:
  
 A1 = (   2.5505110429,  -2.7384626104,   5.0480423510)
 A2 = (  -2.5505110429,   2.7384626104,   5.0480423510)
 A3 = (  -2.5505110429,  -2.7384626104,  -5.0480423510)
 
   2 primitive cells build up your supercell.
 

 Routine SETGRP: Setting up the symmetry group for a 
 simple orthorhombic supercell.


 Subroutine GETGRP returns: Found  4 space group operations
 (whereof  2 operations were pure point group operations)
 out of a pool of  8 trial point group operations.


The (compounded) configuration has the point symmetry C_2 .
 The point group associated with its full space group is D_2 .


 Subroutine INISYM returns: Found  4 space group operations
 (whereof  2 operations are pure point group operations),
 and found     2 'primitive' translations

 
 
 KPOINTS: Automatic mesh                          

Automatic generation of k-mesh.
Space group operators:
 irot       det(A)        alpha          n_x          n_y          n_z        tau_x        tau_y        tau_z
    1     1.000000     0.000000     1.000000     0.000000     0.000000     0.000000     0.000000     0.000000
    2     1.000000   179.999999     0.000000     0.000000     1.000000     0.000000     0.000000     0.000000
    3     1.000000   180.000000     0.000000     1.000000     0.000000     0.000000    -0.500000     0.250000
    4     1.000000   180.000000     1.000000     0.000000     0.000000     0.000000    -0.500000     0.250000
 
 Subroutine IBZKPT returns following result:
 ===========================================
 
 Found     36 irreducible k-points:
 
 Following reciprocal coordinates:
            Coordinates               Weight
  0.000000  0.000000  0.000000      1.000000
  0.166667  0.000000  0.000000      2.000000
  0.333333  0.000000  0.000000      2.000000
  0.500000  0.000000  0.000000      1.000000
  0.000000  0.166667  0.000000      2.000000
  0.166667  0.166667  0.000000      4.000000
  0.333333  0.166667  0.000000      4.000000
  0.500000  0.166667  0.000000      2.000000
  0.000000  0.333333  0.000000      2.000000
  0.166667  0.333333  0.000000      4.000000
  0.333333  0.333333  0.000000      4.000000
  0.500000  0.333333  0.000000      2.000000
  0.000000  0.500000  0.000000      1.000000
  0.166667  0.500000  0.000000      2.000000
  0.333333  0.500000  0.000000      2.000000
  0.500000  0.500000  0.000000      1.000000
  0.000000  0.000000  0.333333      2.000000
  0.166667  0.000000  0.333333      4.000000
  0.333333  0.000000  0.333333      4.000000
  0.500000  0.000000  0.333333      2.000000
  0.000000  0.166667  0.333333      4.000000
  0.166667  0.166667  0.333333      4.000000
  0.333333  0.166667  0.333333      4.000000
  0.500000  0.166667  0.333333      4.000000
 -0.333333  0.166667  0.333333      4.000000
 -0.166667  0.166667  0.333333      4.000000
  0.000000  0.333333  0.333333      4.000000
  0.166667  0.333333  0.333333      4.000000
  0.333333  0.333333  0.333333      4.000000
  0.500000  0.333333  0.333333      4.000000
 -0.333333  0.333333  0.333333      4.000000
 -0.166667  0.333333  0.333333      4.000000
  0.000000  0.500000  0.333333      2.000000
  0.166667  0.500000  0.333333      4.000000
  0.333333  0.500000  0.333333      4.000000
  0.500000  0.500000  0.333333      2.000000
 
 Following cartesian coordinates:
            Coordinates               Weight
  0.000000  0.000000  0.000000      1.000000
  0.032673  0.000000  0.000000      2.000000
  0.065346  0.000000  0.000000      2.000000
  0.098020  0.000000  0.000000      1.000000
  0.000000  0.030431  0.000000      2.000000
  0.032673  0.030431  0.000000      4.000000
  0.065346  0.030431  0.000000      4.000000
  0.098020  0.030431  0.000000      2.000000
  0.000000  0.060861  0.000000      2.000000
  0.032673  0.060861  0.000000      4.000000
  0.065346  0.060861  0.000000      4.000000
  0.098020  0.060861  0.000000      2.000000
  0.000000  0.091292  0.000000      1.000000
  0.032673  0.091292  0.000000      2.000000
  0.065346  0.091292  0.000000      2.000000
  0.098020  0.091292  0.000000      1.000000
  0.000000  0.000000  0.033016      2.000000
  0.032673  0.000000  0.033016      4.000000
  0.065346  0.000000  0.033016      4.000000
  0.098020  0.000000  0.033016      2.000000
  0.000000  0.030431  0.033016      4.000000
  0.032673  0.030431  0.033016      4.000000
  0.065346  0.030431  0.033016      4.000000
  0.098020  0.030431  0.033016      4.000000
 -0.065346  0.030431  0.033016      4.000000
 -0.032673  0.030431  0.033016      4.000000
  0.000000  0.060861  0.033016      4.000000
  0.032673  0.060861  0.033016      4.000000
  0.065346  0.060861  0.033016      4.000000
  0.098020  0.060861  0.033016      4.000000
 -0.065346  0.060861  0.033016      4.000000
 -0.032673  0.060861  0.033016      4.000000
  0.000000  0.091292  0.033016      2.000000
  0.032673  0.091292  0.033016      4.000000
  0.065346  0.091292  0.033016      4.000000
  0.098020  0.091292  0.033016      2.000000
 
 TETIRR: Found    544 inequivalent tetrahedra from      648


--------------------------------------------------------------------------------------------------------




 Dimension of arrays:
   k-points           NKPTS =     36   k-points in BZ     NKDIM =     36   number of bands    NBANDS=    208
   number of dos      NEDOS =    301   number of ions     NIONS =     16
   non local maximal  LDIM  =      6   non local SUM 2l+1 LMDIM =     18
   total plane-waves  NPLWV = 207360
   max r-space proj   IRMAX =      1   max aug-charges    IRDMAX=  23358
   dimension x,y,z NGX =    48 NGY =   48 NGZ =   90
   dimension x,y,z NGXF=    96 NGYF=   96 NGZF=  180
   support grid    NGXF=    96 NGYF=   96 NGZF=  180
   ions per type =               8   4   4
   NGX,Y,Z   is equivalent  to a cutoff of  15.64, 14.57, 14.82 a.u.
   NGXF,Y,Z  is equivalent  to a cutoff of  31.29, 29.14, 29.64 a.u.

 SYSTEM =  CuFeS2                                  
 POSCAR =  sm_isp_SD0310437-standardized_unitcell  

 Startparameter for this run:
   NWRITE =      2    write-flag & timer
   PREC   = accura    normal or accurate (medium, high low for compatibility)
   ISTART =      1    job   : 0-new  1-cont  2-samecut
   ICHARG =      1    charge: 1-file 2-atom 10-const
   ISPIN  =      1    spin polarized calculation?
   LNONCOLLINEAR =      T non collinear calculations
   LSORBIT =      F    spin-orbit coupling
   INIWAV =      1    electr: 0-lowe 1-rand  2-diag
   LASPH  =      T    aspherical Exc in radial PAW
   METAGGA=      F    non-selfconsistent MetaGGA calc.

 Electronic Relaxation 1
   ENCUT  =  700.0 eV  51.45 Ry    7.17 a.u.  11.00 11.82 21.78*2*pi/ulx,y,z
   ENINI  =  700.0     initial cutoff
   ENAUG  =  758.2 eV  augmentation charge cutoff
   NELM   =    200;   NELMIN=  2; NELMDL=  0     # of ELM steps 
   EDIFF  = 0.1E-07   stopping-criterion for ELM
   LREAL  =      F    real-space projection
   NLSPLINE    = F    spline interpolate recip. space projectors
   LCOMPAT=      F    compatible to vasp.4.4
   GGA_COMPAT  = T    GGA compatible to vasp.4.4-vasp.4.6
   LMAXPAW     = -100 max onsite density
   LMAXMIX     =    4 max onsite mixed and CHGCAR
   VOSKOWN=      0    Vosko Wilk Nusair interpolation
   ROPT   =    0.00000   0.00000   0.00000
 Ionic relaxation
   EDIFFG = -.1E-04   stopping-criterion for IOM
   NSW    =      0    number of steps for IOM
   NBLOCK =      1;   KBLOCK =      1    inner block; outer block 
   IBRION =     -1    ionic relax: 0-MD 1-quasi-New 2-CG
   NFREE  =      0    steps in history (QN), initial steepest desc. (CG)
   ISIF   =      2    stress and relaxation
   IWAVPR =     10    prediction:  0-non 1-charg 2-wave 3-comb
   ISYM   =      1    0-nonsym 1-usesym 2-fastsym
   LCORR  =      T    Harris-Foulkes like correction to forces

   POTIM  = 0.1000    time-step for ionic-motion
   TEIN   =    0.0    initial temperature
   TEBEG  =    0.0;   TEEND  =   0.0 temperature during run
   SMASS  =  -3.00    Nose mass-parameter (am)
   estimated Nose-frequenzy (Omega)   =  0.10E-29 period in steps =****** mass=  -0.595E-27a.u.
   SCALEE = 1.0000    scale energy and forces
   NPACO  =    256;   APACO  = 16.0  distance and # of slots for P.C.
   PSTRESS=    0.0 pullay stress

  Mass of Ions in am
   POMASS =  32.07 63.55 55.85
  Ionic Valenz
   ZVAL   =   6.00 17.00 14.00
  Atomic Wigner-Seitz radii
   RWIGS  =  -1.00 -1.00 -1.00
  virtual crystal weights 
   VCA    =   1.00  1.00  1.00
   NELECT =     172.0000    total number of electrons
   NUPDOWN=      -1.0000    fix difference up-down

 DOS related values:
   EMIN   =  10.00;   EMAX   =-10.00  energy-range for DOS
   EFERMI =   0.00
   ISMEAR =    -5;   SIGMA  =   0.03  broadening in eV -4-tet -1-fermi 0-gaus

 Electronic relaxation 2 (details)
   IALGO  =     58    algorithm
   LDIAG  =      T    sub-space diagonalisation (order eigenvalues)
   LSUBROT=      F    optimize rotation matrix (better conditioning)
   TURBO    =      0    0=normal 1=particle mesh
   IRESTART =      0    0=no restart 2=restart with 2 vectors
   NREBOOT  =      0    no. of reboots
   NMIN     =      0    reboot dimension
   EREF     =   0.00    reference energy to select bands
   IMIX   =      4    mixing-type and parameters
     AMIX     =   0.40;   BMIX     =  1.00
     AMIX_MAG =   1.60;   BMIX_MAG =  1.00
     AMIN     =   0.10
     WC   =   100.;   INIMIX=   1;  MIXPRE=   1;  MAXMIX= -45

 Intra band minimization:
   WEIMIN = 0.0000     energy-eigenvalue tresh-hold
   EBREAK =  0.12E-10  absolut break condition
   DEPER  =   0.30     relativ break condition  

   TIME   =   0.40     timestep for ELM

  volume/ion in A,a.u.               =      17.63       118.97
  Fermi-wavevector in a.u.,A,eV,Ry     =   1.388253  2.623418 26.221782  1.927247
  Thomas-Fermi vector in A             =   2.512397
 
 Write flags
   LWAVE        =      T    write WAVECAR
   LDOWNSAMPLE  =      F    k-point downsampling of WAVECAR
   LCHARG       =      T    write CHGCAR
   LVTOT        =      F    write LOCPOT, total local potential
   LVHAR        =      F    write LOCPOT, Hartree potential only
   LELF         =      F    write electronic localiz. function (ELF)
   LORBIT       =     11    0 simple, 1 ext, 2 COOP (PROOUT), +10 PAW based schemes


 Dipole corrections
   LMONO  =      F    monopole corrections only (constant potential shift)
   LDIPOL =      F    correct potential (dipole corrections)
   IDIPOL =      0    1-x, 2-y, 3-z, 4-all directions 
   EPSILON=  1.0000000 bulk dielectric constant

 LDA+U is selected, type is set to LDAUTYPE =  2
   angular momentum for each species LDAUL =     2    2    2
   U (eV)           for each species LDAUU =   0.0  0.1  4.7
   J (eV)           for each species LDAUJ =   0.0  0.0  0.0
 Exchange correlation treatment:
   GGA     =    PS    GGA type
   LEXCH   =    14    internal setting for exchange type
   VOSKOWN=      0    Vosko Wilk Nusair interpolation
   LHFCALC =     F    Hartree Fock is set to
   LHFONE  =     F    Hartree Fock one center treatment
   AEXX    =    0.0000 exact exchange contribution

 Linear response parameters
   LEPSILON=     F    determine dielectric tensor
   LRPA    =     F    only Hartree local field effects (RPA)
   LNABLA  =     F    use nabla operator in PAW spheres
   LVEL    =     F    velocity operator in full k-point grid
   LINTERFAST=   F  fast interpolation
   KINTER  =     0    interpolate to denser k-point grid
   CSHIFT  =0.1000    complex shift for real part using Kramers Kronig
   OMEGAMAX=  -1.0    maximum frequency
   DEG_THRESHOLD= 0.2000000E-02 threshold for treating states as degnerate
   RTIME   =   -0.100 relaxation time in fs
  (WPLASMAI=    0.000 imaginary part of plasma frequency in eV, 0.658/RTIME)
   DFIELD  = 0.0000000 0.0000000 0.0000000 field for delta impulse in time
 
 Orbital magnetization related:
   ORBITALMAG=     F  switch on orbital magnetization
   LCHIMAG   =     F  perturbation theory with respect to B field
   DQ        =  0.001000  dq finite difference perturbation B field
   LLRAUG    =     F  two centre corrections for induced B field



--------------------------------------------------------------------------------------------------------


 Static calculation
 charge density and potential will be updated during run
 non collinear spin polarized calculation
 Conjugate gradient for all bands (Freysoldt, et al. PRB 79, 241103 (2009))
 preconditioned conjugated gradient                                        
 perform sub-space diagonalisation
    before iterative eigenvector-optimisation
 modified Broyden-mixing scheme, WC =      100.0
 initial mixing is a Kerker type mixing with AMIX =  0.4000 and BMIX =      1.0000
 Hartree-type preconditioning will be used
 using additional bands          122
 reciprocal scheme for non local part
 use partial core corrections
 no Harris-corrections to forces 
 use gradient corrections 
 use of overlap-Matrix (Vanderbilt PP)
 Fermi weights with tetrahedron method with Bloechl corrections


--------------------------------------------------------------------------------------------------------


  energy-cutoff  :      700.00
  volume of cell :      282.06
      direct lattice vectors                 reciprocal lattice vectors
     5.101022086  0.000000000  0.000000000     0.196039143  0.000000000  0.000000000
     0.000000000  5.476925221  0.000000000     0.000000000  0.182584198  0.000000000
     0.000000000  0.000000000 10.096084702     0.000000000  0.000000000  0.099048297

  length of vectors
     5.101022086  5.476925221 10.096084702     0.196039143  0.182584198  0.099048297


 
 old parameters found on file WAVECAR:
  energy-cutoff  :      700.00
  volume of cell :      281.96
      direct lattice vectors                 reciprocal lattice vectors
     5.101022086  0.000000000  0.000000000     0.196039143  0.000000000  0.000000000
     0.000000000  5.475002432  0.000000000     0.000000000  0.182648321  0.000000000
     0.000000000  0.000000000 10.096084702     0.000000000  0.000000000  0.099048297

  length of vectors

 
 k-points in units of 2pi/SCALE and weight: Automatic mesh                          
   0.00000000  0.00000000  0.00000000       0.009
   0.03267319  0.00000000  0.00000000       0.019
   0.06534638  0.00000000  0.00000000       0.019
   0.09801957  0.00000000  0.00000000       0.009
   0.00000000  0.03043070  0.00000000       0.019
   0.03267319  0.03043070  0.00000000       0.037
   0.06534638  0.03043070  0.00000000       0.037
   0.09801957  0.03043070  0.00000000       0.019
   0.00000000  0.06086140  0.00000000       0.019
   0.03267319  0.06086140  0.00000000       0.037
   0.06534638  0.06086140  0.00000000       0.037
   0.09801957  0.06086140  0.00000000       0.019
   0.00000000  0.09129210  0.00000000       0.009
   0.03267319  0.09129210  0.00000000       0.019
   0.06534638  0.09129210  0.00000000       0.019
   0.09801957  0.09129210  0.00000000       0.009
   0.00000000  0.00000000  0.03301610       0.019
   0.03267319  0.00000000  0.03301610       0.037
   0.06534638  0.00000000  0.03301610       0.037
   0.09801957  0.00000000  0.03301610       0.019
   0.00000000  0.03043070  0.03301610       0.037
   0.03267319  0.03043070  0.03301610       0.037
   0.06534638  0.03043070  0.03301610       0.037
   0.09801957  0.03043070  0.03301610       0.037
  -0.06534638  0.03043070  0.03301610       0.037
  -0.03267319  0.03043070  0.03301610       0.037
   0.00000000  0.06086140  0.03301610       0.037
   0.03267319  0.06086140  0.03301610       0.037
   0.06534638  0.06086140  0.03301610       0.037
   0.09801957  0.06086140  0.03301610       0.037
  -0.06534638  0.06086140  0.03301610       0.037
  -0.03267319  0.06086140  0.03301610       0.037
   0.00000000  0.09129210  0.03301610       0.019
   0.03267319  0.09129210  0.03301610       0.037
   0.06534638  0.09129210  0.03301610       0.037
   0.09801957  0.09129210  0.03301610       0.019
 
 k-points in reciprocal lattice and weights: Automatic mesh                          
   0.00000000  0.00000000  0.00000000       0.009
   0.16666667  0.00000000  0.00000000       0.019
   0.33333333  0.00000000  0.00000000       0.019
   0.50000000  0.00000000  0.00000000       0.009
   0.00000000  0.16666667  0.00000000       0.019
   0.16666667  0.16666667  0.00000000       0.037
   0.33333333  0.16666667  0.00000000       0.037
   0.50000000  0.16666667  0.00000000       0.019
   0.00000000  0.33333333  0.00000000       0.019
   0.16666667  0.33333333  0.00000000       0.037
   0.33333333  0.33333333  0.00000000       0.037
   0.50000000  0.33333333  0.00000000       0.019
   0.00000000  0.50000000  0.00000000       0.009
   0.16666667  0.50000000  0.00000000       0.019
   0.33333333  0.50000000  0.00000000       0.019
   0.50000000  0.50000000  0.00000000       0.009
   0.00000000  0.00000000  0.33333333       0.019
   0.16666667  0.00000000  0.33333333       0.037
   0.33333333  0.00000000  0.33333333       0.037
   0.50000000  0.00000000  0.33333333       0.019
   0.00000000  0.16666667  0.33333333       0.037
   0.16666667  0.16666667  0.33333333       0.037
   0.33333333  0.16666667  0.33333333       0.037
   0.50000000  0.16666667  0.33333333       0.037
  -0.33333333  0.16666667  0.33333333       0.037
  -0.16666667  0.16666667  0.33333333       0.037
   0.00000000  0.33333333  0.33333333       0.037
   0.16666667  0.33333333  0.33333333       0.037
   0.33333333  0.33333333  0.33333333       0.037
   0.50000000  0.33333333  0.33333333       0.037
  -0.33333333  0.33333333  0.33333333       0.037
  -0.16666667  0.33333333  0.33333333       0.037
   0.00000000  0.50000000  0.33333333       0.019
   0.16666667  0.50000000  0.33333333       0.037
   0.33333333  0.50000000  0.33333333       0.037
   0.50000000  0.50000000  0.33333333       0.019
 
 position of ions in fractional coordinates (direct lattice) 
   0.25203648  0.25000000  0.12500000
   0.74796355  0.75000000  0.12500000
   0.25000000  0.74718182  0.87500000
   0.75000000  0.25281821  0.87500000
   0.24796352  0.25000000  0.62500000
   0.75203645  0.75000000  0.62500000
   0.75000000  0.24718179  0.37500000
   0.25000000  0.75281818  0.37500000
   0.00000000  0.00000000  0.50071690
   0.50000000  0.00000000  0.24928310
   0.50000000  0.50000000  0.00071690
   0.00000000  0.50000000  0.74928310
   0.00000000  0.00000000  0.99992249
   0.50000000  0.00000000  0.75007751
   0.50000000  0.50000000  0.49992249
   0.00000000  0.50000000  0.25007751
 
 position of ions in cartesian coordinates  (Angst):
   1.28564364  1.36923131  1.26201059
   3.81537860  4.10769392  1.26201059
   1.27525552  4.09225897  8.83407411
   3.82576656  1.38466642  8.83407411
   1.26486740  1.36923131  6.31005294
   3.83615453  4.10769392  6.31005294
   3.82576656  1.35379619  3.78603176
   1.27525552  4.12312886  3.78603176
   0.00000000  0.00000000  5.05528025
   2.55051104  0.00000000  2.51678328
   2.55051104  2.73846261  0.00723789
   0.00000000  2.73846261  7.56482563
   0.00000000  0.00000000 10.09530215
   2.55051104  0.00000000  7.57284608
   2.55051104  2.73846261  5.04725980
   0.00000000  2.73846261  2.52480373
 
 Euler angles ALPHA=     0.0000000  BETA=     0.0000000

 transformation matrix from SAXIS to cartesian coordinates
 ---------------------------------------------------------
     1.0000000 m_x     0.0000000 m_y     0.0000000 m_z
     0.0000000 m_x     1.0000000 m_y     0.0000000 m_z
     0.0000000 m_x     0.0000000 m_y     1.0000000 m_z

 transformation matrix from cartesian coordinates to SAXIS
 ---------------------------------------------------------
     1.0000000 m_x     0.0000000 m_y     0.0000000 m_z
     0.0000000 m_x     1.0000000 m_y     0.0000000 m_z
     0.0000000 m_x     0.0000000 m_y     1.0000000 m_z




--------------------------------------------------------------------------------------------------------


 k-point  1 :   0.0000 0.0000 0.0000  plane waves:   23574
 k-point  2 :   0.1667 0.0000 0.0000  plane waves:   23744
 k-point  3 :   0.3333 0.0000 0.0000  plane waves:   23772
 k-point  4 :   0.5000 0.0000 0.0000  plane waves:   23732
 k-point  5 :   0.0000 0.1667 0.0000  plane waves:   23630
 k-point  6 :   0.1667 0.1667 0.0000  plane waves:   23726
 k-point  7 :   0.3333 0.1667 0.0000  plane waves:   23750
 k-point  8 :   0.5000 0.1667 0.0000  plane waves:   23712
 k-point  9 :   0.0000 0.3333 0.0000  plane waves:   23700
 k-point 10 :   0.1667 0.3333 0.0000  plane waves:   23714
 k-point 11 :   0.3333 0.3333 0.0000  plane waves:   23770
 k-point 12 :   0.5000 0.3333 0.0000  plane waves:   23740
 k-point 13 :   0.0000 0.5000 0.0000  plane waves:   23712
 k-point 14 :   0.1667 0.5000 0.0000  plane waves:   23756
 k-point 15 :   0.3333 0.5000 0.0000  plane waves:   23740
 k-point 16 :   0.5000 0.5000 0.0000  plane waves:   23656
 k-point 17 :   0.0000 0.0000 0.3333  plane waves:   23664
 k-point 18 :   0.1667 0.0000 0.3333  plane waves:   23722
 k-point 19 :   0.3333 0.0000 0.3333  plane waves:   23754
 k-point 20 :   0.5000 0.0000 0.3333  plane waves:   23752
 k-point 21 :   0.0000 0.1667 0.3333  plane waves:   23646
 k-point 22 :   0.1667 0.1667 0.3333  plane waves:   23714
 k-point 23 :   0.3333 0.1667 0.3333  plane waves:   23726
 k-point 24 :   0.5000 0.1667 0.3333  plane waves:   23756
 k-point 25 :  -0.3333 0.1667 0.3333  plane waves:   23726
 k-point 26 :  -0.1667 0.1667 0.3333  plane waves:   23714
 k-point 27 :   0.0000 0.3333 0.3333  plane waves:   23716
 k-point 28 :   0.1667 0.3333 0.3333  plane waves:   23714
 k-point 29 :   0.3333 0.3333 0.3333  plane waves:   23728
 k-point 30 :   0.5000 0.3333 0.3333  plane waves:   23756
 k-point 31 :  -0.3333 0.3333 0.3333  plane waves:   23728
 k-point 32 :  -0.1667 0.3333 0.3333  plane waves:   23714
 k-point 33 :   0.0000 0.5000 0.3333  plane waves:   23732
 k-point 34 :   0.1667 0.5000 0.3333  plane waves:   23768
 k-point 35 :   0.3333 0.5000 0.3333  plane waves:   23744
 k-point 36 :   0.5000 0.5000 0.3333  plane waves:   23760

 maximum and minimum number of plane-waves per node :       792      696

 maximum number of plane-waves:     23772
 maximum index in each direction: 
   IXMAX=   11   IYMAX=   11   IZMAX=   21
   IXMIN=  -11   IYMIN=  -12   IZMIN=  -22


 parallel 3D FFT for wavefunctions:
    minimum data exchange during FFTs selected (reduces bandwidth)
 parallel 3D FFT for charge:
    minimum data exchange during FFTs selected (reduces bandwidth)


 total amount of memory used by VASP MPI-rank0    78837. kBytes
=======================================================================

   base      :      30000. kBytes
   nonl-proj :       5943. kBytes
   fftplans  :       1363. kBytes
   grid      :       5529. kBytes
   one-center:         62. kBytes
   wavefun   :      35940. kBytes
 
     INWAV:  cpu time    7.4268: real time    7.5073
 Broyden mixing: mesh for mixing (old mesh)
   NGX = 23   NGY = 23   NGZ = 43
  (NGX  = 96   NGY  = 96   NGZ  =180)
  gives a total of  22747 points

 initial charge density was supplied:
 number of electron     171.9999887 magnetization      -0.0000000      0.0000000      0.0000000
 charge density for first step will be calculated from the start-wavefunctions


--------------------------------------------------------------------------------------------------------


 BZINTS: Fermi energy:  5.179599;172.000000 electrons
         Band energy:***********;  BLOECHL correction:  0.000000
 Maximum index for augmentation-charges          881 (set IRDMAX)


--------------------------------------------------------------------------------------------------------


 initial charge from wavefunction
 First call to EWALD:  gamma=   0.270
 Maximum number of real-space cells 3x 3x 2
 Maximum number of reciprocal cells 2x 2x 4

    FEWALD:  cpu time    0.0099: real time    0.0099

 ----------------------------------------------------------------------------- 
|                                                                             |
|           W    W    AA    RRRRR   N    N  II  N    N   GGGG   !!!           |
|           W    W   A  A   R    R  NN   N  II  NN   N  G    G  !!!           |
|           W    W  A    A  R    R  N N  N  II  N N  N  G       !!!           |
|           W WW W  AAAAAA  RRRRR   N  N N  II  N  N N  G  GGG   !            |
|           WW  WW  A    A  R   R   N   NN  II  N   NN  G    G                |
|           W    W  A    A  R    R  N    N  II  N    N   GGGG   !!!           |
|                                                                             |
|      ALGO=A and IALGO=5X tend to fail with the tetrahedron method           |
|      (e.g. Bloechls method ISMEAR=-5 is not variational)                    |
|      please switch to IMSEAR=0-n, except for DOS calculations               |
|      For DOS calculations use IALGO=53 after preconverging with ISMEAR>=0   |
|          I HOPE YOU KNOW, WHAT YOU ARE  DOING                               |
|                                                                             |
 ----------------------------------------------------------------------------- 



--------------------------------------- Iteration      1(   1)  ---------------------------------------


    POTLOK:  cpu time    0.1854: real time    0.1866
    SETDIJ:  cpu time    0.5964: real time    0.5982
    TRIAL :  cpu time    4.4838: real time    4.5684
 BZINTS: Fermi energy:  5.179597;172.000000 electrons
         Band energy:***********;  BLOECHL correction:  0.000000
 BZINTS: Fermi energy:  5.179593;172.000000 electrons
         Band energy:***********;  BLOECHL correction:  0.000000
    CORREC:  cpu time    3.9535: real time    3.9721
    CHARGE:  cpu time    1.0602: real time    1.0653
    --------------------------------------------
      LOOP:  cpu time   10.3032: real time   10.4155

 eigenvalue-minimisations  :     0
 total energy-change (2. order) :-0.8193356E+02  (-0.9910169E-05)
 number of electron     171.9999887 magnetization       0.0000000      0.0000000      0.0000000
 augmentation part       70.5487745 magnetization      -0.0000001      0.0000001     -0.0004368

 Free energy of the ion-electron system (eV)
  ---------------------------------------------------
  alpha Z        PSCENC =       600.74013862
  Ewald energy   TEWEN  =    -15727.81767961
  -Hartree energ DENC   =    -10669.30835550
  -exchange      EXHF   =         0.00000000
  -V(xc)+E(xc)   XCENC  =       822.23940907
  PAW double counting   =     28240.04019370   -29163.95351196
  entropy T*S    EENTRO =         0.00000000
  eigenvalues    EBANDS =     -2688.89002991
  atomic energy  EATOM  =     28505.01627691
  ---------------------------------------------------
  free energy    TOTEN  =       -81.93355869 eV

  energy without entropy =      -81.93355869  energy(sigma->0) =      -81.93355869


--------------------------------------------------------------------------------------------------------




--------------------------------------- Iteration      1(   2)  ---------------------------------------


    POTLOK:  cpu time    0.0994: real time    0.0999
    SETDIJ:  cpu time    0.5931: real time    0.5949
    TRIAL :  cpu time    4.4160: real time    4.4423
 BZINTS: Fermi energy:  5.179612;172.000000 electrons
         Band energy:***********;  BLOECHL correction:  0.000000
 BZINTS: Fermi energy:  5.179598;172.000000 electrons
         Band energy:***********;  BLOECHL correction:  0.000000
    CORREC:  cpu time    3.9443: real time    3.9626
    CHARGE:  cpu time    1.0819: real time    1.0871
    --------------------------------------------
      LOOP:  cpu time   10.1974: real time   10.2513

 eigenvalue-minimisations  :     0
 total energy-change (2. order) :-0.1250802E-04  (-0.2654447E-05)
 number of electron     171.9999887 magnetization       0.0000000      0.0000000      0.0000000
 augmentation part       70.5487745 magnetization      -0.0000002      0.0000007     -0.0004368

 Free energy of the ion-electron system (eV)
  ---------------------------------------------------
  alpha Z        PSCENC =       600.74013862
  Ewald energy   TEWEN  =    -15727.81767961
  -Hartree energ DENC   =    -10669.30830197
  -exchange      EXHF   =         0.00000000
  -V(xc)+E(xc)   XCENC  =       822.23941614
  PAW double counting   =     28240.04034959   -29163.95368041
  entropy T*S    EENTRO =         0.00000000
  eigenvalues    EBANDS =     -2688.89009046
  atomic energy  EATOM  =     28505.01627691
  ---------------------------------------------------
  free energy    TOTEN  =       -81.93357120 eV

  energy without entropy =      -81.93357120  energy(sigma->0) =      -81.93357120


--------------------------------------------------------------------------------------------------------




--------------------------------------- Iteration      1(   3)  ---------------------------------------


    POTLOK:  cpu time    0.0959: real time    0.0964
    SETDIJ:  cpu time    0.5907: real time    0.5925
    TRIAL :  cpu time    4.3936: real time    4.4202
 BZINTS: Fermi energy:  5.179599;172.000000 electrons
         Band energy:***********;  BLOECHL correction:  0.000000
 BZINTS: Fermi energy:  5.179594;172.000000 electrons
         Band energy:***********;  BLOECHL correction:  0.000000
    CORREC:  cpu time    3.9525: real time    3.9717
    CHARGE:  cpu time    1.0601: real time    1.0654
    --------------------------------------------
      LOOP:  cpu time   10.1548: real time   10.2115

 eigenvalue-minimisations  :     0
 total energy-change (2. order) :-0.1482236E-04  (-0.2832823E-05)
 number of electron     171.9999887 magnetization       0.0000000      0.0000000      0.0000000
 augmentation part       70.5487746 magnetization       0.0000000      0.0000006     -0.0004368

 Free energy of the ion-electron system (eV)
  ---------------------------------------------------
  alpha Z        PSCENC =       600.74013862
  Ewald energy   TEWEN  =    -15727.81767961
  -Hartree energ DENC   =    -10669.30829101
  -exchange      EXHF   =         0.00000000
  -V(xc)+E(xc)   XCENC  =       822.23939228
  PAW double counting   =     28240.04043601   -29163.95376554
  entropy T*S    EENTRO =         0.00000000
  eigenvalues    EBANDS =     -2688.89009369
  atomic energy  EATOM  =     28505.01627691
  ---------------------------------------------------
  free energy    TOTEN  =       -81.93358602 eV

  energy without entropy =      -81.93358602  energy(sigma->0) =      -81.93358602


--------------------------------------------------------------------------------------------------------




--------------------------------------- Iteration      1(   4)  ---------------------------------------


    POTLOK:  cpu time    0.0950: real time    0.0955
    SETDIJ:  cpu time    0.5894: real time    0.5913
    TRIAL :  cpu time    4.4757: real time    4.5024
 BZINTS: Fermi energy:  5.179609;172.000000 electrons
         Band energy:***********;  BLOECHL correction:  0.000000
 BZINTS: Fermi energy:  5.179597;172.000000 electrons
         Band energy:***********;  BLOECHL correction:  0.000000
    CORREC:  cpu time    3.9170: real time    3.9359
    CHARGE:  cpu time    1.0612: real time    1.0663
    --------------------------------------------
      LOOP:  cpu time   10.2015: real time   10.2550

 eigenvalue-minimisations  :     0
 total energy-change (2. order) :-0.2292305E-05  (-0.1262753E-05)
 number of electron     171.9999887 magnetization       0.0000000      0.0000000      0.0000000
 augmentation part       70.5487746 magnetization      -0.0000001      0.0000007     -0.0004368

 Free energy of the ion-electron system (eV)
  ---------------------------------------------------
  alpha Z        PSCENC =       600.74013862
  Ewald energy   TEWEN  =    -15727.81767961
  -Hartree energ DENC   =    -10669.30828717
  -exchange      EXHF   =         0.00000000
  -V(xc)+E(xc)   XCENC  =       822.23939737
  PAW double counting   =     28240.04057754   -29163.95390660
  entropy T*S    EENTRO =         0.00000000
  eigenvalues    EBANDS =     -2688.89010536
  atomic energy  EATOM  =     28505.01627691
  ---------------------------------------------------
  free energy    TOTEN  =       -81.93358831 eV

  energy without entropy =      -81.93358831  energy(sigma->0) =      -81.93358831


--------------------------------------------------------------------------------------------------------




--------------------------------------- Iteration      1(   5)  ---------------------------------------


    POTLOK:  cpu time    0.0958: real time    0.0964
    SETDIJ:  cpu time    0.5929: real time    0.5946
    TRIAL :  cpu time    4.4083: real time    4.4335
 BZINTS: Fermi energy:  5.179597;172.000000 electrons
         Band energy:***********;  BLOECHL correction:  0.000000
 BZINTS: Fermi energy:  5.179595;172.000000 electrons
         Band energy:***********;  BLOECHL correction:  0.000000
    CORREC:  cpu time    3.9549: real time    3.9742
    CHARGE:  cpu time    1.0597: real time    1.0649
    --------------------------------------------
      LOOP:  cpu time   10.1737: real time   10.2276

 eigenvalue-minimisations  :     0
 total energy-change (2. order) :-0.8204752E-05  (-0.9548319E-06)
 number of electron     171.9999887 magnetization       0.0000000      0.0000000      0.0000000
 augmentation part       70.5487747 magnetization      -0.0000001      0.0000005     -0.0004368

 Free energy of the ion-electron system (eV)
  ---------------------------------------------------
  alpha Z        PSCENC =       600.74013862
  Ewald energy   TEWEN  =    -15727.81767961
  -Hartree energ DENC   =    -10669.30828631
  -exchange      EXHF   =         0.00000000
  -V(xc)+E(xc)   XCENC  =       822.23938349
  PAW double counting   =     28240.04067600   -29163.95400482
  entropy T*S    EENTRO =         0.00000000
  eigenvalues    EBANDS =     -2688.89010080
  atomic energy  EATOM  =     28505.01627691
  ---------------------------------------------------
  free energy    TOTEN  =       -81.93359652 eV

  energy without entropy =      -81.93359652  energy(sigma->0) =      -81.93359652


--------------------------------------------------------------------------------------------------------




--------------------------------------- Iteration      1(   6)  ---------------------------------------


    POTLOK:  cpu time    0.0973: real time    0.0978
    SETDIJ:  cpu time    0.5927: real time    0.5946
    TRIAL :  cpu time    4.4013: real time    4.4276
 BZINTS: Fermi energy:  5.179601;172.000000 electrons
         Band energy:***********;  BLOECHL correction:  0.000000
 BZINTS: Fermi energy:  5.179597;172.000000 electrons
         Band energy:***********;  BLOECHL correction:  0.000000
    CORREC:  cpu time    3.9490: real time    3.9680
    CHARGE:  cpu time    1.0688: real time    1.0740
    --------------------------------------------
      LOOP:  cpu time   10.1745: real time   10.2279

 eigenvalue-minimisations  :     0
 total energy-change (2. order) :-0.3739551E-06  (-0.7437900E-06)
 number of electron     171.9999887 magnetization       0.0000000      0.0000000      0.0000000
 augmentation part       70.5487747 magnetization      -0.0000001      0.0000006     -0.0004368

 Free energy of the ion-electron system (eV)
  ---------------------------------------------------
  alpha Z        PSCENC =       600.74013862
  Ewald energy   TEWEN  =    -15727.81767961
  -Hartree energ DENC   =    -10669.30828800
  -exchange      EXHF   =         0.00000000
  -V(xc)+E(xc)   XCENC  =       822.23938648
  PAW double counting   =     28240.04075624   -29163.95408498
  entropy T*S    EENTRO =         0.00000000
  eigenvalues    EBANDS =     -2688.89010255
  atomic energy  EATOM  =     28505.01627691
  ---------------------------------------------------
  free energy    TOTEN  =       -81.93359689 eV

  energy without entropy =      -81.93359689  energy(sigma->0) =      -81.93359689


--------------------------------------------------------------------------------------------------------




--------------------------------------- Iteration      1(   7)  ---------------------------------------


    POTLOK:  cpu time    0.0944: real time    0.0950
    SETDIJ:  cpu time    0.5891: real time    0.5909
    TRIAL :  cpu time    4.4190: real time    4.4450
 BZINTS: Fermi energy:  5.179596;172.000000 electrons
         Band energy:***********;  BLOECHL correction:  0.000000
 BZINTS: Fermi energy:  5.179595;172.000000 electrons
         Band energy:***********;  BLOECHL correction:  0.000000
    CORREC:  cpu time    3.9381: real time    3.9568
    CHARGE:  cpu time    1.0846: real time    1.0899
    --------------------------------------------
      LOOP:  cpu time   10.1897: real time   10.2426

 eigenvalue-minimisations  :     0
 total energy-change (2. order) :-0.1282617E-05  (-0.5616851E-06)
 number of electron     171.9999887 magnetization       0.0000000      0.0000000      0.0000000
 augmentation part       70.5487747 magnetization      -0.0000001      0.0000005     -0.0004368

 Free energy of the ion-electron system (eV)
  ---------------------------------------------------
  alpha Z        PSCENC =       600.74013862
  Ewald energy   TEWEN  =    -15727.81767961
  -Hartree energ DENC   =    -10669.30829058
  -exchange      EXHF   =         0.00000000
  -V(xc)+E(xc)   XCENC  =       822.23938668
  PAW double counting   =     28240.04085564   -29163.95418430
  entropy T*S    EENTRO =         0.00000000
  eigenvalues    EBANDS =     -2688.89010152
  atomic energy  EATOM  =     28505.01627691
  ---------------------------------------------------
  free energy    TOTEN  =       -81.93359817 eV

  energy without entropy =      -81.93359817  energy(sigma->0) =      -81.93359817


--------------------------------------------------------------------------------------------------------




--------------------------------------- Iteration      1(   8)  ---------------------------------------


    POTLOK:  cpu time    0.0945: real time    0.0951
    SETDIJ:  cpu time    0.5924: real time    0.5944
    TRIAL :  cpu time    4.4008: real time    4.4272
 BZINTS: Fermi energy:  5.179599;172.000000 electrons
         Band energy:***********;  BLOECHL correction:  0.000000
 BZINTS: Fermi energy:  5.179596;172.000000 electrons
         Band energy:***********;  BLOECHL correction:  0.000000
    CORREC:  cpu time    3.9252: real time    3.9444
    CHARGE:  cpu time    1.0636: real time    1.0689
    --------------------------------------------
      LOOP:  cpu time   10.1379: real time   10.1944

 eigenvalue-minimisations  :     0
 total energy-change (2. order) :-0.1983575E-05  (-0.4134575E-06)
 number of electron     171.9999887 magnetization       0.0000000      0.0000000      0.0000000
 augmentation part       70.5487748 magnetization      -0.0000001      0.0000006     -0.0004368

 Free energy of the ion-electron system (eV)
  ---------------------------------------------------
  alpha Z        PSCENC =       600.74013862
  Ewald energy   TEWEN  =    -15727.81767961
  -Hartree energ DENC   =    -10669.30829350
  -exchange      EXHF   =         0.00000000
  -V(xc)+E(xc)   XCENC  =       822.23938449
  PAW double counting   =     28240.04094825   -29163.95427684
  entropy T*S    EENTRO =         0.00000000
  eigenvalues    EBANDS =     -2688.89009847
  atomic energy  EATOM  =     28505.01627691
  ---------------------------------------------------
  free energy    TOTEN  =       -81.93360016 eV

  energy without entropy =      -81.93360016  energy(sigma->0) =      -81.93360016


--------------------------------------------------------------------------------------------------------




--------------------------------------- Iteration      1(   9)  ---------------------------------------


    POTLOK:  cpu time    0.0943: real time    0.0948
    SETDIJ:  cpu time    0.5892: real time    0.5911
    TRIAL :  cpu time    4.4781: real time    4.5048
 BZINTS: Fermi energy:  5.179594;172.000000 electrons
         Band energy:***********;  BLOECHL correction:  0.000000
 BZINTS: Fermi energy:  5.179595;172.000000 electrons
         Band energy:***********;  BLOECHL correction:  0.000000
    CORREC:  cpu time    3.9312: real time    3.9498
    CHARGE:  cpu time    1.0615: real time    1.0667
    --------------------------------------------
      LOOP:  cpu time   10.2162: real time   10.2711

 eigenvalue-minimisations  :     0
 total energy-change (2. order) :-0.1063763E-05  (-0.3581196E-06)
 number of electron     171.9999887 magnetization       0.0000000      0.0000000      0.0000000
 augmentation part       70.5487748 magnetization      -0.0000001      0.0000005     -0.0004368

 Free energy of the ion-electron system (eV)
  ---------------------------------------------------
  alpha Z        PSCENC =       600.74013862
  Ewald energy   TEWEN  =    -15727.81767961
  -Hartree energ DENC   =    -10669.30829599
  -exchange      EXHF   =         0.00000000
  -V(xc)+E(xc)   XCENC  =       822.23938390
  PAW double counting   =     28240.04102598   -29163.95435448
  entropy T*S    EENTRO =         0.00000000
  eigenvalues    EBANDS =     -2688.89009654
  atomic energy  EATOM  =     28505.01627691
  ---------------------------------------------------
  free energy    TOTEN  =       -81.93360122 eV

  energy without entropy =      -81.93360122  energy(sigma->0) =      -81.93360122


--------------------------------------------------------------------------------------------------------




--------------------------------------- Iteration      1(  10)  ---------------------------------------


    POTLOK:  cpu time    0.0951: real time    0.0956
    SETDIJ:  cpu time    0.5925: real time    0.5944
    TRIAL :  cpu time    4.3816: real time    4.4076
 BZINTS: Fermi energy:  5.179598;172.000000 electrons
         Band energy:***********;  BLOECHL correction:  0.000000
 BZINTS: Fermi energy:  5.179596;172.000000 electrons
         Band energy:***********;  BLOECHL correction:  0.000000
    CORREC:  cpu time    3.9511: real time    3.9704
    CHARGE:  cpu time    1.0643: real time    1.0696
    --------------------------------------------
      LOOP:  cpu time   10.1462: real time   10.2009

 eigenvalue-minimisations  :     0
 total energy-change (2. order) :-0.1017277E-05  (-0.2581283E-06)
 number of electron     171.9999887 magnetization       0.0000000      0.0000000      0.0000000
 augmentation part       70.5487748 magnetization      -0.0000001      0.0000005     -0.0004368

 Free energy of the ion-electron system (eV)
  ---------------------------------------------------
  alpha Z        PSCENC =       600.74013862
  Ewald energy   TEWEN  =    -15727.81767961
  -Hartree energ DENC   =    -10669.30829860
  -exchange      EXHF   =         0.00000000
  -V(xc)+E(xc)   XCENC  =       822.23938310
  PAW double counting   =     28240.04110174   -29163.95443014
  entropy T*S    EENTRO =         0.00000000
  eigenvalues    EBANDS =     -2688.89009426
  atomic energy  EATOM  =     28505.01627691
  ---------------------------------------------------
  free energy    TOTEN  =       -81.93360224 eV

  energy without entropy =      -81.93360224  energy(sigma->0) =      -81.93360224


--------------------------------------------------------------------------------------------------------




--------------------------------------- Iteration      1(  11)  ---------------------------------------


    POTLOK:  cpu time    0.0953: real time    0.0959
    SETDIJ:  cpu time    0.5889: real time    0.5910
    TRIAL :  cpu time    4.4015: real time    4.4328
 BZINTS: Fermi energy:  5.179594;172.000000 electrons
         Band energy:***********;  BLOECHL correction:  0.000000
 BZINTS: Fermi energy:  5.179596;172.000000 electrons
         Band energy:***********;  BLOECHL correction:  0.000000
    CORREC:  cpu time    3.9213: real time    3.9407
    CHARGE:  cpu time    1.0587: real time    1.0641
    --------------------------------------------
      LOOP:  cpu time   10.1284: real time   10.1878

 eigenvalue-minimisations  :     0
 total energy-change (2. order) :-0.1111854E-05  (-0.2130942E-06)
 number of electron     171.9999887 magnetization       0.0000000      0.0000000      0.0000000
 augmentation part       70.5487748 magnetization      -0.0000001      0.0000005     -0.0004368

 Free energy of the ion-electron system (eV)
  ---------------------------------------------------
  alpha Z        PSCENC =       600.74013862
  Ewald energy   TEWEN  =    -15727.81767961
  -Hartree energ DENC   =    -10669.30830080
  -exchange      EXHF   =         0.00000000
  -V(xc)+E(xc)   XCENC  =       822.23938174
  PAW double counting   =     28240.04116579   -29163.95449410
  entropy T*S    EENTRO =         0.00000000
  eigenvalues    EBANDS =     -2688.89009189
  atomic energy  EATOM  =     28505.01627691
  ---------------------------------------------------
  free energy    TOTEN  =       -81.93360335 eV

  energy without entropy =      -81.93360335  energy(sigma->0) =      -81.93360335


--------------------------------------------------------------------------------------------------------




--------------------------------------- Iteration      1(  12)  ---------------------------------------


    POTLOK:  cpu time    0.0999: real time    0.1005
    SETDIJ:  cpu time    0.5924: real time    0.5944
    TRIAL :  cpu time    4.4301: real time    4.4573
 BZINTS: Fermi energy:  5.179597;172.000000 electrons
         Band energy:***********;  BLOECHL correction:  0.000000
 BZINTS: Fermi energy:  5.179596;172.000000 electrons
         Band energy:***********;  BLOECHL correction:  0.000000
    CORREC:  cpu time    3.9324: real time    3.9518
    CHARGE:  cpu time    1.0636: real time    1.0688
    --------------------------------------------
      LOOP:  cpu time   10.1838: real time   10.2387

 eigenvalue-minimisations  :     0
 total energy-change (2. order) :-0.9518299E-06  (-0.1590368E-06)
 number of electron     171.9999887 magnetization       0.0000000      0.0000000      0.0000000
 augmentation part       70.5487749 magnetization      -0.0000001      0.0000005     -0.0004368

 Free energy of the ion-electron system (eV)
  ---------------------------------------------------
  alpha Z        PSCENC =       600.74013862
  Ewald energy   TEWEN  =    -15727.81767961
  -Hartree energ DENC   =    -10669.30830278
  -exchange      EXHF   =         0.00000000
  -V(xc)+E(xc)   XCENC  =       822.23938050
  PAW double counting   =     28240.04122438   -29163.95455261
  entropy T*S    EENTRO =         0.00000000
  eigenvalues    EBANDS =     -2688.89008971
  atomic energy  EATOM  =     28505.01627691
  ---------------------------------------------------
  free energy    TOTEN  =       -81.93360430 eV

  energy without entropy =      -81.93360430  energy(sigma->0) =      -81.93360430


--------------------------------------------------------------------------------------------------------




--------------------------------------- Iteration      1(  13)  ---------------------------------------


    POTLOK:  cpu time    0.0956: real time    0.0961
    SETDIJ:  cpu time    0.5900: real time    0.5919
    TRIAL :  cpu time    4.3852: real time    4.4123
 BZINTS: Fermi energy:  5.179594;172.000000 electrons
         Band energy:***********;  BLOECHL correction:  0.000000
 BZINTS: Fermi energy:  5.179596;172.000000 electrons
         Band energy:***********;  BLOECHL correction:  0.000000
    CORREC:  cpu time    3.9475: real time    3.9665
    CHARGE:  cpu time    1.0613: real time    1.0667
    --------------------------------------------
      LOOP:  cpu time   10.1432: real time   10.1977

 eigenvalue-minimisations  :     0
 total energy-change (2. order) :-0.7147464E-06  (-0.1327343E-06)
 number of electron     171.9999887 magnetization       0.0000000      0.0000000      0.0000000
 augmentation part       70.5487749 magnetization      -0.0000001      0.0000005     -0.0004368

 Free energy of the ion-electron system (eV)
  ---------------------------------------------------
  alpha Z        PSCENC =       600.74013862
  Ewald energy   TEWEN  =    -15727.81767961
  -Hartree energ DENC   =    -10669.30830442
  -exchange      EXHF   =         0.00000000
  -V(xc)+E(xc)   XCENC  =       822.23937962
  PAW double counting   =     28240.04127157   -29163.95459973
  entropy T*S    EENTRO =         0.00000000
  eigenvalues    EBANDS =     -2688.89008798
  atomic energy  EATOM  =     28505.01627691
  ---------------------------------------------------
  free energy    TOTEN  =       -81.93360502 eV

  energy without entropy =      -81.93360502  energy(sigma->0) =      -81.93360502


--------------------------------------------------------------------------------------------------------




--------------------------------------- Iteration      1(  14)  ---------------------------------------


    POTLOK:  cpu time    0.0954: real time    0.0959
    SETDIJ:  cpu time    0.5927: real time    0.5946
    TRIAL :  cpu time    4.4323: real time    4.4589
 BZINTS: Fermi energy:  5.179596;172.000000 electrons
         Band energy:***********;  BLOECHL correction:  0.000000
 BZINTS: Fermi energy:  5.179596;172.000000 electrons
         Band energy:***********;  BLOECHL correction:  0.000000
    CORREC:  cpu time    3.9299: real time    3.9495
    CHARGE:  cpu time    1.0575: real time    1.0628
    --------------------------------------------
      LOOP:  cpu time   10.1713: real time   10.2256

 eigenvalue-minimisations  :     0
 total energy-change (2. order) :-0.1064611E-05  (-0.9505163E-07)
 number of electron     171.9999887 magnetization       0.0000000      0.0000000      0.0000000
 augmentation part       70.5487749 magnetization      -0.0000001      0.0000005     -0.0004368

 Free energy of the ion-electron system (eV)
  ---------------------------------------------------
  alpha Z        PSCENC =       600.74013862
  Ewald energy   TEWEN  =    -15727.81767961
  -Hartree energ DENC   =    -10669.30830589
  -exchange      EXHF   =         0.00000000
  -V(xc)+E(xc)   XCENC  =       822.23937777
  PAW double counting   =     28240.04131419   -29163.95464228
  entropy T*S    EENTRO =         0.00000000
  eigenvalues    EBANDS =     -2688.89008579
  atomic energy  EATOM  =     28505.01627691
  ---------------------------------------------------
  free energy    TOTEN  =       -81.93360608 eV

  energy without entropy =      -81.93360608  energy(sigma->0) =      -81.93360608


--------------------------------------------------------------------------------------------------------




--------------------------------------- Iteration      1(  15)  ---------------------------------------


    POTLOK:  cpu time    0.0949: real time    0.0955
    SETDIJ:  cpu time    0.5890: real time    0.5908
    TRIAL :  cpu time    4.3655: real time    4.3916
 BZINTS: Fermi energy:  5.179595;172.000000 electrons
         Band energy:***********;  BLOECHL correction:  0.000000
 BZINTS: Fermi energy:  5.179596;172.000000 electrons
         Band energy:***********;  BLOECHL correction:  0.000000
    CORREC:  cpu time    3.9220: real time    3.9407
    CHARGE:  cpu time    1.0622: real time    1.0675
    --------------------------------------------
      LOOP:  cpu time   10.1001: real time   10.1530

 eigenvalue-minimisations  :     0
 total energy-change (2. order) :-0.5881666E-06  (-0.8059112E-07)
 number of electron     171.9999887 magnetization       0.0000000      0.0000000      0.0000000
 augmentation part       70.5487749 magnetization      -0.0000001      0.0000004     -0.0004368

 Free energy of the ion-electron system (eV)
  ---------------------------------------------------
  alpha Z        PSCENC =       600.74013862
  Ewald energy   TEWEN  =    -15727.81767961
  -Hartree energ DENC   =    -10669.30830698
  -exchange      EXHF   =         0.00000000
  -V(xc)+E(xc)   XCENC  =       822.23937692
  PAW double counting   =     28240.04134566   -29163.95467370
  entropy T*S    EENTRO =         0.00000000
  eigenvalues    EBANDS =     -2688.89008447
  atomic energy  EATOM  =     28505.01627691
  ---------------------------------------------------
  free energy    TOTEN  =       -81.93360667 eV

  energy without entropy =      -81.93360667  energy(sigma->0) =      -81.93360667


--------------------------------------------------------------------------------------------------------




--------------------------------------- Iteration      1(  16)  ---------------------------------------


    POTLOK:  cpu time    0.0952: real time    0.0957
    SETDIJ:  cpu time    0.5897: real time    0.5916
    TRIAL :  cpu time    4.4381: real time    4.4646
 BZINTS: Fermi energy:  5.179596;172.000000 electrons
         Band energy:***********;  BLOECHL correction:  0.000000
 BZINTS: Fermi energy:  5.179596;172.000000 electrons
         Band energy:***********;  BLOECHL correction:  0.000000
    CORREC:  cpu time    3.9185: real time    3.9377
    CHARGE:  cpu time    1.0785: real time    1.0841
    --------------------------------------------
      LOOP:  cpu time   10.1827: real time   10.2374

 eigenvalue-minimisations  :     0
 total energy-change (2. order) :-0.1118420E-05  (-0.5739119E-07)
 number of electron     171.9999887 magnetization       0.0000000      0.0000000      0.0000000
 augmentation part       70.5487749 magnetization      -0.0000001      0.0000005     -0.0004368

 Free energy of the ion-electron system (eV)
  ---------------------------------------------------
  alpha Z        PSCENC =       600.74013862
  Ewald energy   TEWEN  =    -15727.81767961
  -Hartree energ DENC   =    -10669.30830788
  -exchange      EXHF   =         0.00000000
  -V(xc)+E(xc)   XCENC  =       822.23937470
  PAW double counting   =     28240.04137228   -29163.95470027
  entropy T*S    EENTRO =         0.00000000
  eigenvalues    EBANDS =     -2688.89008253
  atomic energy  EATOM  =     28505.01627691
  ---------------------------------------------------
  free energy    TOTEN  =       -81.93360779 eV

  energy without entropy =      -81.93360779  energy(sigma->0) =      -81.93360779


--------------------------------------------------------------------------------------------------------




--------------------------------------- Iteration      1(  17)  ---------------------------------------


    POTLOK:  cpu time    0.0954: real time    0.0960
    SETDIJ:  cpu time    0.5900: real time    0.5919
    TRIAL :  cpu time    4.3666: real time    4.3937
 BZINTS: Fermi energy:  5.179595;172.000000 electrons
         Band energy:***********;  BLOECHL correction:  0.000000
 BZINTS: Fermi energy:  5.179595;172.000000 electrons
         Band energy:***********;  BLOECHL correction:  0.000000
    CORREC:  cpu time    3.9137: real time    3.9329
    CHARGE:  cpu time    1.0658: real time    1.0711
    --------------------------------------------
      LOOP:  cpu time   10.0938: real time   10.1503

 eigenvalue-minimisations  :     0
 total energy-change (2. order) : 0.2650631E-07  (-0.6223760E-07)
 number of electron     171.9999887 magnetization       0.0000000      0.0000000      0.0000000
 augmentation part       70.5487749 magnetization      -0.0000001      0.0000004     -0.0004368

 Free energy of the ion-electron system (eV)
  ---------------------------------------------------
  alpha Z        PSCENC =       600.74013862
  Ewald energy   TEWEN  =    -15727.81767961
  -Hartree energ DENC   =    -10669.30830855
  -exchange      EXHF   =         0.00000000
  -V(xc)+E(xc)   XCENC  =       822.23937507
  PAW double counting   =     28240.04139215   -29163.95472010
  entropy T*S    EENTRO =         0.00000000
  eigenvalues    EBANDS =     -2688.89008225
  atomic energy  EATOM  =     28505.01627691
  ---------------------------------------------------
  free energy    TOTEN  =       -81.93360776 eV

  energy without entropy =      -81.93360776  energy(sigma->0) =      -81.93360776


--------------------------------------------------------------------------------------------------------




--------------------------------------- Iteration      1(  18)  ---------------------------------------


    POTLOK:  cpu time    0.0955: real time    0.0960
    SETDIJ:  cpu time    0.5891: real time    0.6097
    TRIAL :  cpu time    4.3722: real time    4.3986
 BZINTS: Fermi energy:  5.179596;172.000000 electrons
         Band energy:***********;  BLOECHL correction:  0.000000
 BZINTS: Fermi energy:  5.179595;172.000000 electrons
         Band energy:***********;  BLOECHL correction:  0.000000
    CORREC:  cpu time    3.9597: real time    3.9786
    CHARGE:  cpu time    1.0606: real time    1.0657
    --------------------------------------------
      LOOP:  cpu time   10.1394: real time   10.2126

 eigenvalue-minimisations  :     0
 total energy-change (2. order) :-0.2326742E-06  (-0.5394067E-07)
 number of electron     171.9999887 magnetization       0.0000000      0.0000000      0.0000000
 augmentation part       70.5487749 magnetization      -0.0000001      0.0000004     -0.0004368

 Free energy of the ion-electron system (eV)
  ---------------------------------------------------
  alpha Z        PSCENC =       600.74013862
  Ewald energy   TEWEN  =    -15727.81767961
  -Hartree energ DENC   =    -10669.30830928
  -exchange      EXHF   =         0.00000000
  -V(xc)+E(xc)   XCENC  =       822.23937481
  PAW double counting   =     28240.04141490   -29163.95474281
  entropy T*S    EENTRO =         0.00000000
  eigenvalues    EBANDS =     -2688.89008153
  atomic energy  EATOM  =     28505.01627691
  ---------------------------------------------------
  free energy    TOTEN  =       -81.93360799 eV

  energy without entropy =      -81.93360799  energy(sigma->0) =      -81.93360799


--------------------------------------------------------------------------------------------------------




--------------------------------------- Iteration      1(  19)  ---------------------------------------


    POTLOK:  cpu time    0.0951: real time    0.0956
    SETDIJ:  cpu time    0.5889: real time    0.5909
    TRIAL :  cpu time    4.3701: real time    4.3966
 BZINTS: Fermi energy:  5.179595;172.000000 electrons
         Band energy:***********;  BLOECHL correction:  0.000000
 BZINTS: Fermi energy:  5.179595;172.000000 electrons
         Band energy:***********;  BLOECHL correction:  0.000000
    CORREC:  cpu time    3.9199: real time    3.9386
    CHARGE:  cpu time    1.0621: real time    1.0672
    --------------------------------------------
      LOOP:  cpu time   10.1000: real time   10.1531

 eigenvalue-minimisations  :     0
 total energy-change (2. order) :-0.1044100E-08  (-0.5296222E-07)
 number of electron     171.9999887 magnetization       0.0000000      0.0000000      0.0000000
 augmentation part       70.5487749 magnetization      -0.0000001      0.0000004     -0.0004368

 Free energy of the ion-electron system (eV)
  ---------------------------------------------------
  alpha Z        PSCENC =       600.74013862
  Ewald energy   TEWEN  =    -15727.81767961
  -Hartree energ DENC   =    -10669.30831000
  -exchange      EXHF   =         0.00000000
  -V(xc)+E(xc)   XCENC  =       822.23937507
  PAW double counting   =     28240.04143540   -29163.95476327
  entropy T*S    EENTRO =         0.00000000
  eigenvalues    EBANDS =     -2688.89008110
  atomic energy  EATOM  =     28505.01627691
  ---------------------------------------------------
  free energy    TOTEN  =       -81.93360799 eV

  energy without entropy =      -81.93360799  energy(sigma->0) =      -81.93360799


--------------------------------------------------------------------------------------------------------




--------------------------------------- Iteration      1(  20)  ---------------------------------------


    POTLOK:  cpu time    0.0951: real time    0.0957
    SETDIJ:  cpu time    0.5922: real time    0.5943
    TRIAL :  cpu time    4.3909: real time    4.4219
 BZINTS: Fermi energy:  5.179596;172.000000 electrons
         Band energy:***********;  BLOECHL correction:  0.000000
 BZINTS: Fermi energy:  5.179595;172.000000 electrons
         Band energy:***********;  BLOECHL correction:  0.000000
    CORREC:  cpu time    3.9312: real time    3.9534
    CHARGE:  cpu time    1.0623: real time    1.0685
    --------------------------------------------
      LOOP:  cpu time   10.1347: real time   10.1972

 eigenvalue-minimisations  :     0
 total energy-change (2. order) :-0.1633307E-06  (-0.4337129E-07)
 number of electron     171.9999887 magnetization       0.0000000      0.0000000      0.0000000
 augmentation part       70.5487749 magnetization      -0.0000001      0.0000004     -0.0004368

 Free energy of the ion-electron system (eV)
  ---------------------------------------------------
[...]
  0.000  -0.000   0.000  -0.000   0.000   0.000   0.000   0.000   0.000  -0.000   0.000   0.000   0.000   0.000   0.000  -0.000
 pseudopotential strength for first ion, spin component:           3
  0.000   0.000   0.000   0.000  -0.000   0.000   0.000   0.000   0.000   0.000  -0.000   0.000   0.000   0.000   0.000   0.000
  0.000   0.000   0.000   0.000  -0.000   0.000   0.000   0.000   0.000   0.000  -0.000   0.000   0.000   0.000   0.000   0.000
 -0.000   0.000  -0.000   0.000   0.000   0.000   0.000  -0.000   0.000  -0.000   0.000   0.000   0.000  -0.000   0.000  -0.000
  0.000   0.000   0.000   0.000   0.000  -0.000   0.000   0.000   0.000  -0.000   0.000  -0.000   0.000   0.000   0.000  -0.000
  0.000   0.000   0.000   0.000   0.000  -0.000   0.000  -0.000   0.000   0.000   0.000  -0.000   0.000  -0.000   0.000   0.000
 -0.000   0.000  -0.000   0.000   0.000   0.000   0.000  -0.000   0.000  -0.000   0.000   0.000   0.000  -0.000   0.000  -0.000
  0.000   0.000   0.000   0.000   0.000  -0.000   0.000   0.000   0.000  -0.000   0.000  -0.000   0.000   0.000   0.000  -0.000
  0.000   0.000   0.000   0.000   0.000  -0.000   0.000  -0.000   0.000   0.000   0.000  -0.000   0.000  -0.000   0.000   0.000
 pseudopotential strength for first ion, spin component:           4
 39.463   0.000  45.321   0.000  -0.002   0.000  -0.001   0.000  -0.002   0.000  -0.002   0.000  -0.001   0.000  -0.003   0.000
 45.321   0.000  52.051   0.000  -0.002   0.000  -0.001   0.000  -0.003   0.000  -0.002   0.000  -0.001   0.000  -0.004   0.000
 -0.002   0.000  -0.002   0.000   8.198   0.000   0.002   0.000  -0.000   0.000  11.112   0.000   0.002   0.000  -0.000   0.000
 -0.001   0.000  -0.001   0.000   0.002   0.000   8.197   0.000  -0.001   0.000   0.002   0.000  11.111   0.000  -0.001   0.000
 -0.002   0.000  -0.003   0.000  -0.000   0.000  -0.001   0.000   8.197   0.000  -0.000   0.000  -0.001   0.000  11.111   0.000
 -0.002   0.000  -0.002   0.000  11.112   0.000   0.002   0.000  -0.000   0.000  15.082   0.000   0.003   0.000  -0.000   0.000
 -0.001   0.000  -0.001   0.000   0.002   0.000  11.111   0.000  -0.001   0.000   0.003   0.000  15.079   0.000  -0.001   0.000
 -0.003   0.000  -0.004   0.000  -0.000   0.000  -0.001   0.000  11.111   0.000  -0.000   0.000  -0.001   0.000  15.079   0.000
 total augmentation occupancy for first ion, spin component:           1
 11.200  -6.995   0.000  -0.000  -0.503  -0.000  -0.000   0.125
 -6.995   5.074  -0.000   0.000   0.411   0.000   0.000  -0.073
  0.000  -0.000   3.798   0.084   0.000  -1.112  -0.044  -0.000
 -0.000   0.000   0.084   3.604   0.000  -0.044  -1.013  -0.000
 -0.503   0.411   0.000   0.000   3.632  -0.000  -0.000  -1.026
 -0.000   0.000  -1.112  -0.044  -0.000   0.380   0.016   0.000
 -0.000   0.000  -0.044  -1.013  -0.000   0.016   0.342   0.000
  0.125  -0.073  -0.000  -0.000  -1.026   0.000   0.000   0.348
 total augmentation occupancy for first ion, spin component:           2
  0.000  -0.000   0.000   0.000  -0.000   0.000   0.000   0.000
 -0.000   0.000   0.000   0.000   0.000  -0.000   0.000  -0.000
  0.000  -0.000   0.000   0.000  -0.000  -0.000  -0.000   0.000
 -0.000   0.000   0.000   0.000   0.000  -0.000  -0.000   0.000
 -0.000   0.000  -0.000  -0.000   0.000   0.000   0.000  -0.000
  0.000  -0.000  -0.000  -0.000   0.000   0.000   0.000   0.000
  0.000   0.000  -0.000  -0.000   0.000   0.000   0.000   0.000
  0.000  -0.000   0.000   0.000  -0.000   0.000   0.000   0.000
 total augmentation occupancy for first ion, spin component:           3
  0.000   0.000  -0.000  -0.000   0.000   0.000   0.000   0.000
  0.000   0.000   0.000   0.000   0.000  -0.000  -0.000   0.000
 -0.000   0.000   0.000  -0.000  -0.000   0.000   0.000   0.000
 -0.000   0.000  -0.000   0.000   0.000  -0.000   0.000  -0.000
  0.000   0.000  -0.000   0.000   0.000   0.000  -0.000   0.000
  0.000  -0.000  -0.000  -0.000   0.000   0.000   0.000  -0.000
  0.000  -0.000   0.000   0.000  -0.000   0.000   0.000   0.000
  0.000  -0.000   0.000  -0.000   0.000  -0.000   0.000   0.000
 total augmentation occupancy for first ion, spin component:           4
 -0.000   0.000   0.099   0.094  -0.000   0.087   0.084  -0.000
 -0.000  -0.000  -0.077  -0.073   0.000  -0.094  -0.091   0.000
  0.099  -0.077  -0.000   0.000   0.008   0.000  -0.000  -0.008
  0.094  -0.073   0.000  -0.000   0.008  -0.000   0.000  -0.003
 -0.000   0.000   0.008   0.008   0.000  -0.007  -0.003  -0.000
  0.087  -0.094   0.000  -0.000  -0.007   0.000   0.000   0.017
  0.084  -0.091  -0.000   0.000  -0.003   0.000  -0.000   0.014
  0.000   0.000  -0.008  -0.003  -0.000   0.017   0.014   0.000


------------------------ aborting loop because EDIFF is reached ----------------------------------------


 


 total charge     
 
# of ion       s       p       d       tot
------------------------------------------
    1        1.314   2.418   0.000   3.732
    2        1.314   2.417   0.000   3.731
    3        1.314   2.415   0.000   3.729
    4        1.314   2.415   0.000   3.729
    5        1.314   2.417   0.000   3.731
    6        1.314   2.418   0.000   3.732
    7        1.314   2.415   0.000   3.729
    8        1.314   2.415   0.000   3.729
    9        0.264   6.209   8.915  15.388
   10        0.264   6.209   8.916  15.389
   11        0.264   6.209   8.915  15.388
   12        0.264   6.209   8.916  15.389
   13        0.353   6.360   5.836  12.549
   14        0.353   6.360   5.836  12.549
   15        0.353   6.360   5.836  12.549
   16        0.353   6.360   5.836  12.549
--------------------------------------------------
tot         12.980  69.606  59.004 141.590
 


 magnetization (x)
 
# of ion       s       p       d       tot
------------------------------------------
    1       -0.000   0.000   0.000   0.000
    2        0.000  -0.000   0.000  -0.000
    3        0.000  -0.000   0.000  -0.000
    4        0.000  -0.000   0.000  -0.000
    5        0.000  -0.000   0.000  -0.000
    6       -0.000   0.000   0.000   0.000
    7        0.000  -0.000   0.000  -0.000
    8        0.000  -0.000   0.000  -0.000
    9        0.000  -0.000   0.000   0.000
   10        0.000   0.000  -0.000  -0.000
   11        0.000  -0.000   0.000   0.000
   12        0.000   0.000  -0.000  -0.000
   13       -0.000   0.000  -0.000  -0.000
   14        0.000  -0.000  -0.000  -0.000
   15       -0.000   0.000  -0.000  -0.000
   16        0.000  -0.000  -0.000  -0.000
--------------------------------------------------
tot          0.000  -0.000  -0.000   0.000
 


 magnetization (y)
 
# of ion       s       p       d       tot
------------------------------------------
    1       -0.000  -0.000   0.000  -0.000
    2       -0.000  -0.000   0.000  -0.000
    3        0.000  -0.000   0.000  -0.000
    4       -0.000  -0.000   0.000  -0.000
    5       -0.000  -0.000   0.000  -0.000
    6       -0.000  -0.000   0.000  -0.000
    7        0.000  -0.000   0.000  -0.000
    8       -0.000  -0.000   0.000  -0.000
    9       -0.000  -0.000  -0.000  -0.000
   10       -0.000  -0.000  -0.000  -0.000
   11       -0.000  -0.000  -0.000  -0.000
   12       -0.000  -0.000  -0.000  -0.000
   13        0.000  -0.000  -0.000  -0.000
   14       -0.000  -0.000  -0.000  -0.000
   15        0.000  -0.000  -0.000  -0.000
   16       -0.000  -0.000  -0.000  -0.000
--------------------------------------------------
tot         -0.000  -0.000  -0.000  -0.000
 


 magnetization (z)
 
# of ion       s       p       d       tot
------------------------------------------
    1        0.000  -0.003   0.000  -0.003
    2        0.000  -0.003   0.000  -0.003
    3       -0.000   0.003   0.000   0.003
    4       -0.000   0.003   0.000   0.003
    5        0.000  -0.003   0.000  -0.003
    6        0.000  -0.003   0.000  -0.003
    7       -0.000   0.003   0.000   0.003
    8       -0.000   0.003   0.000   0.003
    9        0.000   0.001  -0.005  -0.004
   10       -0.000  -0.001   0.005   0.003
   11        0.000   0.001  -0.005  -0.004
   12       -0.000  -0.001   0.005   0.003
   13        0.019   0.055   3.645   3.720
   14       -0.019  -0.055  -3.645  -3.719
   15        0.019   0.055   3.645   3.720
   16       -0.019  -0.055  -3.645  -3.719
--------------------------------------------------
tot         -0.000   0.000  -0.001  -0.000
 
    FORLOC:  cpu time    0.0071: real time    0.0071
    FORNL :  cpu time    1.1291: real time    1.1341
    STRESS:  cpu time    1.0736: real time    1.0785
    FORCOR:  cpu time    0.0845: real time    0.0849
    OFIELD:  cpu time    0.0005: real time    0.0005

  FORCE on cell =-STRESS in cart. coord.  units (eV):
  Direction    XX          YY          ZZ          XY          YZ          ZX
  --------------------------------------------------------------------------------------
  Alpha Z   600.74014   600.74014   600.74014
  Ewald   -5339.40689 -5016.45188 -5372.00050     0.00000     0.00000     0.00000
  Hartree  3509.28525  3658.67057  3501.35249    -0.00000     0.00000     0.00000
  E(xc)   -1051.31690 -1051.13223 -1051.31227    -0.00000    -0.00000    -0.00000
  Local   -1065.94896 -1536.95307 -1022.10694     0.00000    -0.00000    -0.00000
  n-local   122.10299   126.52516   122.10448    -0.21288    -0.08187    -0.01716
  augment  1180.52411  1183.12230  1178.18399    -0.00000    -0.00000    -0.00000
  Kinetic  2048.38090  2035.47954  2047.02205    -0.84080     0.05436    -0.00522
  Fock        0.00000     0.00000     0.00000     0.00000     0.00000     0.00000
  -------------------------------------------------------------------------------------
  Total       4.36064     0.00053     3.98344     0.00000     0.00000     0.00000
  in kB      24.76929     0.00302    22.62674     0.00000     0.00000     0.00000
  external pressure =       15.80 kB  Pullay stress =        0.00 kB


 VOLUME and BASIS-vectors are now :
 -----------------------------------------------------------------------------
  energy-cutoff  :      700.00
  volume of cell :      282.06
      direct lattice vectors                 reciprocal lattice vectors
     5.101022086  0.000000000  0.000000000     0.196039143  0.000000000  0.000000000
     0.000000000  5.476925221  0.000000000     0.000000000  0.182584198  0.000000000
     0.000000000  0.000000000 10.096084702     0.000000000  0.000000000  0.099048297

  length of vectors
     5.101022086  5.476925221 10.096084702     0.196039143  0.182584198  0.099048297


 FORCES acting on ions:
    Electron-Ion                     Ewald-Force                    Non-Local-Force
 -----------------------------------------------------------------------------------------------
   0.416E+02 0.239E-12 0.174E-12   -.424E+02 0.824E-12 -.853E-13   0.834E+00 0.434E-18 0.867E-18
   -.416E+02 0.796E-12 0.707E-12   0.424E+02 -.141E-11 -.568E-13   -.834E+00 0.000E+00 -.867E-18
   0.512E-12 -.453E+02 0.546E-12   -.118E-10 0.462E+02 -.790E-11   0.108E-17 -.955E+00 0.173E-17
   0.124E-11 0.453E+02 -.819E-12   0.118E-10 -.462E+02 -.801E-11   0.867E-18 0.955E+00 -.173E-17
   -.416E+02 0.193E-12 0.295E-13   0.424E+02 0.854E-12 0.426E-13   -.834E+00 0.000E+00 -.260E-17
   0.416E+02 -.210E-12 0.200E-12   -.424E+02 -.134E-11 0.568E-13   0.834E+00 0.434E-18 0.173E-17
   0.109E-11 -.453E+02 0.102E-11   0.117E-10 0.462E+02 0.813E-11   0.108E-17 -.955E+00 0.173E-17
   0.384E-12 0.453E+02 0.380E-12   -.118E-10 -.462E+02 0.784E-11   0.867E-18 0.955E+00 -.173E-17
   -.872E-13 -.161E-12 -.283E+01   0.124E-04 -.254E-04 0.286E+01   -.217E-18 0.000E+00 -.266E-01
   0.115E-11 0.280E-12 0.283E+01   -.124E-04 -.254E-04 -.286E+01   0.217E-18 0.000E+00 0.266E-01
   0.133E-11 0.148E-10 -.283E+01   -.124E-04 0.254E-04 0.286E+01   -.217E-18 0.000E+00 -.266E-01
   -.324E-12 0.125E-11 0.283E+01   0.124E-04 0.254E-04 -.286E+01   0.217E-18 0.000E+00 0.266E-01
   0.280E-13 -.363E-12 0.809E+01   -.961E-05 0.213E-04 -.809E+01   0.000E+00 0.000E+00 -.271E-02
   0.851E-12 0.363E-12 -.809E+01   0.961E-05 0.213E-04 0.809E+01   0.000E+00 0.000E+00 0.271E-02
   0.674E-12 -.136E-11 0.809E+01   0.961E-05 -.213E-04 -.809E+01   0.000E+00 0.000E+00 -.271E-02
   0.213E-12 0.120E-11 -.809E+01   -.961E-05 -.213E-04 0.809E+01   0.000E+00 0.000E+00 0.271E-02
 -----------------------------------------------------------------------------------------------
   0.135E-10 0.221E-10 0.323E-10   -.830E-13 -.641E-13 -.426E-13   0.195E-17 0.111E-15 0.382E-16
 
 
 POSITION                                       TOTAL-FORCE (eV/Angst)
 -----------------------------------------------------------------------------------
      1.28564      1.36923      1.26201        -0.000000     -0.000000      0.000000
      3.81538      4.10769      1.26201         0.000000     -0.000000     -0.000000
      1.27526      4.09226      8.83407         0.000000     -0.000002      0.000000
      3.82577      1.38467      8.83407         0.000000      0.000002      0.000000
      1.26487      1.36923      6.31005         0.000000     -0.000000      0.000000
      3.83615      4.10769      6.31005        -0.000000     -0.000000     -0.000000
      3.82577      1.35380      3.78603         0.000000     -0.000002      0.000000
      1.27526      4.12313      3.78603         0.000000      0.000002      0.000000
      0.00000      0.00000      5.05528         0.000000     -0.000000     -0.000006
      2.55051      0.00000      2.51678         0.000000     -0.000000      0.000006
      2.55051      2.73846      0.00724         0.000000     -0.000000     -0.000006
      0.00000      2.73846      7.56483         0.000000     -0.000000      0.000006
      0.00000      0.00000     10.09530         0.000000     -0.000000      0.000006
      2.55051      0.00000      7.57285         0.000000     -0.000000     -0.000006
      2.55051      2.73846      5.04726         0.000000     -0.000000      0.000006
      0.00000      2.73846      2.52480         0.000000     -0.000000     -0.000006
 -----------------------------------------------------------------------------------
    total drift:                                0.000000      0.000000      0.000000


--------------------------------------------------------------------------------------------------------



  FREE ENERGIE OF THE ION-ELECTRON SYSTEM (eV)
  ---------------------------------------------------
  free  energy   TOTEN  =       -81.93360915 eV

  energy  without entropy=      -81.93360915  energy(sigma->0) =      -81.93360915
 


--------------------------------------------------------------------------------------------------------


    POTLOK:  cpu time    0.6887: real time    0.6912


--------------------------------------------------------------------------------------------------------


 writing wavefunctions
     LOOP+:  cpu time  399.2477: real time  404.6796
    4ORBIT:  cpu time    0.0000: real time    0.0000
 


 total charge     
 
# of ion       s       p       d       tot
------------------------------------------
    1        1.314   2.418   0.000   3.732
    2        1.314   2.417   0.000   3.731
    3        1.314   2.415   0.000   3.729
    4        1.314   2.415   0.000   3.729
    5        1.314   2.417   0.000   3.731
    6        1.314   2.418   0.000   3.732
    7        1.314   2.415   0.000   3.729
    8        1.314   2.415   0.000   3.729
    9        0.264   6.209   8.915  15.388
   10        0.264   6.209   8.916  15.389
   11        0.264   6.209   8.915  15.388
   12        0.264   6.209   8.916  15.389
   13        0.353   6.360   5.836  12.549
   14        0.353   6.360   5.836  12.549
   15        0.353   6.360   5.836  12.549
   16        0.353   6.360   5.836  12.549
--------------------------------------------------
tot         12.980  69.606  59.004 141.590
 


 magnetization (x)
 
# of ion       s       p       d       tot
------------------------------------------
    1       -0.000   0.000   0.000   0.000
    2        0.000  -0.000   0.000  -0.000
    3        0.000  -0.000   0.000  -0.000
    4        0.000  -0.000   0.000  -0.000
    5        0.000  -0.000   0.000  -0.000
    6       -0.000   0.000   0.000   0.000
    7        0.000  -0.000   0.000  -0.000
    8        0.000  -0.000   0.000  -0.000
    9        0.000  -0.000   0.000   0.000
   10        0.000   0.000  -0.000  -0.000
   11        0.000  -0.000   0.000   0.000
   12        0.000   0.000  -0.000  -0.000
   13       -0.000   0.000  -0.000  -0.000
   14        0.000  -0.000  -0.000  -0.000
   15       -0.000   0.000  -0.000  -0.000
   16        0.000  -0.000  -0.000  -0.000
--------------------------------------------------
tot          0.000  -0.000  -0.000   0.000
 


 magnetization (y)
 
# of ion       s       p       d       tot
------------------------------------------
    1       -0.000  -0.000   0.000  -0.000
    2       -0.000  -0.000   0.000  -0.000
    3        0.000  -0.000   0.000  -0.000
    4       -0.000  -0.000   0.000  -0.000
    5       -0.000  -0.000   0.000  -0.000
    6       -0.000  -0.000   0.000  -0.000
    7        0.000  -0.000   0.000  -0.000
    8       -0.000  -0.000   0.000  -0.000
    9       -0.000  -0.000  -0.000  -0.000
   10       -0.000  -0.000  -0.000  -0.000
   11       -0.000  -0.000  -0.000  -0.000
   12       -0.000  -0.000  -0.000  -0.000
   13        0.000  -0.000  -0.000  -0.000
   14       -0.000  -0.000  -0.000  -0.000
   15        0.000  -0.000  -0.000  -0.000
   16       -0.000  -0.000  -0.000  -0.000
--------------------------------------------------
tot         -0.000  -0.000  -0.000  -0.000
 


 magnetization (z)
 
# of ion       s       p       d       tot
------------------------------------------
    1        0.000  -0.003   0.000  -0.003
    2        0.000  -0.003   0.000  -0.003
    3       -0.000   0.003   0.000   0.003
    4       -0.000   0.003   0.000   0.003
    5        0.000  -0.003   0.000  -0.003
    6        0.000  -0.003   0.000  -0.003
    7       -0.000   0.003   0.000   0.003
    8       -0.000   0.003   0.000   0.003
    9        0.000   0.001  -0.005  -0.004
   10       -0.000  -0.001   0.005   0.003
   11        0.000   0.001  -0.005  -0.004
   12       -0.000  -0.001   0.005   0.003
   13        0.019   0.055   3.645   3.720
   14       -0.019  -0.055  -3.645  -3.719
   15        0.019   0.055   3.645   3.720
   16       -0.019  -0.055  -3.645  -3.719
--------------------------------------------------
tot         -0.000   0.000  -0.001  -0.000
 
 BZINTS: Fermi energy:  5.179595;172.000000 electrons
         Band energy:***********;  BLOECHL correction:  0.000000
 BZINTS: Fermi energy:  5.179595;172.000000 electrons
         Band energy:***********;  BLOECHL correction:  0.000000
 BZINTS: Fermi energy:  5.179595;172.000000 electrons
         Band energy:***********;  BLOECHL correction:  0.000000
 BZINTS: Fermi energy:  5.179595;172.000000 electrons
         Band energy:***********;  BLOECHL correction:  0.000000

 total amount of memory used by VASP MPI-rank0    78837. kBytes
=======================================================================

   base      :      30000. kBytes
   nonl-proj :       5943. kBytes
   fftplans  :       1363. kBytes
   grid      :       5529. kBytes
   one-center:         62. kBytes
   wavefun   :      35940. kBytes
 
  
  
 General timing and accounting informations for this job:
 ========================================================
  
                  Total CPU time used (sec):      429.976
                            User time (sec):      418.100
                          System time (sec):       11.876
                         Elapsed time (sec):      436.752
  
                   Maximum memory used (kb):      513560.
                   Average memory used (kb):           0.
  
                          Minor page faults:       325201
                          Major page faults:         2912
                 Voluntary context switches:         6812
