       N       E                     dE             d eps       ncg     rms          rms(c)
DAV:   1     0.605164400843E+04    0.60516E+04   -0.51600E+05 16384   0.197E+03
DAV:   2    -0.735703833129E+02   -0.61252E+04   -0.60151E+04 17664   0.446E+02
DAV:   3    -0.323317704543E+03   -0.24975E+03   -0.24880E+03 22528   0.978E+01
DAV:   4    -0.326770019692E+03   -0.34523E+01   -0.34521E+01 18944   0.117E+01
DAV:   5    -0.326871155063E+03   -0.10114E+00   -0.10113E+00 22016   0.195E+00    0.974E+00
DAV:   6    -0.325828054423E+03    0.10431E+01   -0.18874E+00 25088   0.492E+00    0.565E+00
DAV:   7    -0.325616915716E+03    0.21114E+00   -0.20490E+00 21248   0.437E+00    0.445E+00
DAV:   8    -0.325512253921E+03    0.10466E+00   -0.23112E+00 23808   0.432E+00    0.439E+00
DAV:   9    -0.325455857468E+03    0.56396E-01   -0.45759E-01 20736   0.187E+00    0.107E+00
DAV:  10    -0.325456155297E+03   -0.29783E-03   -0.40985E-02 23040   0.378E-01    0.611E-01
DAV:  11    -0.325457960241E+03   -0.18049E-02   -0.10282E-02 18688   0.215E-01    0.300E-01
DAV:  12    -0.325459144943E+03   -0.11847E-02   -0.35205E-03 23552   0.846E-02    0.123E-01
DAV:  13    -0.325459433268E+03   -0.28832E-03   -0.70272E-04 18176   0.393E-02    0.866E-02
DAV:  14    -0.325459619388E+03   -0.18612E-03   -0.53856E-04 22784   0.329E-02    0.478E-02
DAV:  15    -0.325459735409E+03   -0.11602E-03   -0.40869E-04 21504   0.215E-02    0.279E-02
DAV:  16    -0.325459777152E+03   -0.41743E-04   -0.16639E-04 21504   0.151E-02    0.189E-02
DAV:  17    -0.325459796959E+03   -0.19807E-04   -0.12755E-04 21760   0.113E-02    0.107E-02
DAV:  18    -0.325459801162E+03   -0.42033E-05   -0.46207E-05 25856   0.745E-03    0.465E-03
DAV:  19    -0.325459801510E+03   -0.34750E-06   -0.26466E-06 19712   0.198E-03    0.289E-03
DAV:  20    -0.325459801621E+03   -0.11118E-06   -0.50599E-07 23296   0.943E-04    0.140E-03
DAV:  21    -0.325459801699E+03   -0.78042E-07   -0.31502E-07 20992   0.677E-04    0.783E-04
DAV:  22    -0.325459801746E+03   -0.46522E-07   -0.11908E-07 27648   0.406E-04    0.527E-04
DAV:  23    -0.325459801765E+03   -0.19121E-07   -0.39595E-08 13312   0.208E-04    0.262E-04
DAV:  24    -0.325459801772E+03   -0.69413E-08   -0.17658E-08 14080   0.137E-04
   1 F= -.32545980E+03 E0= -.32545980E+03  d E =0.000000E+00  mag=     0.0000
