       N       E                     dE             d eps       ncg     rms          rms(c)
DAV:   1     0.596567042556E+04    0.59657E+04   -0.52052E+05 12288   0.197E+03
DAV:   2    -0.174913004517E+03   -0.61406E+04   -0.60372E+04 14080   0.448E+02
DAV:   3    -0.417120967049E+03   -0.24221E+03   -0.24160E+03 16128   0.966E+01
DAV:   4    -0.420556197067E+03   -0.34352E+01   -0.34351E+01 15616   0.116E+01
DAV:   5    -0.420667004034E+03   -0.11081E+00   -0.11081E+00 15360   0.204E+00    0.774E+01
DAV:   6    -0.352165404556E+03    0.68502E+02   -0.13198E+02 15616   0.312E+01    0.476E+01
DAV:   7    -0.336519927413E+03    0.15645E+02   -0.10640E+02 15872   0.393E+01    0.477E+01
DAV:   8    -0.330276335145E+03    0.62436E+01   -0.11487E+02 17152   0.254E+01    0.199E+01
DAV:   9    -0.328014877192E+03    0.22615E+01   -0.28876E+01 15616   0.189E+01    0.113E+01
DAV:  10    -0.327866044604E+03    0.14883E+00   -0.67612E+00 16384   0.565E+00    0.515E+00
DAV:  11    -0.327977894565E+03   -0.11185E+00   -0.96697E-01 16896   0.220E+00    0.252E+00
DAV:  12    -0.328056705531E+03   -0.78811E-01   -0.26371E-01 16896   0.930E-01    0.130E+00
DAV:  13    -0.328078296176E+03   -0.21591E-01   -0.10019E-01 16384   0.691E-01    0.622E-01
DAV:  14    -0.328089432634E+03   -0.11136E-01   -0.25819E-02 13824   0.201E-01    0.367E-01
DAV:  15    -0.328095095144E+03   -0.56625E-02   -0.18569E-02 17408   0.168E-01    0.186E-01
DAV:  16    -0.328096992416E+03   -0.18973E-02   -0.64033E-03 12800   0.985E-02    0.127E-01
DAV:  17    -0.328097830671E+03   -0.83826E-03   -0.34239E-03 16896   0.552E-02    0.913E-02
DAV:  18    -0.328098042613E+03   -0.21194E-03   -0.16077E-03 15872   0.504E-02    0.321E-02
DAV:  19    -0.328098063161E+03   -0.20548E-04   -0.12968E-04 15360   0.155E-02    0.249E-02
DAV:  20    -0.328098069634E+03   -0.64728E-05   -0.34367E-05 15360   0.623E-03    0.135E-02
DAV:  21    -0.328098072139E+03   -0.25053E-05   -0.15690E-05 16640   0.451E-03    0.539E-03
DAV:  22    -0.328098072229E+03   -0.89247E-07   -0.13409E-06 13312   0.208E-03    0.377E-03
DAV:  23    -0.328098072261E+03   -0.32058E-07   -0.22198E-07 17408   0.624E-04    0.230E-03
DAV:  24    -0.328098072337E+03   -0.76208E-07   -0.10531E-07 14080   0.374E-04    0.643E-04
DAV:  25    -0.328098072348E+03   -0.11423E-07   -0.91288E-08 13312   0.345E-04    0.568E-04
DAV:  26    -0.328098072351E+03   -0.30122E-08   -0.10637E-08  8704   0.161E-04
   1 F= -.32809807E+03 E0= -.32809807E+03  d E =0.000000E+00  mag=     0.0000
