       N       E                     dE             d eps       ncg     rms          rms(c)
DAV:   1     0.619129124338E+04    0.61913E+04   -0.50344E+05 12288   0.195E+03
DAV:   2    -0.825092297431E+02   -0.62738E+04   -0.61423E+04 12544   0.440E+02
DAV:   3    -0.370714640439E+03   -0.28821E+03   -0.28678E+03 18176   0.103E+02
DAV:   4    -0.374668850482E+03   -0.39542E+01   -0.39540E+01 12800   0.123E+01
DAV:   5    -0.374771498312E+03   -0.10265E+00   -0.10265E+00 17920   0.201E+00    0.752E+01
DAV:   6    -0.333505621678E+03    0.41266E+02   -0.59704E+02 12288   0.820E+01    0.101E+02
DAV:   7    -0.327595439326E+03    0.59102E+01   -0.12655E+02 12288   0.281E+01    0.438E+01
DAV:   8    -0.328218105498E+03   -0.62267E+00   -0.44294E+01 14336   0.226E+01    0.348E+01
DAV:   9    -0.329533301928E+03   -0.13152E+01   -0.12103E+02 15104   0.258E+01    0.240E+01
DAV:  10    -0.325833475018E+03    0.36998E+01   -0.20515E+01 16128   0.154E+01    0.285E+00
DAV:  11    -0.325935732817E+03   -0.10226E+00   -0.15241E+00 18944   0.222E+00    0.357E+00
DAV:  12    -0.325934303590E+03    0.14292E-02   -0.46530E-01 15872   0.172E+00    0.133E+00
DAV:  13    -0.325949001716E+03   -0.14698E-01   -0.42073E-02 14848   0.284E-01    0.896E-01
DAV:  14    -0.325965227147E+03   -0.16225E-01   -0.11237E-01 16384   0.499E-01    0.481E-01
DAV:  15    -0.325965822213E+03   -0.59507E-03   -0.73552E-03 13824   0.187E-01    0.232E-01
DAV:  16    -0.325966397331E+03   -0.57512E-03   -0.13968E-03 17664   0.610E-02    0.149E-01
DAV:  17    -0.325967586081E+03   -0.11887E-02   -0.73196E-03 14592   0.837E-02    0.635E-02
DAV:  18    -0.325967661386E+03   -0.75305E-04   -0.44190E-04 15360   0.342E-02    0.688E-02
DAV:  19    -0.325967658849E+03    0.25366E-05   -0.10479E-04 16896   0.209E-02    0.378E-02
DAV:  20    -0.325967666298E+03   -0.74491E-05   -0.10649E-04 18944   0.186E-02    0.237E-02
DAV:  21    -0.325967667050E+03   -0.75140E-06   -0.10255E-05 14080   0.568E-03    0.155E-02
DAV:  22    -0.325967666269E+03    0.78039E-06   -0.28452E-06 21248   0.334E-03    0.103E-02
DAV:  23    -0.325967666655E+03   -0.38590E-06   -0.21910E-06 18944   0.250E-03    0.375E-03
DAV:  24    -0.325967666655E+03    0.14552E-09   -0.70846E-07 18688   0.120E-03    0.273E-03
DAV:  25    -0.325967666671E+03   -0.16036E-07   -0.25091E-08 13824   0.291E-04    0.184E-03
DAV:  26    -0.325967666713E+03   -0.41822E-07   -0.33078E-08 16128   0.285E-04    0.455E-04
DAV:  27    -0.325967666763E+03   -0.50335E-07   -0.28047E-08  9216   0.183E-04    0.373E-04
DAV:  28    -0.325967666764E+03   -0.11787E-08   -0.37246E-09 11264   0.137E-04
   1 F= -.32596767E+03 E0= -.32596767E+03  d E =0.000000E+00  mag=    -0.0000
