 vasp.5.4.4.18Apr17-6-g9f103f2a35 (build Oct 30 2023 17:30:16) complex          
  
 executed on             LinuxIFC date 2024.06.30  05:28:48
 running on  256 total cores
 distrk:  each k-point on  256 cores,    1 groups
 distr:  one band on NCORES_PER_BAND=   1 cores,  256 groups


--------------------------------------------------------------------------------------------------------


 INCAR:
 POTCAR:    PAW_PBE S 06Sep2000                   
 POTCAR:     PAW_PBE Cu_pv 06Sep2000              
 POTCAR:     PAW_PBE Fe_pv 02Aug2007              

 ----------------------------------------------------------------------------- 
|                                                                             |
|           W    W    AA    RRRRR   N    N  II  N    N   GGGG   !!!           |
|           W    W   A  A   R    R  NN   N  II  NN   N  G    G  !!!           |
|           W    W  A    A  R    R  N N  N  II  N N  N  G       !!!           |
|           W WW W  AAAAAA  RRRRR   N  N N  II  N  N N  G  GGG   !            |
|           WW  WW  A    A  R   R   N   NN  II  N   NN  G    G                |
|           W    W  A    A  R    R  N    N  II  N    N   GGGG   !!!           |
|                                                                             |
|      For optimal performance we recommend to set                            |
|        NCORE= 4 - approx SQRT( number of cores)                             |
|      NCORE specifies how many cores store one orbital (NPAR=cpu/NCORE).     |
|      This setting can  greatly improve the performance of VASP for DFT.     |
|      The default,   NCORE=1            might be grossly inefficient         |
|      on modern multi-core architectures or massively parallel machines.     |
|      Do your own testing !!!!                                               |
|      Unfortunately you need to use the default for GW and RPA calculations. |
|      (for HF NCORE is supported but not extensively tested yet)             |
|                                                                             |
 ----------------------------------------------------------------------------- 

 POTCAR:    PAW_PBE S 06Sep2000                   
   SHA256 =  0fc7481fb0695f01bdc6462160264c5c84044ae9ec85a907d398b887a2bc3132 S/
   COPYR  = (c) Copyright 06Sep2000 Georg Kresse                                
   COPYR  = This file is part of the software VASP. Any use, copying, and all ot
   COPYR  = If you do not have a valid VASP license, you may not use, copy or di
   VRHFIN =S : s2p4                                                             
   LEXCH  = PE                                                                  
   EATOM  =   276.8230 eV,   20.3459 Ry                                         
                                                                                
   TITEL  = PAW_PBE S 06Sep2000                                                 
   LULTRA =        F    use ultrasoft PP ?                                      
   IUNSCR =        1    unscreen: 0-lin 1-nonlin 2-no                           
   RPACOR =    1.500    partial core radius                                     
   POMASS =   32.066; ZVAL   =    6.000    mass and valenz                      
   RCORE  =    1.900    outmost cutoff radius                                   
   RWIGS  =    2.200; RWIGS  =    1.164    wigner-seitz radius (au A)           
   ENMAX  =  258.689; ENMIN  =  194.016 eV                                      
   ICORE  =        2    local potential                                         
   LCOR   =        T    correct aug charges                                     
   LPAW   =        T    paw PP                                                  
   EAUG   =  335.092                                                            
   DEXC   =    0.000                                                            
   RMAX   =    1.942    core radius for proj-oper                               
   RAUG   =    1.300    factor for augmentation sphere                          
   RDEP   =    1.954    radius for radial grids                                 
   RDEPT  =    1.744    core radius for aug-charge                              
                                                                                
   Atomic configuration                                                         
    6 entries                                                                   
     n  l   j            E        occ.                                          
     1  0  0.50     -2405.8406   2.0000                                         
     2  0  0.50      -211.7007   2.0000                                         
     2  1  1.50      -156.4958   6.0000                                         
     3  0  0.50       -17.2562   2.0000                                         
     3  1  0.50        -7.0085   4.0000                                         
     3  2  1.50        -6.8029   0.0000                                         
   Description                                                                  
     l       E           TYP  RCUT    TYP  RCUT                                 
     0    -17.2561641     23  1.900                                             
     0    -15.8743224     23  1.900                                             
     1     -7.0085400     23  1.900                                             
     1     -2.7779785     23  1.900                                             
     2     -6.8029130     23  1.900                                             
  local pseudopotential read in
  partial core-charges read in
  partial kinetic energy density read in
  atomic valenz-charges read in
  non local Contribution for L=           0  read in
    real space projection operators read in
  non local Contribution for L=           0  read in
    real space projection operators read in
  non local Contribution for L=           1  read in
    real space projection operators read in
  non local Contribution for L=           1  read in
    real space projection operators read in
    PAW grid and wavefunctions read in
 
   number of l-projection  operators is LMAX  =           4
   number of lm-projection operators is LMMAX =           8
 
 POTCAR:     PAW_PBE Cu_pv 06Sep2000              
   SHA256 =  cb7b504e2ea725fe1f25c85a9ac77d4012ce94cd394135b722c4e25ec297f1cb Cu
   COPYR  = (c) Copyright 06Sep2000 Georg Kresse                                
   COPYR  = This file is part of the software VASP. Any use, copying, and all ot
   COPYR  = If you do not have a valid VASP license, you may not use, copy or di
   VRHFIN =Cu: d10 p1                                                           
   LEXCH  = PE                                                                  
   EATOM  =  4120.1201 eV,  302.8203 Ry                                         
                                                                                
   TITEL  = PAW_PBE Cu_pv 06Sep2000                                             
   LULTRA =        F    use ultrasoft PP ?                                      
   IUNSCR =        1    unscreen: 0-lin 1-nonlin 2-no                           
   RPACOR =    1.500    partial core radius                                     
   POMASS =   63.546; ZVAL   =   17.000    mass and valenz                      
   RCORE  =    2.000    outmost cutoff radius                                   
   RWIGS  =    2.000; RWIGS  =    1.058    wigner-seitz radius (au A)           
   ENMAX  =  368.648; ENMIN  =  276.486 eV                                      
   RCLOC  =    1.304    cutoff for local pot                                    
   LCOR   =        T    correct aug charges                                     
   LPAW   =        T    paw PP                                                  
   EAUG   =  758.233                                                            
   DEXC   =    0.000                                                            
   RMAX   =    2.046    core radius for proj-oper                               
   RAUG   =    1.300    factor for augmentation sphere                          
   RDEP   =    2.025    radius for radial grids                                 
   RDEPT  =    1.558    core radius for aug-charge                              
                                                                                
   Atomic configuration                                                         
    8 entries                                                                   
     n  l   j            E        occ.                                          
     1  0  0.50     -8850.2467   2.0000                                         
     2  0  0.50     -1062.3498   2.0000                                         
     2  1  1.50      -916.8226   6.0000                                         
     3  0  0.50      -114.6929   2.0000                                         
     3  1  1.50       -72.1325   6.0000                                         
     3  2  2.50        -5.0394  10.0000                                         
     4  0  0.50        -4.6097   1.0000                                         
     4  3  2.50        -1.3606   0.0000                                         
   Description                                                                  
     l       E           TYP  RCUT    TYP  RCUT                                 
     1    -72.1324777     23  1.700                                             
     1     -1.3605826     23  1.700                                             
     2     -5.0393776     23  2.000                                             
     2     -6.3999602     23  2.000                                             
     0     -4.6097062     23  1.800                                             
     0     14.1620818     23  1.800                                             
  local pseudopotential read in
  partial core-charges read in
  partial kinetic energy density read in
  atomic valenz-charges read in
  non local Contribution for L=           1  read in
    real space projection operators read in
  non local Contribution for L=           1  read in
    real space projection operators read in
  non local Contribution for L=           2  read in
    real space projection operators read in
  non local Contribution for L=           2  read in
    real space projection operators read in
  non local Contribution for L=           0  read in
    real space projection operators read in
  non local Contribution for L=           0  read in
    real space projection operators read in
    PAW grid and wavefunctions read in
 
   number of l-projection  operators is LMAX  =           6
   number of lm-projection operators is LMMAX =          18
 
 POTCAR:     PAW_PBE Fe_pv 02Aug2007              
   SHA256 =  5d22e414b1f82158bf2c7ecb8b97b28fd0923e48cadc1c3bf74d524558f5dd32 Fe
   COPYR  = (c) Copyright 02Aug2007 Georg Kresse                                
   COPYR  = This file is part of the software VASP. Any use, copying, and all ot
   COPYR  = If you do not have a valid VASP license, you may not use, copy or di
   VRHFIN =Fe:  3pd7s1                                                          
   LEXCH  = PE                                                                  
   EATOM  =  2457.4239 eV,  180.6156 Ry                                         
                                                                                
   TITEL  = PAW_PBE Fe_pv 02Aug2007                                             
   LULTRA =        F    use ultrasoft PP ?                                      
   IUNSCR =        1    unscreen: 0-lin 1-nonlin 2-no                           
   RPACOR =    1.750    partial core radius                                     
   POMASS =   55.847; ZVAL   =   14.000    mass and valenz                      
   RCORE  =    2.200    outmost cutoff radius                                   
   RWIGS  =    2.200; RWIGS  =    1.164    wigner-seitz radius (au A)           
   ENMAX  =  293.238; ENMIN  =  219.928 eV                                      
   ICORE  =        3    local potential                                         
   LCOR   =        T    correct aug charges                                     
   LPAW   =        T    paw PP                                                  
   EAUG   =  578.342                                                            
   DEXC   =    0.000                                                            
   RMAX   =    2.249    core radius for proj-oper                               
   RAUG   =    1.300    factor for augmentation sphere                          
   RDEP   =    2.296    radius for radial grids                                 
   RDEPT  =    1.766    core radius for aug-charge                              
                                                                                
   Atomic configuration                                                         
    8 entries                                                                   
     n  l   j            E        occ.                                          
     1  0  0.50     -6993.8440   2.0000                                         
     2  0  0.50      -814.6047   2.0000                                         
     2  1  1.50      -693.3689   6.0000                                         
     3  0  0.50       -89.4732   2.0000                                         
     3  1  1.50       -55.6373   6.0000                                         
     3  2  2.50        -3.8151   7.0000                                         
     4  0  0.50        -4.2551   1.0000                                         
     4  3  2.50        -1.3606   0.0000                                         
   Description                                                                  
     l       E           TYP  RCUT    TYP  RCUT                                 
     1    -55.6372668     23  2.000                                             
     1     -5.4423304     23  2.000                                             
     2     -3.8151096     23  2.200                                             
     2     -5.1756922     23  2.200                                             
     0     -4.2550951     23  2.200                                             
     0     27.2116520     23  2.200                                             
     3     -1.3605826     23  2.200                                             
  local pseudopotential read in
  partial core-charges read in
  partial kinetic energy density read in
  atomic valenz-charges read in
  non local Contribution for L=           1  read in
    real space projection operators read in
  non local Contribution for L=           1  read in
    real space projection operators read in
  non local Contribution for L=           2  read in
    real space projection operators read in
  non local Contribution for L=           2  read in
    real space projection operators read in
  non local Contribution for L=           0  read in
    real space projection operators read in
  non local Contribution for L=           0  read in
    real space projection operators read in
    PAW grid and wavefunctions read in
 
   number of l-projection  operators is LMAX  =           6
   number of lm-projection operators is LMMAX =          18
 

 ----------------------------------------------------------------------------- 
|                                                                             |
|  ADVICE TO THIS USER RUNNING 'VASP/VAMP'   (HEAR YOUR MASTER'S VOICE ...):  |
|                                                                             |
|      You have a (more or less) 'large supercell' and for larger cells       |
|      it might be more efficient to use real space projection opertators     |
|      So try LREAL= Auto  in the INCAR   file.                               |
|      Mind:          For very  accurate calculation you might also keep the  |
|      reciprocal projection scheme          (i.e. LREAL=.FALSE.)             |
|                                                                             |
 ----------------------------------------------------------------------------- 


 ----------------------------------------------------------------------------- 
|                                                                             |
|  ADVICE TO THIS USER RUNNING 'VASP/VAMP'   (HEAR YOUR MASTER'S VOICE ...):  |
|                                                                             |
|      You enforced a specific xc-type in the INCAR file,                     |
|      a different type was found on the POTCAR file                          |
|          I HOPE YOU KNOW, WHAT YOU ARE  DOING                               |
|                                                                             |
 ----------------------------------------------------------------------------- 

  PAW_PBE S 06Sep2000                   :
 energy of atom  1       EATOM= -276.8230
 kinetic energy error for atom=    0.0007 (will be added to EATOM!!)
   PAW_PBE Cu_pv 06Sep2000              :
 energy of atom  2       EATOM=-4120.1201
 kinetic energy error for atom=    0.0094 (will be added to EATOM!!)
   PAW_PBE Fe_pv 02Aug2007              :
 energy of atom  3       EATOM=-2457.4239
 kinetic energy error for atom=    0.0025 (will be added to EATOM!!)
 
 
 POSCAR: Fe16 Cu16 S32                           
  positions in direct lattice
  No initial velocities read in
 exchange correlation table for  LEXCH =       14
   RHO(1)=    0.500       N(1)  =     2000
   RHO(2)=  100.500       N(2)  =     4000
 


--------------------------------------------------------------------------------------------------------


 ion  position               nearest neighbor table
   1  0.127  0.117  0.126-  41 2.25  61 2.25  37 2.28  49 2.30
   2  0.627  0.117  0.126-  42 2.25  62 2.25  38 2.28  50 2.30
   3  0.127  0.617  0.126-  43 2.25  63 2.25  39 2.28  51 2.30
   4  0.627  0.617  0.126-  44 2.25  64 2.25  40 2.28  52 2.30
   5  0.373  0.367  0.124-  39 2.25  52 2.25  41 2.28  62 2.30
   6  0.873  0.367  0.124-  40 2.25  51 2.25  42 2.28  61 2.30
   7  0.373  0.867  0.124-  37 2.25  50 2.25  43 2.28  64 2.30
   8  0.873  0.867  0.124-  38 2.25  49 2.25  44 2.28  63 2.30
   9  0.125  0.370  0.875-  51 2.27  55 2.27  41 2.27  45 2.27
  10  0.625  0.370  0.875-  52 2.27  56 2.27  42 2.27  46 2.27
  11  0.125  0.870  0.875-  49 2.27  53 2.27  43 2.27  47 2.27
  12  0.625  0.870  0.875-  50 2.27  54 2.27  44 2.27  48 2.27
  13  0.375  0.121  0.875-  41 2.26  46 2.26  50 2.30  53 2.30
  14  0.875  0.121  0.875-  42 2.26  45 2.26  49 2.30  54 2.30
  15  0.375  0.621  0.875-  43 2.26  48 2.26  52 2.30  55 2.30
  16  0.875  0.621  0.875-  44 2.26  47 2.26  51 2.30  56 2.30
  17  0.123  0.117  0.624-  45 2.25  57 2.25  33 2.28  53 2.30
  18  0.623  0.117  0.624-  46 2.25  58 2.25  34 2.28  54 2.30
  19  0.123  0.617  0.624-  47 2.25  59 2.25  35 2.28  55 2.30
  20  0.623  0.617  0.624-  48 2.25  60 2.25  36 2.28  56 2.30
  21  0.377  0.367  0.626-  36 2.25  55 2.25  46 2.28  57 2.30
  22  0.877  0.367  0.626-  35 2.25  56 2.25  45 2.28  58 2.30
  23  0.377  0.867  0.626-  34 2.25  53 2.25  48 2.28  59 2.30
  24  0.877  0.867  0.626-  33 2.25  54 2.25  47 2.28  60 2.30
  25  0.375  0.120  0.375-  57 2.27  62 2.27  34 2.27  37 2.27
  26  0.875  0.120  0.375-  58 2.27  61 2.27  33 2.27  38 2.27
  27  0.375  0.620  0.375-  59 2.27  64 2.27  36 2.27  39 2.27
  28  0.875  0.620  0.375-  60 2.27  63 2.27  35 2.27  40 2.27
  29  0.125  0.371  0.375-  35 2.26  39 2.26  57 2.30  61 2.30
  30  0.625  0.371  0.375-  36 2.26  40 2.26  58 2.30  62 2.30
  31  0.125  0.871  0.375-  33 2.26  37 2.26  59 2.30  63 2.30
  32  0.625  0.871  0.375-  34 2.26  38 2.26  60 2.30  64 2.30
  33  0.997  0.006  0.500-  24 2.25  31 2.26  26 2.27  17 2.28
  34  0.497  0.006  0.500-  23 2.25  32 2.26  25 2.27  18 2.28
  35  0.997  0.506  0.500-  22 2.25  29 2.26  28 2.27  19 2.28
  36  0.497  0.506  0.500-  21 2.25  30 2.26  27 2.27  20 2.28
  37  0.253  0.006  0.250-   7 2.25  31 2.26  25 2.27   1 2.28
  38  0.753  0.006  0.250-   8 2.25  32 2.26  26 2.27   2 2.28
  39  0.253  0.506  0.250-   5 2.25  29 2.26  27 2.27   3 2.28
  40  0.753  0.506  0.250-   6 2.25  30 2.26  28 2.27   4 2.28
  41  0.247  0.256  0.000-   1 2.25  13 2.26   9 2.27   5 2.28
  42  0.747  0.256  0.000-   2 2.25  14 2.26  10 2.27   6 2.28
  43  0.247  0.756  0.000-   3 2.25  15 2.26  11 2.27   7 2.28
  44  0.747  0.756  0.000-   4 2.25  16 2.26  12 2.27   8 2.28
  45  0.003  0.256  0.750-  17 2.25  14 2.26   9 2.27  22 2.28
  46  0.503  0.256  0.750-  18 2.25  13 2.26  10 2.27  21 2.28
  47  0.003  0.756  0.750-  19 2.25  16 2.26  11 2.27  24 2.28
  48  0.503  0.756  0.750-  20 2.25  15 2.26  12 2.27  23 2.28
  49  0.998  0.006  0.002-   8 2.25  11 2.27  14 2.30   1 2.30
  50  0.498  0.006  0.002-   7 2.25  12 2.27  13 2.30   2 2.30
  51  0.998  0.506  0.002-   6 2.25   9 2.27  16 2.30   3 2.30
  52  0.498  0.506  0.002-   5 2.25  10 2.27  15 2.30   4 2.30
  53  0.252  0.006  0.748-  23 2.25  11 2.27  13 2.30  17 2.30
  54  0.752  0.006  0.748-  24 2.25  12 2.27  14 2.30  18 2.30
  55  0.252  0.506  0.748-  21 2.25   9 2.27  15 2.30  19 2.30
  56  0.752  0.506  0.748-  22 2.25  10 2.27  16 2.30  20 2.30
  57  0.248  0.256  0.502-  17 2.25  25 2.27  29 2.30  21 2.30
  58  0.748  0.256  0.502-  18 2.25  26 2.27  30 2.30  22 2.30
  59  0.248  0.756  0.502-  19 2.25  27 2.27  31 2.30  23 2.30
  60  0.748  0.756  0.502-  20 2.25  28 2.27  32 2.30  24 2.30
  61  0.002  0.256  0.248-   1 2.25  26 2.27  29 2.30   6 2.30
  62  0.502  0.256  0.248-   2 2.25  25 2.27  30 2.30   5 2.30
  63  0.002  0.756  0.248-   3 2.25  28 2.27  31 2.30   8 2.30
  64  0.502  0.756  0.248-   4 2.25  27 2.27  32 2.30   7 2.30
 
  LATTYP: Found a simple monoclinic cell.
 ALAT       =    15.6609928894
 B/A-ratio  =     0.6729417524
 C/A-ratio  =     1.5595680900
 COS(beta)  =    -0.9589349042
  
  Lattice vectors:
  
 A1 = ( -11.1230800000,   0.0000000000, -11.0246900000)
 A2 = (   0.0000000000, -10.5389360000,   0.0000000000)
 A3 = (  11.7582360000,   0.0000000000,  21.4078130000)


Analysis of symmetry for initial positions (statically):
=====================================================================
 Subroutine PRICEL returns following result:
 
  LATTYP: Found a base centered monoclinic cell.
 ALAT       =    11.0675999638
 B/A-ratio  =     0.4761165941
 C/A-ratio  =     0.9399085405
 COS(beta)  =    -0.7963897559
  
  Lattice vectors:
  
 A1 = (  -2.3044030000,  -2.6347340000,   5.0311697500)
 A2 = (  -2.3044030000,   2.6347340000,   5.0311697500)
 A3 = (  -0.6351560000,   0.0000000000, -10.3831230000)
 
   8 primitive cells build up your supercell.
 

 Routine SETGRP: Setting up the symmetry group for a 
 simple monoclinic supercell.


 Subroutine GETGRP returns: Found  2 space group operations
 (whereof  1 operations were pure point group operations)
 out of a pool of  4 trial point group operations.


The static configuration has the point symmetry C_1 .
 The point group associated with its full space group is C_2 .


Analysis of symmetry for dynamics (positions and initial velocities):
=====================================================================
 Subroutine PRICEL returns following result:
 
  LATTYP: Found a base centered monoclinic cell.
 ALAT       =    11.0675999638
 B/A-ratio  =     0.4761165941
 C/A-ratio  =     0.9399085405
 COS(beta)  =    -0.7963897559
  
  Lattice vectors:
  
 A1 = (  -2.3044030000,  -2.6347340000,   5.0311697500)
 A2 = (  -2.3044030000,   2.6347340000,   5.0311697500)
 A3 = (  -0.6351560000,   0.0000000000, -10.3831230000)
 
   8 primitive cells build up your supercell.
 

 Routine SETGRP: Setting up the symmetry group for a 
 simple monoclinic supercell.


 Subroutine GETGRP returns: Found  2 space group operations
 (whereof  1 operations were pure point group operations)
 out of a pool of  4 trial point group operations.


The dynamic configuration has the point symmetry C_1 .
 The point group associated with its full space group is C_2 .


Analysis of structural, dynamic, and magnetic symmetry:
=====================================================================
 Subroutine PRICEL returns following result:
 
  LATTYP: Found a base centered monoclinic cell.
 ALAT       =    11.0675999638
 B/A-ratio  =     0.4761165941
 C/A-ratio  =     0.9399085405
 COS(beta)  =    -0.7963897559
  
  Lattice vectors:
  
 A1 = (  -2.3044030000,  -2.6347340000,   5.0311697500)
 A2 = (  -2.3044030000,   2.6347340000,   5.0311697500)
 A3 = (  -0.6351560000,   0.0000000000, -10.3831230000)
 
   8 primitive cells build up your supercell.
 

 Routine SETGRP: Setting up the symmetry group for a 
 simple monoclinic supercell.


 Subroutine GETGRP returns: Found  2 space group operations
 (whereof  1 operations were pure point group operations)
 out of a pool of  4 trial point group operations.


The magnetic configuration has the point symmetry C_1 .
 The point group associated with its full space group is C_2 .


 Subroutine INISYM returns: Found  2 space group operations
 (whereof  1 operations are pure point group operations),
 and found     8 'primitive' translations

 
 
 KPOINTS: Automatic mesh                          

Automatic generation of k-mesh.
Space group operators:
 irot       det(A)        alpha          n_x          n_y          n_z        tau_x        tau_y        tau_z
    1     1.000000     0.000001     1.000000     0.000000     0.000000     0.000000     0.000000     0.000000
    2     1.000000   180.000000     0.000000     1.000000     0.000000    -0.250000     0.000000    -0.250000
 
 Subroutine IBZKPT returns following result:
 ===========================================
 
 Found      8 irreducible k-points:
 
 Following reciprocal coordinates:
            Coordinates               Weight
  0.000000  0.000000  0.000000      1.000000
  0.500000  0.000000  0.000000      1.000000
  0.000000  0.500000  0.000000      1.000000
  0.500000  0.500000  0.000000      1.000000
 -0.000000  0.000000  0.500000      1.000000
  0.500000  0.000000  0.500000      1.000000
 -0.000000  0.500000  0.500000      1.000000
  0.500000  0.500000  0.500000      1.000000
 
 Following cartesian coordinates:
            Coordinates               Weight
  0.000000  0.000000  0.000000      1.000000
  0.047853  0.000000 -0.002927      1.000000
  0.000000  0.047443  0.000000      1.000000
  0.047853  0.047443 -0.002927      1.000000
 -0.002957  0.000000  0.048336      1.000000
  0.044896  0.000000  0.045409      1.000000
 -0.002957  0.047443  0.048336      1.000000
  0.044896  0.047443  0.045409      1.000000
 
 TETIRR: Found     24 inequivalent tetrahedra from       48
 
 Subroutine IBZKPT_HF returns following result:
 ==============================================
 
 Found      8 k-points in 1st BZ
 the following      8 k-points will be used (e.g. in the exchange kernel)
 Following reciprocal coordinates:   # in IRBZ
  0.000000  0.000000  0.000000    0.12500000   1 t-inv F
  0.500000  0.000000  0.000000    0.12500000   2 t-inv F
  0.000000  0.500000  0.000000    0.12500000   3 t-inv F
  0.500000  0.500000  0.000000    0.12500000   4 t-inv F
 -0.000000  0.000000  0.500000    0.12500000   5 t-inv F
  0.500000  0.000000  0.500000    0.12500000   6 t-inv F
 -0.000000  0.500000  0.500000    0.12500000   7 t-inv F
  0.500000  0.500000  0.500000    0.12500000   8 t-inv F


--------------------------------------------------------------------------------------------------------




 Dimension of arrays:
   k-points           NKPTS =      8   k-points in BZ     NKDIM =      8   number of bands    NBANDS=    512
   number of dos      NEDOS =    301   number of ions     NIONS =     64
   non local maximal  LDIM  =      6   non local SUM 2l+1 LMDIM =     18
   total plane-waves  NPLWV = 829440
   max r-space proj   IRMAX =      1   max aug-charges    IRDMAX=  23052
   dimension x,y,z NGX =    96 NGY =   96 NGZ =   90
   dimension x,y,z NGXF=   192 NGYF=  192 NGZF=  180
   support grid    NGXF=   192 NGYF=  192 NGZF=  180
   ions per type =              32  16  16
   NGX,Y,Z   is equivalent  to a cutoff of  15.19, 15.14, 14.38 a.u.
   NGXF,Y,Z  is equivalent  to a cutoff of  30.38, 30.29, 28.77 a.u.

 SYSTEM =  CuFeS2                                  
 POSCAR =  Fe16 Cu16 S32                           

 Startparameter for this run:
   NWRITE =      2    write-flag & timer
   PREC   = accura    normal or accurate (medium, high low for compatibility)
   ISTART =      0    job   : 0-new  1-cont  2-samecut
   ICHARG =      1    charge: 1-file 2-atom 10-const
   ISPIN  =      2    spin polarized calculation?
   LNONCOLLINEAR =      F non collinear calculations
   LSORBIT =      F    spin-orbit coupling
   INIWAV =      1    electr: 0-lowe 1-rand  2-diag
   LASPH  =      F    aspherical Exc in radial PAW
   METAGGA=      F    non-selfconsistent MetaGGA calc.

 Electronic Relaxation 1
   ENCUT  =  700.0 eV  51.45 Ry    7.17 a.u.  22.67 22.74 22.44*2*pi/ulx,y,z
   ENINI  =  700.0     initial cutoff
   ENAUG  =  758.2 eV  augmentation charge cutoff
   NELM   =    500;   NELMIN=  2; NELMDL=  0     # of ELM steps 
   EDIFF  = 0.1E-07   stopping-criterion for ELM
   LREAL  =      F    real-space projection
   NLSPLINE    = F    spline interpolate recip. space projectors
   LCOMPAT=      F    compatible to vasp.4.4
   GGA_COMPAT  = T    GGA compatible to vasp.4.4-vasp.4.6
   LMAXPAW     = -100 max onsite density
   LMAXMIX     =    4 max onsite mixed and CHGCAR
   VOSKOWN=      0    Vosko Wilk Nusair interpolation
   ROPT   =    0.00000   0.00000   0.00000
 Ionic relaxation
   EDIFFG = -.1E-04   stopping-criterion for IOM
   NSW    =      0    number of steps for IOM
   NBLOCK =      1;   KBLOCK =      1    inner block; outer block 
   IBRION =     -1    ionic relax: 0-MD 1-quasi-New 2-CG
   NFREE  =      0    steps in history (QN), initial steepest desc. (CG)
   ISIF   =      2    stress and relaxation
   IWAVPR =     10    prediction:  0-non 1-charg 2-wave 3-comb
   ISYM   =      2    0-nonsym 1-usesym 2-fastsym
   LCORR  =      T    Harris-Foulkes like correction to forces

   POTIM  = 0.5000    time-step for ionic-motion
   TEIN   =    0.0    initial temperature
   TEBEG  =    0.0;   TEEND  =   0.0 temperature during run
   SMASS  =  -3.00    Nose mass-parameter (am)
   estimated Nose-frequenzy (Omega)   =  0.10E-29 period in steps =****** mass=  -0.252E-26a.u.
   SCALEE = 1.0000    scale energy and forces
   NPACO  =    256;   APACO  = 16.0  distance and # of slots for P.C.
   PSTRESS=    0.0 pullay stress

  Mass of Ions in am
   POMASS =  32.07 63.55 55.85
  Ionic Valenz
   ZVAL   =   6.00 17.00 14.00
  Atomic Wigner-Seitz radii
   RWIGS  =  -1.00 -1.00 -1.00
  virtual crystal weights 
   VCA    =   1.00  1.00  1.00
   NELECT =     688.0000    total number of electrons
   NUPDOWN=      -1.0000    fix difference up-down

 DOS related values:
   EMIN   =  10.00;   EMAX   =-10.00  energy-range for DOS
   EFERMI =   0.00
   ISMEAR =    -5;   SIGMA  =   0.03  broadening in eV -4-tet -1-fermi 0-gaus

 Electronic relaxation 2 (details)
   IALGO  =     38    algorithm
   LDIAG  =      T    sub-space diagonalisation (order eigenvalues)
   LSUBROT=      F    optimize rotation matrix (better conditioning)
   TURBO    =      0    0=normal 1=particle mesh
   IRESTART =      0    0=no restart 2=restart with 2 vectors
   NREBOOT  =      0    no. of reboots
   NMIN     =      0    reboot dimension
   EREF     =   0.00    reference energy to select bands
   IMIX   =      4    mixing-type and parameters
     AMIX     =   0.40;   BMIX     =  1.00
     AMIX_MAG =   1.60;   BMIX_MAG =  1.00
     AMIN     =   0.10
     WC   =   100.;   INIMIX=   1;  MIXPRE=   1;  MAXMIX= -45

 Intra band minimization:
   WEIMIN = 0.0000     energy-eigenvalue tresh-hold
   EBREAK =  0.49E-11  absolut break condition
   DEPER  =   0.30     relativ break condition  

   TIME   =   0.40     timestep for ELM

  volume/ion in A,a.u.               =      17.87       120.56
  Fermi-wavevector in a.u.,A,eV,Ry     =   1.382109  2.611807 25.990190  1.910225
  Thomas-Fermi vector in A             =   2.506831
 
 Write flags
   LWAVE        =      T    write WAVECAR
   LDOWNSAMPLE  =      F    k-point downsampling of WAVECAR
   LCHARG       =      T    write CHGCAR
   LVTOT        =      F    write LOCPOT, total local potential
   LVHAR        =      F    write LOCPOT, Hartree potential only
   LELF         =      F    write electronic localiz. function (ELF)
   LORBIT       =     11    0 simple, 1 ext, 2 COOP (PROOUT), +10 PAW based schemes


 Dipole corrections
   LMONO  =      F    monopole corrections only (constant potential shift)
   LDIPOL =      F    correct potential (dipole corrections)
   IDIPOL =      0    1-x, 2-y, 3-z, 4-all directions 
   EPSILON=  1.0000000 bulk dielectric constant

 LDA+U is selected, type is set to LDAUTYPE =  2
   angular momentum for each species LDAUL =     2    2    2
   U (eV)           for each species LDAUU =   0.0  0.1  4.7
   J (eV)           for each species LDAUJ =   0.0  0.0  0.0
 Exchange correlation treatment:
   GGA     =    PS    GGA type
   LEXCH   =    14    internal setting for exchange type
   VOSKOWN=      0    Vosko Wilk Nusair interpolation
   LHFCALC =     F    Hartree Fock is set to
   LHFONE  =     F    Hartree Fock one center treatment
   AEXX    =    0.0000 exact exchange contribution

 Linear response parameters
   LEPSILON=     F    determine dielectric tensor
   LRPA    =     F    only Hartree local field effects (RPA)
   LNABLA  =     F    use nabla operator in PAW spheres
   LVEL    =     F    velocity operator in full k-point grid
   LINTERFAST=   F  fast interpolation
   KINTER  =     0    interpolate to denser k-point grid
   CSHIFT  =0.1000    complex shift for real part using Kramers Kronig
   OMEGAMAX=  -1.0    maximum frequency
   DEG_THRESHOLD= 0.2000000E-02 threshold for treating states as degnerate
   RTIME   =   -0.100 relaxation time in fs
  (WPLASMAI=    0.000 imaginary part of plasma frequency in eV, 0.658/RTIME)
   DFIELD  = 0.0000000 0.0000000 0.0000000 field for delta impulse in time
 
 Orbital magnetization related:
   ORBITALMAG=     F  switch on orbital magnetization
   LCHIMAG   =     F  perturbation theory with respect to B field
   DQ        =  0.001000  dq finite difference perturbation B field
   LLRAUG    =     F  two centre corrections for induced B field

 PEAD related settings:
   LPEAD      =     T    switch on PEAD
   IPEAD      =     4    finite difference order for dpsi/dk
   LCALCPOL   =     T    calculate macroscopic polarization
   LCALCEPS   =     F    calculate dielectric tensor
   EFIELD_PEAD=    0.0000    0.0000    0.0000
   SKIP_EDOTP =     F
   LRPA       =     F
   SKIP_SCF   =     F


--------------------------------------------------------------------------------------------------------


 Static calculation
 charge density and potential will be updated during run
 spin polarized calculation
 Variant of blocked Davidson
 Davidson routine will perform the subspace rotation
 perform sub-space diagonalisation
    after iterative eigenvector-optimisation
 modified Broyden-mixing scheme, WC =      100.0
 initial mixing is a Kerker type mixing with AMIX =  0.4000 and BMIX =      1.0000
 Hartree-type preconditioning will be used
 using additional bands          168
 reciprocal scheme for non local part
 use partial core corrections
 calculate Harris-corrections to forces 
   (improved forces if not selfconsistent)
 use gradient corrections 
 use of overlap-Matrix (Vanderbilt PP)
 Fermi weights with tetrahedron method with Bloechl corrections


--------------------------------------------------------------------------------------------------------


  energy-cutoff  :      700.00
  volume of cell :     1143.37
      direct lattice vectors                 reciprocal lattice vectors
    10.487924000  0.000000000  0.641567000     0.095705887  0.000000000 -0.005854517
     0.000000000 10.538936000  0.000000000     0.000000000  0.094886239  0.000000000
     0.635156000  0.000000000 10.383123000    -0.005913610  0.000000000  0.096671884

  length of vectors
    10.507528636 10.538936000 10.402531729     0.095884786  0.094886239  0.096852589


 
 k-points in units of 2pi/SCALE and weight: Automatic mesh                          
   0.00000000  0.00000000  0.00000000       0.125
   0.04785294  0.00000000 -0.00292726       0.125
   0.00000000  0.04744312  0.00000000       0.125
   0.04785294  0.04744312 -0.00292726       0.125
  -0.00295680  0.00000000  0.04833594       0.125
   0.04489614  0.00000000  0.04540868       0.125
  -0.00295680  0.04744312  0.04833594       0.125
   0.04489614  0.04744312  0.04540868       0.125
 
 k-points in reciprocal lattice and weights: Automatic mesh                          
   0.00000000  0.00000000  0.00000000       0.125
   0.50000000  0.00000000  0.00000000       0.125
   0.00000000  0.50000000  0.00000000       0.125
   0.50000000  0.50000000  0.00000000       0.125
  -0.00000000  0.00000000  0.50000000       0.125
   0.50000000  0.00000000  0.50000000       0.125
  -0.00000000  0.50000000  0.50000000       0.125
   0.50000000  0.50000000  0.50000000       0.125
 
 position of ions in fractional coordinates (direct lattice) 
   0.12670300  0.11693400  0.12614100
   0.62670300  0.11693400  0.12614100
   0.12670300  0.61693400  0.12614100
   0.62670300  0.61693400  0.12614100
   0.37329700  0.36693400  0.12385900
   0.87329700  0.36693400  0.12385900
   0.37329700  0.86693400  0.12385900
   0.87329700  0.86693400  0.12385900
   0.12500000  0.36999700  0.87500000
   0.62500000  0.36999700  0.87500000
   0.12500000  0.86999700  0.87500000
   0.62500000  0.86999700  0.87500000
   0.37500000  0.12100900  0.87500000
   0.87500000  0.12100900  0.87500000
   0.37500000  0.62100900  0.87500000
   0.87500000  0.62100900  0.87500000
   0.12329700  0.11693400  0.62385900
   0.62329700  0.11693400  0.62385900
   0.12329700  0.61693400  0.62385900
   0.62329700  0.61693400  0.62385900
   0.37670300  0.36693400  0.62614100
   0.87670300  0.36693400  0.62614100
   0.37670300  0.86693400  0.62614100
   0.87670300  0.86693400  0.62614100
   0.37500000  0.11999700  0.37500000
   0.87500000  0.11999700  0.37500000
   0.37500000  0.61999700  0.37500000
   0.87500000  0.61999700  0.37500000
   0.12500000  0.37100900  0.37500000
   0.62500000  0.37100900  0.37500000
   0.12500000  0.87100900  0.37500000
   0.62500000  0.87100900  0.37500000
   0.99657400  0.00627400  0.50007600
   0.49657400  0.00627400  0.50007600
   0.99657400  0.50627400  0.50007600
   0.49657400  0.50627400  0.50007600
   0.25342600  0.00627400  0.24992400
   0.75342600  0.00627400  0.24992400
   0.25342600  0.50627400  0.24992400
   0.75342600  0.50627400  0.24992400
   0.24657400  0.25627400  0.00007600
   0.74657400  0.25627400  0.00007600
   0.24657400  0.75627400  0.00007600
   0.74657400  0.75627400  0.00007600
   0.00342600  0.25627400  0.74992400
   0.50342600  0.25627400  0.74992400
   0.00342600  0.75627400  0.74992400
   0.50342600  0.75627400  0.74992400
   0.99780600  0.00628900  0.00155700
   0.49780600  0.00628900  0.00155700
   0.99780600  0.50628900  0.00155700
   0.49780600  0.50628900  0.00155700
   0.25219400  0.00628900  0.74844300
   0.75219400  0.00628900  0.74844300
   0.25219400  0.50628900  0.74844300
   0.75219400  0.50628900  0.74844300
   0.24780600  0.25628900  0.50155700
   0.74780600  0.25628900  0.50155700
   0.24780600  0.75628900  0.50155700
   0.74780600  0.75628900  0.50155700
   0.00219400  0.25628900  0.24844300
   0.50219400  0.25628900  0.24844300
   0.00219400  0.75628900  0.24844300
   0.50219400  0.75628900  0.24844300
 
 position of ions in cartesian coordinates  (Angst):
   1.40897065  1.23235994  1.39102598
   6.65293265  1.23235994  1.71180948
   1.40897065  6.50182794  1.39102598
   6.65293265  6.50182794  1.71180948
   3.99378035  3.86709394  1.52553827
   9.23774235  3.86709394  1.84632177
   3.99378035  9.13656194  1.52553827
   9.23774235  9.13656194  1.84632177
   1.86675200  3.89937470  9.16542850
   7.11071400  3.89937470  9.48621200
   1.86675200  9.16884270  9.16542850
   7.11071400  9.16884270  9.48621200
   4.48873300  1.27530611  9.32582025
   9.73269500  1.27530611  9.64660375
   4.48873300  6.54477411  9.32582025
   9.73269500  6.54477411  9.64660375
   1.68937735  1.23235994  6.55670802
   6.93333935  1.23235994  6.87749152
   1.68937735  6.50182794  6.55670802
   6.93333935  6.50182794  6.87749152
   4.34852965  3.86709394  6.74297923
   9.59249165  3.86709394  7.06376273
   4.34852965  9.13656194  6.74297923
   9.59249165  9.13656194  7.06376273
   4.17115500  1.26464070  4.13425875
   9.41511700  1.26464070  4.45504225
   4.17115500  6.53410870  4.13425875
   9.41511700  6.53410870  4.45504225
   1.54917400  3.91004011  3.97386700
   6.79313600  3.91004011  4.29465050
   1.54917400  9.17950811  3.97386700
   6.79313600  9.17950811  4.29465050
  10.76961864  0.06612128  5.83171961
   5.52565664  0.06612128  5.51093611
  10.76961864  5.33558928  5.83171961
   5.52565664  5.33558928  5.51093611
   2.81665336  0.06612128  2.75758139
   8.06061536  0.06612128  3.07836489
   2.81665336  5.33558928  2.75758139
   8.06061536  5.33558928  3.07836489
   2.58609764  2.70085528  0.15898286
   7.83005964  2.70085528  0.47976636
   2.58609764  7.97032328  0.15898286
   7.83005964  7.97032328  0.47976636
   0.51225036  2.70085528  7.78875114
   5.75621236  2.70085528  8.10953464
   0.51225036  7.97032328  7.78875114
   5.75621236  7.97032328  8.10953464
  10.46590243  0.06627937  0.65632592
   5.22194043  0.06627937  0.33554242
  10.46590243  5.33574737  0.65632592
   5.22194043  5.33574737  0.33554242
   3.12036957  0.06627937  7.93297508
   8.36433157  0.06627937  8.25375858
   3.12036957  5.33574737  7.93297508
   8.36433157  5.33574737  8.25375858
   2.91753743  2.70101337  5.36671217
   8.16149943  2.70101337  5.68749567
   2.91753743  7.97048137  5.36671217
   8.16149943  7.97048137  5.68749567
   0.18081057  2.70101337  2.58102183
   5.42477257  2.70101337  2.90180533
   0.18081057  7.97048137  2.58102183
   5.42477257  7.97048137  2.90180533
 


--------------------------------------------------------------------------------------------------------


 k-point  1 :   0.0000 0.0000 0.0000  plane waves:   48095
 k-point  2 :   0.5000 0.0000 0.0000  plane waves:   48104
 k-point  3 :   0.0000 0.5000 0.0000  plane waves:   48098
 k-point  4 :   0.5000 0.5000 0.0000  plane waves:   48096
 k-point  5 :  -0.0000 0.0000 0.5000  plane waves:   48076
 k-point  6 :   0.5000 0.0000 0.5000  plane waves:   48090
 k-point  7 :  -0.0000 0.5000 0.5000  plane waves:   48116
 k-point  8 :   0.5000 0.5000 0.5000  plane waves:   48052

 maximum and minimum number of plane-waves per node :     48116    48052

 maximum number of plane-waves:     48116
 maximum index in each direction: 
   IXMAX=   22   IYMAX=   22   IZMAX=   22
   IXMIN=  -23   IYMIN=  -23   IZMIN=  -22


 serial   3D FFT for wavefunctions
 parallel 3D FFT for charge:
    minimum data exchange during FFTs selected (reduces bandwidth)


 total amount of memory used by VASP MPI-rank0   347075. kBytes
=======================================================================

   base      :      30000. kBytes
   nonl-proj :     215613. kBytes
   fftplans  :       4588. kBytes
   grid      :      69719. kBytes
   one-center:       1990. kBytes
   wavefun   :      25165. kBytes
 
     INWAV:  cpu time    0.0000: real time    0.0000
 Broyden mixing: mesh for mixing (old mesh)
   NGX = 45   NGY = 45   NGZ = 45
  (NGX  =192   NGY  =192   NGZ  =180)
  gives a total of  91125 points

 initial charge density was supplied:
 number of electron     688.0000140 magnetization      -0.0000000
 keeping initial charge density in first step


--------------------------------------------------------------------------------------------------------


 Maximum index for augmentation-charges          894 (set IRDMAX)


--------------------------------------------------------------------------------------------------------


 First call to EWALD:  gamma=   0.170
 Maximum number of real-space cells 3x 3x 3
 Maximum number of reciprocal cells 3x 3x 3

    FEWALD:  cpu time    0.0026: real time    0.0026


--------------------------------------- Iteration      1(   1)  ---------------------------------------


    POTLOK:  cpu time    0.3241: real time    0.3728
    SETDIJ:  cpu time    0.0148: real time    0.0149
     EDDAV:  cpu time   83.3053: real time   84.1145
 BZINTS: Fermi energy: 14.855026;688.000000 electrons
         Band energy:***********;  BLOECHL correction: -0.020234
       DOS:  cpu time    0.0401: real time    0.0403
    --------------------------------------------
      LOOP:  cpu time   83.6843: real time   84.5425

 eigenvalue-minimisations  : 16384
 total energy-change (2. order) : 0.6038972E+04  (-0.5169856E+05)
 number of electron     688.0000140 magnetization      -0.0000000
 augmentation part      688.0000140 magnetization      -0.0000000

 Free energy of the ion-electron system (eV)
  ---------------------------------------------------
  alpha Z        PSCENC =      2371.19635430
  Ewald energy   TEWEN  =    -62656.99317837
  -Hartree energ DENC   =    -42689.36212445
  -exchange      EXHF   =         0.00000000
  -V(xc)+E(xc)   XCENC  =      3281.20565613
  PAW double counting   =    112006.03736751  -115694.97744343
  entropy T*S    EENTRO =         0.00000000
  eigenvalues    EBANDS =     -4598.19927820
  atomic energy  EATOM  =    114020.06510763
  Solvation  Ediel_sol  =         0.00000000
  ---------------------------------------------------
  free energy    TOTEN  =      6038.97246111 eV

  energy without entropy =     6038.97246111  energy(sigma->0) =     6038.97246111


--------------------------------------------------------------------------------------------------------




--------------------------------------- Iteration      1(   2)  ---------------------------------------


     EDDAV:  cpu time  103.2054: real time  103.9798
 BZINTS: Fermi energy:  5.439555;688.000000 electrons
         Band energy:***********;  BLOECHL correction: -0.004259
       DOS:  cpu time    0.0311: real time    0.0312
    --------------------------------------------
      LOOP:  cpu time  103.2364: real time  104.0110

 eigenvalue-minimisations  : 18432
 total energy-change (2. order) :-0.6132026E+04  (-0.6023612E+04)
 number of electron     688.0000140 magnetization      -0.0000000
 augmentation part      688.0000140 magnetization      -0.0000000

 Free energy of the ion-electron system (eV)
  ---------------------------------------------------
  alpha Z        PSCENC =      2371.19635430
  Ewald energy   TEWEN  =    -62656.99317837
  -Hartree energ DENC   =    -42689.36212445
  -exchange      EXHF   =         0.00000000
  -V(xc)+E(xc)   XCENC  =      3281.20565613
  PAW double counting   =    112006.03736751  -115694.97744343
  entropy T*S    EENTRO =         0.00000000
  eigenvalues    EBANDS =    -10730.22495775
  atomic energy  EATOM  =    114020.06510763
  Solvation  Ediel_sol  =         0.00000000
  ---------------------------------------------------
  free energy    TOTEN  =       -93.05321844 eV

  energy without entropy =      -93.05321844  energy(sigma->0) =      -93.05321844


--------------------------------------------------------------------------------------------------------




--------------------------------------- Iteration      1(   3)  ---------------------------------------


     EDDAV:  cpu time  147.0582: real time  148.0778
 BZINTS: Fermi energy:  5.097726;688.000000 electrons
         Band energy:***********;  BLOECHL correction:  0.000000
       DOS:  cpu time    0.0062: real time    0.0062
    --------------------------------------------
      LOOP:  cpu time  147.0644: real time  148.0840

 eigenvalue-minimisations  : 22016
 total energy-change (2. order) :-0.2430559E+03  (-0.2422922E+03)
 number of electron     688.0000140 magnetization      -0.0000000
 augmentation part      688.0000140 magnetization      -0.0000000

 Free energy of the ion-electron system (eV)
  ---------------------------------------------------
  alpha Z        PSCENC =      2371.19635430
  Ewald energy   TEWEN  =    -62656.99317837
  -Hartree energ DENC   =    -42689.36212445
  -exchange      EXHF   =         0.00000000
  -V(xc)+E(xc)   XCENC  =      3281.20565613
  PAW double counting   =    112006.03736751  -115694.97744343
  entropy T*S    EENTRO =         0.00000000
  eigenvalues    EBANDS =    -10973.28083332
  atomic energy  EATOM  =    114020.06510763
  Solvation  Ediel_sol  =         0.00000000
  ---------------------------------------------------
  free energy    TOTEN  =      -336.10909401 eV

  energy without entropy =     -336.10909401  energy(sigma->0) =     -336.10909401


--------------------------------------------------------------------------------------------------------




--------------------------------------- Iteration      1(   4)  ---------------------------------------


     EDDAV:  cpu time  132.2194: real time  133.1530
 BZINTS: Fermi energy:  4.953382;688.000000 electrons
         Band energy:***********;  BLOECHL correction:  0.000000
       DOS:  cpu time    0.0062: real time    0.0062
    --------------------------------------------
      LOOP:  cpu time  132.2256: real time  133.1592

 eigenvalue-minimisations  : 20480
 total energy-change (2. order) :-0.3390290E+01  (-0.3390097E+01)
 number of electron     688.0000140 magnetization      -0.0000000
 augmentation part      688.0000140 magnetization      -0.0000000

 Free energy of the ion-electron system (eV)
  ---------------------------------------------------
  alpha Z        PSCENC =      2371.19635430
  Ewald energy   TEWEN  =    -62656.99317837
  -Hartree energ DENC   =    -42689.36212445
  -exchange      EXHF   =         0.00000000
  -V(xc)+E(xc)   XCENC  =      3281.20565613
  PAW double counting   =    112006.03736751  -115694.97744343
  entropy T*S    EENTRO =         0.00000000
  eigenvalues    EBANDS =    -10976.67112373
  atomic energy  EATOM  =    114020.06510763
  Solvation  Ediel_sol  =         0.00000000
  ---------------------------------------------------
  free energy    TOTEN  =      -339.49938442 eV

  energy without entropy =     -339.49938442  energy(sigma->0) =     -339.49938442


--------------------------------------------------------------------------------------------------------




--------------------------------------- Iteration      1(   5)  ---------------------------------------


     EDDAV:  cpu time  135.3876: real time  136.3498
 BZINTS: Fermi energy:  4.946580;688.000000 electrons
         Band energy:***********;  BLOECHL correction:  0.000000
       DOS:  cpu time    0.0052: real time    0.0053
    CHARGE:  cpu time    1.3869: real time    1.3953
    MIXING:  cpu time    0.0064: real time    0.0065
    --------------------------------------------
      LOOP:  cpu time  136.7862: real time  137.7568

 eigenvalue-minimisations  : 20736
 total energy-change (2. order) :-0.1039189E+00  (-0.1039185E+00)
 number of electron     688.0000014 magnetization      -0.0000000
 augmentation part      284.4625577 magnetization      -0.0000000

 Broyden mixing:
  rms(total) = 0.28210E+01    rms(broyden)= 0.28207E+01
  rms(prec ) = 0.31643E+01
  weight for this iteration     100.00

 Free energy of the ion-electron system (eV)
  ---------------------------------------------------
  alpha Z        PSCENC =      2371.19635430
  Ewald energy   TEWEN  =    -62656.99317837
  -Hartree energ DENC   =    -42689.36212445
  -exchange      EXHF   =         0.00000000
  -V(xc)+E(xc)   XCENC  =      3281.20565613
  PAW double counting   =    112006.03736751  -115694.97744343
  entropy T*S    EENTRO =         0.00000000
  eigenvalues    EBANDS =    -10976.77504260
  atomic energy  EATOM  =    114020.06510763
  Solvation  Ediel_sol  =         0.00000000
  ---------------------------------------------------
  free energy    TOTEN  =      -339.60330329 eV

  energy without entropy =     -339.60330329  energy(sigma->0) =     -339.60330329


--------------------------------------------------------------------------------------------------------




--------------------------------------- Iteration      1(   6)  ---------------------------------------


    POTLOK:  cpu time    0.1200: real time    0.1211
    SETDIJ:  cpu time    0.0127: real time    0.0127
     EDDAV:  cpu time  200.0368: real time  201.3796
 BZINTS: Fermi energy:  5.272561;688.000000 electrons
         Band energy:***********;  BLOECHL correction:  0.000000
       DOS:  cpu time    0.0060: real time    0.0061
    CHARGE:  cpu time    1.3880: real time    1.3962
    MIXING:  cpu time    0.0022: real time    0.0805
    --------------------------------------------
      LOOP:  cpu time  201.5658: real time  202.9962

 eigenvalue-minimisations  : 27392
 total energy-change (2. order) : 0.9736594E+01  (-0.1427633E+01)
 number of electron     688.0000013 magnetization      -0.0000000
 augmentation part      280.7423402 magnetization      -0.0000000

 Broyden mixing:
  rms(total) = 0.16117E+01    rms(broyden)= 0.16116E+01
  rms(prec ) = 0.17959E+01
  weight for this iteration     100.00

 eigenvalues of (default mixing * dielectric matrix)
  average eigenvalue GAMMA=   0.7623
  0.7623

 Free energy of the ion-electron system (eV)
  ---------------------------------------------------
  alpha Z        PSCENC =      2371.19635430
  Ewald energy   TEWEN  =    -62656.99317837
  -Hartree energ DENC   =    -42914.66100980
  -exchange      EXHF   =         0.00000000
  -V(xc)+E(xc)   XCENC  =      3288.03728674
  PAW double counting   =    113254.48207799  -116970.05835218
  entropy T*S    EENTRO =         0.00000000
  eigenvalues    EBANDS =    -10721.93499583
  atomic energy  EATOM  =    114020.06510763
  Solvation  Ediel_sol  =         0.00000000
  ---------------------------------------------------
  free energy    TOTEN  =      -329.86670953 eV

  energy without entropy =     -329.86670953  energy(sigma->0) =     -329.86670953


--------------------------------------------------------------------------------------------------------




--------------------------------------- Iteration      1(   7)  ---------------------------------------


    POTLOK:  cpu time    0.1214: real time    0.1223
    SETDIJ:  cpu time    0.0128: real time    0.0129
     EDDAV:  cpu time  108.8595: real time  109.6663
 BZINTS: Fermi energy:  4.968326;688.000000 electrons
         Band energy:***********;  BLOECHL correction:  0.000000
       DOS:  cpu time    0.0051: real time    0.0051
    CHARGE:  cpu time    1.4065: real time    1.4159
    MIXING:  cpu time    0.0014: real time    0.0195
    --------------------------------------------
      LOOP:  cpu time  110.4067: real time  111.2420

 eigenvalue-minimisations  : 19200
 total energy-change (2. order) : 0.2401209E+01  (-0.1030259E+01)
 number of electron     688.0000013 magnetization       0.0000000
 augmentation part      283.0600688 magnetization       0.0000000

 Broyden mixing:
  rms(total) = 0.11114E+01    rms(broyden)= 0.11114E+01
  rms(prec ) = 0.12339E+01
  weight for this iteration     100.00

 eigenvalues of (default mixing * dielectric matrix)
  average eigenvalue GAMMA=   0.9919
  1.4407  0.5432

 Free energy of the ion-electron system (eV)
  ---------------------------------------------------
  alpha Z        PSCENC =      2371.19635430
  Ewald energy   TEWEN  =    -62656.99317837
  -Hartree energ DENC   =    -42760.39301754
  -exchange      EXHF   =         0.00000000
  -V(xc)+E(xc)   XCENC  =      3284.34149232
  PAW double counting   =    112810.87110497  -116495.21314891
  entropy T*S    EENTRO =         0.00000000
  eigenvalues    EBANDS =    -10901.34021447
  atomic energy  EATOM  =    114020.06510763
  Solvation  Ediel_sol  =         0.00000000
  ---------------------------------------------------
  free energy    TOTEN  =      -327.46550008 eV

  energy without entropy =     -327.46550008  energy(sigma->0) =     -327.46550008


--------------------------------------------------------------------------------------------------------




--------------------------------------- Iteration      1(   8)  ---------------------------------------


    POTLOK:  cpu time    0.1209: real time    0.1217
    SETDIJ:  cpu time    0.0128: real time    0.0128
     EDDAV:  cpu time  179.6907: real time  180.9041
 BZINTS: Fermi energy:  5.059031;688.000000 electrons
         Band energy:***********;  BLOECHL correction:  0.000000
       DOS:  cpu time    0.0050: real time    0.0051
    CHARGE:  cpu time    1.3870: real time    1.3953
    MIXING:  cpu time    0.0015: real time    0.0490
    --------------------------------------------
      LOOP:  cpu time  181.2179: real time  182.4880

 eigenvalue-minimisations  : 24832
 total energy-change (2. order) : 0.5771169E+00  (-0.1114259E+01)
 number of electron     688.0000013 magnetization       0.0000000
 augmentation part      282.9285626 magnetization       0.0000000

 Broyden mixing:
  rms(total) = 0.10233E+01    rms(broyden)= 0.10233E+01
  rms(prec ) = 0.12083E+01
  weight for this iteration     100.00

 eigenvalues of (default mixing * dielectric matrix)
  average eigenvalue GAMMA=   0.8212
  1.5542  0.4547  0.4547

 Free energy of the ion-electron system (eV)
  ---------------------------------------------------
  alpha Z        PSCENC =      2371.19635430
  Ewald energy   TEWEN  =    -62656.99317837
  -Hartree energ DENC   =    -42829.24861419
  -exchange      EXHF   =         0.00000000
  -V(xc)+E(xc)   XCENC  =      3287.39249676
  PAW double counting   =    112599.99770535  -116290.58490331
  entropy T*S    EENTRO =         0.00000000
  eigenvalues    EBANDS =    -10828.71335132
  atomic energy  EATOM  =    114020.06510763
  Solvation  Ediel_sol  =         0.00000000
  ---------------------------------------------------
  free energy    TOTEN  =      -326.88838316 eV

  energy without entropy =     -326.88838316  energy(sigma->0) =     -326.88838316


--------------------------------------------------------------------------------------------------------




--------------------------------------- Iteration      1(   9)  ---------------------------------------


    POTLOK:  cpu time    0.1212: real time    0.1219
    SETDIJ:  cpu time    0.0126: real time    0.0127
     EDDAV:  cpu time  133.6463: real time  134.5964
 BZINTS: Fermi energy:  5.019596;688.000000 electrons
         Band energy:***********;  BLOECHL correction:  0.000000
       DOS:  cpu time    0.0051: real time    0.0052
    CHARGE:  cpu time    1.3880: real time    1.3965
    MIXING:  cpu time    0.0013: real time    0.0014
    --------------------------------------------
      LOOP:  cpu time  135.1746: real time  136.1340

 eigenvalue-minimisations  : 20992
 total energy-change (2. order) : 0.3891263E+00  (-0.4559309E+00)
 number of electron     688.0000013 magnetization       0.0000000
 augmentation part      282.4876669 magnetization       0.0000000

 Broyden mixing:
  rms(total) = 0.34925E+00    rms(broyden)= 0.34923E+00
  rms(prec ) = 0.36185E+00
  weight for this iteration     100.00

 eigenvalues of (default mixing * dielectric matrix)
  average eigenvalue GAMMA=   0.8606
  1.9191  0.7065  0.4271  0.3898

 Free energy of the ion-electron system (eV)
  ---------------------------------------------------
  alpha Z        PSCENC =      2371.19635430
  Ewald energy   TEWEN  =    -62656.99317837
  -Hartree energ DENC   =    -42826.74406131
  -exchange      EXHF   =         0.00000000
  -V(xc)+E(xc)   XCENC  =      3286.38129300
  PAW double counting   =    112552.88025320  -116245.36403383
  entropy T*S    EENTRO =         0.00000000
  eigenvalues    EBANDS =    -10827.92099150
  atomic energy  EATOM  =    114020.06510763
  Solvation  Ediel_sol  =         0.00000000
  ---------------------------------------------------
  free energy    TOTEN  =      -326.49925689 eV

  energy without entropy =     -326.49925689  energy(sigma->0) =     -326.49925689


--------------------------------------------------------------------------------------------------------




--------------------------------------- Iteration      1(  10)  ---------------------------------------


    POTLOK:  cpu time    0.1199: real time    0.1220
    SETDIJ:  cpu time    0.0129: real time    0.0129
     EDDAV:  cpu time  172.7801: real time  173.9675
 BZINTS: Fermi energy:  5.029803;688.000000 electrons
         Band energy:***********;  BLOECHL correction:  0.000000
       DOS:  cpu time    0.0052: real time    0.0052
    CHARGE:  cpu time    1.3892: real time    1.3976
    MIXING:  cpu time    0.0014: real time    0.0014
    --------------------------------------------
      LOOP:  cpu time  174.3087: real time  175.5067

 eigenvalue-minimisations  : 24576
 total energy-change (2. order) :-0.3302768E-03  (-0.2267468E-01)
 number of electron     688.0000013 magnetization       0.0000000
 augmentation part      282.1433316 magnetization       0.0000000

 Broyden mixing:
  rms(total) = 0.17990E+00    rms(broyden)= 0.17990E+00
  rms(prec ) = 0.18655E+00
  weight for this iteration     100.00

 eigenvalues of (default mixing * dielectric matrix)
  average eigenvalue GAMMA=   0.9537
  1.7972  1.4750  0.5846  0.5846  0.3274

 Free energy of the ion-electron system (eV)
  ---------------------------------------------------
  alpha Z        PSCENC =      2371.19635430
  Ewald energy   TEWEN  =    -62656.99317837
  -Hartree energ DENC   =    -42846.71761040
  -exchange      EXHF   =         0.00000000
  -V(xc)+E(xc)   XCENC  =      3286.85518443
  PAW double counting   =    112493.63053308  -116187.43800552
  entropy T*S    EENTRO =         0.00000000
  eigenvalues    EBANDS =    -10807.09797230
  atomic energy  EATOM  =    114020.06510763
  Solvation  Ediel_sol  =         0.00000000
  ---------------------------------------------------
  free energy    TOTEN  =      -326.49958717 eV

  energy without entropy =     -326.49958717  energy(sigma->0) =     -326.49958717


--------------------------------------------------------------------------------------------------------




--------------------------------------- Iteration      1(  11)  ---------------------------------------


    POTLOK:  cpu time    0.1210: real time    0.1219
    SETDIJ:  cpu time    0.0128: real time    0.0129
     EDDAV:  cpu time  149.9133: real time  150.9542
 BZINTS: Fermi energy:  5.022379;688.000000 electrons
         Band energy:***********;  BLOECHL correction:  0.000000
       DOS:  cpu time    0.0052: real time    0.0052
    CHARGE:  cpu time    1.3886: real time    1.3976
    MIXING:  cpu time    0.0014: real time    0.0014
    --------------------------------------------
      LOOP:  cpu time  151.4423: real time  152.4933

 eigenvalue-minimisations  : 22272
 total energy-change (2. order) :-0.6997899E-02  (-0.7857521E-02)
 number of electron     688.0000013 magnetization       0.0000000
 augmentation part      282.2501059 magnetization       0.0000000

 Broyden mixing:
  rms(total) = 0.80369E-01    rms(broyden)= 0.80368E-01
  rms(prec ) = 0.83555E-01
  weight for this iteration     100.00

 eigenvalues of (default mixing * dielectric matrix)
  average eigenvalue GAMMA=   1.0932
  2.1151  2.1151  0.7692  0.6194  0.6194  0.3213

 Free energy of the ion-electron system (eV)
  ---------------------------------------------------
  alpha Z        PSCENC =      2371.19635430
  Ewald energy   TEWEN  =    -62656.99317837
  -Hartree energ DENC   =    -42836.97617646
  -exchange      EXHF   =         0.00000000
  -V(xc)+E(xc)   XCENC  =      3286.50110355
  PAW double counting   =    112345.87381826  -116037.25212117
  entropy T*S    EENTRO =         0.00000000
  eigenvalues    EBANDS =    -10818.92149280
  atomic energy  EATOM  =    114020.06510763
  Solvation  Ediel_sol  =         0.00000000
  ---------------------------------------------------
  free energy    TOTEN  =      -326.50658507 eV

  energy without entropy =     -326.50658507  energy(sigma->0) =     -326.50658507


--------------------------------------------------------------------------------------------------------




--------------------------------------- Iteration      1(  12)  ---------------------------------------


    POTLOK:  cpu time    0.1209: real time    0.1217
    SETDIJ:  cpu time    0.0127: real time    0.0128
     EDDAV:  cpu time  158.1264: real time  159.2025
 BZINTS: Fermi energy:  5.023646;688.000000 electrons
         Band energy:***********;  BLOECHL correction:  0.000000
       DOS:  cpu time    0.0051: real time    0.0051
    CHARGE:  cpu time    1.3914: real time    1.4008
    MIXING:  cpu time    0.0015: real time    0.0015
    --------------------------------------------
      LOOP:  cpu time  159.6582: real time  160.7444

 eigenvalue-minimisations  : 22528
 total energy-change (2. order) :-0.6316135E-02  (-0.2319730E-02)
 number of electron     688.0000013 magnetization       0.0000000
 augmentation part      282.2564218 magnetization       0.0000000

 Broyden mixing:
  rms(total) = 0.29192E-01    rms(broyden)= 0.29191E-01
  rms(prec ) = 0.31005E-01
  weight for this iteration     100.00

 eigenvalues of (default mixing * dielectric matrix)
  average eigenvalue GAMMA=   1.0875
  2.1979  2.1979  0.3214  0.9642  0.6147  0.6147  0.7021

 Free energy of the ion-electron system (eV)
  ---------------------------------------------------
  alpha Z        PSCENC =      2371.19635430
  Ewald energy   TEWEN  =    -62656.99317837
  -Hartree energ DENC   =    -42838.21105291
  -exchange      EXHF   =         0.00000000
  -V(xc)+E(xc)   XCENC  =      3286.55005195
  PAW double counting   =    112236.38810901  -115927.98400822
  entropy T*S    EENTRO =         0.00000000
  eigenvalues    EBANDS =    -10817.52428458
  atomic energy  EATOM  =    114020.06510763
  Solvation  Ediel_sol  =         0.00000000
  ---------------------------------------------------
  free energy    TOTEN  =      -326.51290120 eV

  energy without entropy =     -326.51290120  energy(sigma->0) =     -326.51290120


--------------------------------------------------------------------------------------------------------




--------------------------------------- Iteration      1(  13)  ---------------------------------------


    POTLOK:  cpu time    0.1211: real time    0.1218
    SETDIJ:  cpu time    0.0130: real time    0.0130
     EDDAV:  cpu time  125.3341: real time  126.2181
 BZINTS: Fermi energy:  5.023316;688.000000 electrons
         Band energy:***********;  BLOECHL correction:  0.000000
       DOS:  cpu time    0.0052: real time    0.0052
    CHARGE:  cpu time    1.3956: real time    1.4040
    MIXING:  cpu time    0.0016: real time    0.0016
    --------------------------------------------
      LOOP:  cpu time  126.8706: real time  127.7638

 eigenvalue-minimisations  : 19712
 total energy-change (2. order) :-0.9195354E-03  (-0.2637246E-03)
 number of electron     688.0000013 magnetization      -0.0000000
 augmentation part      282.2592854 magnetization      -0.0000000

 Broyden mixing:
  rms(total) = 0.18504E-01    rms(broyden)= 0.18504E-01
  rms(prec ) = 0.19515E-01
  weight for this iteration     100.00

 eigenvalues of (default mixing * dielectric matrix)
  average eigenvalue GAMMA=   1.1059
  2.2422  2.2422  1.0794  1.0794  0.3213  0.6042  0.6042  0.6741

 Free energy of the ion-electron system (eV)
  ---------------------------------------------------
  alpha Z        PSCENC =      2371.19635430
  Ewald energy   TEWEN  =    -62656.99317837
  -Hartree energ DENC   =    -42837.86154047
  -exchange      EXHF   =         0.00000000
  -V(xc)+E(xc)   XCENC  =      3286.55525010
  PAW double counting   =    112199.77364921  -115891.25250453
  entropy T*S    EENTRO =         0.00000000
  eigenvalues    EBANDS =    -10817.99695860
  atomic energy  EATOM  =    114020.06510763
  Solvation  Ediel_sol  =         0.00000000
  ---------------------------------------------------
  free energy    TOTEN  =      -326.51382074 eV

  energy without entropy =     -326.51382074  energy(sigma->0) =     -326.51382074


--------------------------------------------------------------------------------------------------------




--------------------------------------- Iteration      1(  14)  ---------------------------------------


    POTLOK:  cpu time    0.1196: real time    0.1204
    SETDIJ:  cpu time    0.0127: real time    0.0127
     EDDAV:  cpu time  184.3079: real time  185.5200
 BZINTS: Fermi energy:  5.023296;688.000000 electrons
         Band energy:***********;  BLOECHL correction:  0.000000
       DOS:  cpu time    0.0051: real time    0.0052
    CHARGE:  cpu time    1.3878: real time    1.3962
    MIXING:  cpu time    0.0017: real time    0.0017
    --------------------------------------------
      LOOP:  cpu time  185.8348: real time  187.0563

 eigenvalue-minimisations  : 24320
 total energy-change (2. order) :-0.5840185E-03  (-0.1542500E-03)
 number of electron     688.0000013 magnetization       0.0000000
 augmentation part      282.2561678 magnetization       0.0000000

 Broyden mixing:
  rms(total) = 0.92430E-02    rms(broyden)= 0.92425E-02
  rms(prec ) = 0.96248E-02
  weight for this iteration     100.00

 eigenvalues of (default mixing * dielectric matrix)
  average eigenvalue GAMMA=   1.1699
  2.3954  2.3954  1.4086  1.4086  0.3213  0.6009  0.6009  0.7280  0.6702

 Free energy of the ion-electron system (eV)
  ---------------------------------------------------
  alpha Z        PSCENC =      2371.19635430
  Ewald energy   TEWEN  =    -62656.99317837
  -Hartree energ DENC   =    -42838.26542003
  -exchange      EXHF   =         0.00000000
  -V(xc)+E(xc)   XCENC  =      3286.57155001
  PAW double counting   =    112180.16812540  -115871.86017614
  entropy T*S    EENTRO =         0.00000000
  eigenvalues    EBANDS =    -10817.39676755
  atomic energy  EATOM  =    114020.06510763
  Solvation  Ediel_sol  =         0.00000000
  ---------------------------------------------------
  free energy    TOTEN  =      -326.51440476 eV

  energy without entropy =     -326.51440476  energy(sigma->0) =     -326.51440476


--------------------------------------------------------------------------------------------------------




--------------------------------------- Iteration      1(  15)  ---------------------------------------


    POTLOK:  cpu time    0.1199: real time    0.1219
    SETDIJ:  cpu time    0.0128: real time    0.0129
     EDDAV:  cpu time  118.2630: real time  119.1051
 BZINTS: Fermi energy:  5.023011;688.000000 electrons
         Band energy:***********;  BLOECHL correction:  0.000000
       DOS:  cpu time    0.0052: real time    0.0052
    CHARGE:  cpu time    1.5614: real time    1.5710
    MIXING:  cpu time    0.0019: real time    0.0020
    --------------------------------------------
      LOOP:  cpu time  119.9642: real time  120.8180

 eigenvalue-minimisations  : 18944
 total energy-change (2. order) :-0.2751172E-03  (-0.6708539E-04)
 number of electron     688.0000013 magnetization       0.0000000
 augmentation part      282.2547450 magnetization       0.0000000

 Broyden mixing:
  rms(total) = 0.46535E-02    rms(broyden)= 0.46530E-02
  rms(prec ) = 0.49809E-02
  weight for this iteration     100.00

 eigenvalues of (default mixing * dielectric matrix)
  average eigenvalue GAMMA=   1.1796
  2.5894  2.3339  1.7489  1.1311  1.1311  0.3213  0.6028  0.6028  0.7048  0.6302

 Free energy of the ion-electron system (eV)
  ---------------------------------------------------
  alpha Z        PSCENC =      2371.19635430
  Ewald energy   TEWEN  =    -62656.99317837
  -Hartree energ DENC   =    -42838.25884939
  -exchange      EXHF   =         0.00000000
  -V(xc)+E(xc)   XCENC  =      3286.56897424
  PAW double counting   =    112172.38995841  -115864.06007765
  entropy T*S    EENTRO =         0.00000000
  eigenvalues    EBANDS =    -10817.42296904
  atomic energy  EATOM  =    114020.06510763
  Solvation  Ediel_sol  =         0.00000000
  ---------------------------------------------------
  free energy    TOTEN  =      -326.51467987 eV

  energy without entropy =     -326.51467987  energy(sigma->0) =     -326.51467987


--------------------------------------------------------------------------------------------------------




--------------------------------------- Iteration      1(  16)  ---------------------------------------


    POTLOK:  cpu time    0.1342: real time    0.1350
    SETDIJ:  cpu time    0.0140: real time    0.0140
     EDDAV:  cpu time  170.5010: real time  171.6392
 BZINTS: Fermi energy:  5.022813;688.000000 electrons
         Band energy:***********;  BLOECHL correction:  0.000000
       DOS:  cpu time    0.0052: real time    0.0052
    CHARGE:  cpu time    1.3873: real time    1.3957
    MIXING:  cpu time    0.0020: real time    0.0161
    --------------------------------------------
      LOOP:  cpu time  172.0436: real time  173.2053

 eigenvalue-minimisations  : 23552
 total energy-change (2. order) :-0.9357469E-04  (-0.2361292E-04)
 number of electron     688.0000013 magnetization       0.0000000
 augmentation part      282.2586487 magnetization       0.0000000

 Broyden mixing:
  rms(total) = 0.29922E-02    rms(broyden)= 0.29918E-02
  rms(prec ) = 0.31804E-02
  weight for this iteration     100.00

 eigenvalues of (default mixing * dielectric matrix)
  average eigenvalue GAMMA=   1.2314
  2.8665  2.1855  2.1002  1.3300  1.3300  0.3213  0.8838  0.6019  0.6019  0.7085
  0.6163

 Free energy of the ion-electron system (eV)
  ---------------------------------------------------
  alpha Z        PSCENC =      2371.19635430
  Ewald energy   TEWEN  =    -62656.99317837
  -Hartree energ DENC   =    -42838.09292678
  -exchange      EXHF   =         0.00000000
  -V(xc)+E(xc)   XCENC  =      3286.56917790
  PAW double counting   =    112170.16288687  -115861.81085581
  entropy T*S    EENTRO =         0.00000000
  eigenvalues    EBANDS =    -10817.61133919
  atomic energy  EATOM  =    114020.06510763
  Solvation  Ediel_sol  =         0.00000000
  ---------------------------------------------------
  free energy    TOTEN  =      -326.51477345 eV

  energy without entropy =     -326.51477345  energy(sigma->0) =     -326.51477345


--------------------------------------------------------------------------------------------------------




--------------------------------------- Iteration      1(  17)  ---------------------------------------


    POTLOK:  cpu time    0.1213: real time    0.1221
    SETDIJ:  cpu time    0.0127: real time    0.0128
     EDDAV:  cpu time  125.9391: real time  126.8137
 BZINTS: Fermi energy:  5.022501;688.000000 electrons
         Band energy:***********;  BLOECHL correction:  0.000000
       DOS:  cpu time    0.0052: real time    0.0052
    CHARGE:  cpu time    1.3868: real time    1.3951
    MIXING:  cpu time    0.0018: real time    0.0018
    --------------------------------------------
      LOOP:  cpu time  127.4670: real time  128.3507

 eigenvalue-minimisations  : 19712
 total energy-change (2. order) :-0.5453019E-04  (-0.2285182E-04)
 number of electron     688.0000013 magnetization      -0.0000000
 augmentation part      282.2576887 magnetization      -0.0000000

 Broyden mixing:
  rms(total) = 0.17958E-02    rms(broyden)= 0.17954E-02
  rms(prec ) = 0.19346E-02
  weight for this iteration     100.00

 eigenvalues of (default mixing * dielectric matrix)
  average eigenvalue GAMMA=   1.3331
  3.8142  2.3100  2.3100  1.4816  1.4816  0.3213  1.0179  0.6029  0.6029  0.7590
  0.6851  0.6113

 Free energy of the ion-electron system (eV)
  ---------------------------------------------------
  alpha Z        PSCENC =      2371.19635430
  Ewald energy   TEWEN  =    -62656.99317837
  -Hartree energ DENC   =    -42838.17370193
  -exchange      EXHF   =         0.00000000
  -V(xc)+E(xc)   XCENC  =      3286.57187437
  PAW double counting   =    112171.64835761  -115863.32200653
  entropy T*S    EENTRO =         0.00000000
  eigenvalues    EBANDS =    -10817.50763505
  atomic energy  EATOM  =    114020.06510763
  Solvation  Ediel_sol  =         0.00000000
  ---------------------------------------------------
  free energy    TOTEN  =      -326.51482798 eV

  energy without entropy =     -326.51482798  energy(sigma->0) =     -326.51482798


--------------------------------------------------------------------------------------------------------




--------------------------------------- Iteration      1(  18)  ---------------------------------------


    POTLOK:  cpu time    0.1209: real time    0.1218
    SETDIJ:  cpu time    0.0130: real time    0.0130
     EDDAV:  cpu time  137.8529: real time  138.8089
 BZINTS: Fermi energy:  5.022147;688.000000 electrons
         Band energy:***********;  BLOECHL correction:  0.000000
       DOS:  cpu time    0.0052: real time    0.0052
    CHARGE:  cpu time    1.3843: real time    1.3929
    MIXING:  cpu time    0.0020: real time    0.0020
    --------------------------------------------
      LOOP:  cpu time  139.3783: real time  140.3439

 eigenvalue-minimisations  : 20480
 total energy-change (2. order) :-0.1497910E-04  (-0.1051973E-04)
 number of electron     688.0000013 magnetization      -0.0000000
 augmentation part      282.2574609 magnetization      -0.0000000

 Broyden mixing:
  rms(total) = 0.73488E-03    rms(broyden)= 0.73430E-03
  rms(prec ) = 0.78542E-03
  weight for this iteration     100.00

 eigenvalues of (default mixing * dielectric matrix)
  average eigenvalue GAMMA=   1.3366
  4.2149  2.3697  2.3697  1.6573  1.1902  1.1902  0.3213  0.8569  0.6038  0.6038
  0.7317  0.6366  0.6295

 Free energy of the ion-electron system (eV)
  ---------------------------------------------------
  alpha Z        PSCENC =      2371.19635430
  Ewald energy   TEWEN  =    -62656.99317837
  -Hartree energ DENC   =    -42838.14033721
  -exchange      EXHF   =         0.00000000
  -V(xc)+E(xc)   XCENC  =      3286.56975153
  PAW double counting   =    112173.55232807  -115865.21674750
  entropy T*S    EENTRO =         0.00000000
  eigenvalues    EBANDS =    -10817.54812138
  atomic energy  EATOM  =    114020.06510763
  Solvation  Ediel_sol  =         0.00000000
  ---------------------------------------------------
  free energy    TOTEN  =      -326.51484296 eV

  energy without entropy =     -326.51484296  energy(sigma->0) =     -326.51484296


--------------------------------------------------------------------------------------------------------




--------------------------------------- Iteration      1(  19)  ---------------------------------------


    POTLOK:  cpu time    0.1206: real time    0.1214
    SETDIJ:  cpu time    0.0128: real time    0.0128
     EDDAV:  cpu time  168.1235: real time  169.2549
 BZINTS: Fermi energy:  5.021769;688.000000 electrons
         Band energy:***********;  BLOECHL correction:  0.000000
       DOS:  cpu time    0.0052: real time    0.0052
    CHARGE:  cpu time    1.3851: real time    1.3943
    MIXING:  cpu time    0.0021: real time    0.0021
    --------------------------------------------
      LOOP:  cpu time  169.6492: real time  170.7906

 eigenvalue-minimisations  : 24064
 total energy-change (2. order) :-0.1664230E-05  (-0.8585681E-06)
 number of electron     688.0000013 magnetization       0.0000000
 augmentation part      282.2575529 magnetization       0.0000000

 Broyden mixing:
[...]
   -.393E+02 0.454E+02 -.223E+01   0.401E+02 -.457E+02 0.226E+01   -.785E+00 0.279E+00 -.285E-01   -.804E-05 0.987E-05 0.818E-06
   -.393E+02 0.454E+02 -.223E+01   0.401E+02 -.457E+02 0.226E+01   -.785E+00 0.279E+00 -.285E-01   -.805E-05 0.987E-05 0.820E-06
   -.393E+02 0.454E+02 -.223E+01   0.401E+02 -.457E+02 0.226E+01   -.785E+00 0.279E+00 -.285E-01   -.804E-05 0.985E-05 0.818E-06
   -.393E+02 0.454E+02 -.223E+01   0.401E+02 -.457E+02 0.226E+01   -.785E+00 0.279E+00 -.285E-01   -.805E-05 0.985E-05 0.820E-06
   0.393E+02 0.454E+02 0.223E+01   -.401E+02 -.457E+02 -.226E+01   0.785E+00 0.279E+00 0.285E-01   0.805E-05 0.986E-05 -.819E-06
   0.393E+02 0.454E+02 0.223E+01   -.401E+02 -.457E+02 -.226E+01   0.785E+00 0.279E+00 0.285E-01   0.804E-05 0.986E-05 -.819E-06
   0.393E+02 0.454E+02 0.223E+01   -.401E+02 -.457E+02 -.226E+01   0.785E+00 0.279E+00 0.285E-01   0.805E-05 0.986E-05 -.819E-06
   0.393E+02 0.454E+02 0.223E+01   -.401E+02 -.457E+02 -.226E+01   0.785E+00 0.279E+00 0.285E-01   0.804E-05 0.986E-05 -.819E-06
   -.117E-08 -.137E+02 -.562E-07   -.103E-12 0.144E+02 0.391E-13   0.472E-24 -.633E+00 -.724E-24   -.725E-10 -.208E-05 -.346E-09
   -.117E-08 -.137E+02 -.562E-07   -.711E-13 0.144E+02 0.568E-13   -.103E-23 -.633E+00 0.827E-24   0.581E-10 -.208E-05 0.345E-09
   -.117E-08 -.137E+02 -.562E-07   -.853E-13 0.144E+02 0.853E-13   0.666E-24 -.633E+00 -.620E-24   -.725E-10 -.210E-05 -.346E-09
   -.117E-08 -.137E+02 -.562E-07   -.675E-13 0.144E+02 0.320E-13   -.210E-23 -.633E+00 -.931E-24   0.580E-10 -.210E-05 0.345E-09
   -.376E-07 0.735E+02 -.222E-06   -.338E-13 -.745E+02 -.311E-13   0.197E-24 0.106E+01 -.569E-24   0.808E-08 0.252E-04 -.494E-09
   -.376E-07 0.735E+02 -.222E-06   -.213E-13 -.745E+02 -.782E-13   -.284E-24 0.106E+01 -.114E-23   -.807E-08 0.252E-04 0.492E-09
   -.376E-07 0.735E+02 -.222E-06   -.426E-13 -.745E+02 -.675E-13   0.155E-23 0.106E+01 0.103E-23   0.808E-08 0.252E-04 -.494E-09
   -.376E-07 0.735E+02 -.222E-06   -.284E-13 -.745E+02 -.568E-13   0.246E-24 0.106E+01 0.724E-24   -.807E-08 0.252E-04 0.492E-09
   0.565E+01 -.409E+02 0.720E+01   -.561E+01 0.393E+02 -.736E+01   -.384E-01 0.159E+01 0.147E+00   -.560E-05 0.144E-04 0.204E-05
   0.565E+01 -.409E+02 0.720E+01   -.561E+01 0.393E+02 -.736E+01   -.384E-01 0.159E+01 0.147E+00   -.563E-05 0.144E-04 0.204E-05
   0.565E+01 -.409E+02 0.720E+01   -.561E+01 0.393E+02 -.736E+01   -.384E-01 0.159E+01 0.147E+00   -.560E-05 0.144E-04 0.204E-05
   0.565E+01 -.409E+02 0.720E+01   -.561E+01 0.393E+02 -.736E+01   -.384E-01 0.159E+01 0.147E+00   -.563E-05 0.144E-04 0.204E-05
   -.565E+01 -.409E+02 -.720E+01   0.561E+01 0.393E+02 0.736E+01   0.384E-01 0.159E+01 -.147E+00   0.563E-05 0.144E-04 -.204E-05
   -.565E+01 -.409E+02 -.720E+01   0.561E+01 0.393E+02 0.736E+01   0.384E-01 0.159E+01 -.147E+00   0.560E-05 0.144E-04 -.204E-05
   -.565E+01 -.409E+02 -.720E+01   0.561E+01 0.393E+02 0.736E+01   0.384E-01 0.159E+01 -.147E+00   0.563E-05 0.144E-04 -.204E-05
   -.565E+01 -.409E+02 -.720E+01   0.561E+01 0.393E+02 0.736E+01   0.384E-01 0.159E+01 -.147E+00   0.560E-05 0.144E-04 -.204E-05
   0.565E+01 -.409E+02 0.720E+01   -.561E+01 0.393E+02 -.736E+01   -.384E-01 0.159E+01 0.147E+00   -.559E-05 0.144E-04 0.204E-05
   0.565E+01 -.409E+02 0.720E+01   -.561E+01 0.393E+02 -.736E+01   -.384E-01 0.159E+01 0.147E+00   -.563E-05 0.144E-04 0.204E-05
   0.565E+01 -.409E+02 0.720E+01   -.561E+01 0.393E+02 -.736E+01   -.384E-01 0.159E+01 0.147E+00   -.559E-05 0.144E-04 0.204E-05
   0.565E+01 -.409E+02 0.720E+01   -.561E+01 0.393E+02 -.736E+01   -.384E-01 0.159E+01 0.147E+00   -.563E-05 0.144E-04 0.204E-05
   -.565E+01 -.409E+02 -.720E+01   0.561E+01 0.393E+02 0.736E+01   0.384E-01 0.159E+01 -.147E+00   0.563E-05 0.144E-04 -.204E-05
   -.565E+01 -.409E+02 -.720E+01   0.561E+01 0.393E+02 0.736E+01   0.384E-01 0.159E+01 -.147E+00   0.560E-05 0.144E-04 -.204E-05
   -.565E+01 -.409E+02 -.720E+01   0.561E+01 0.393E+02 0.736E+01   0.384E-01 0.159E+01 -.147E+00   0.563E-05 0.144E-04 -.204E-05
   -.565E+01 -.409E+02 -.720E+01   0.561E+01 0.393E+02 0.736E+01   0.384E-01 0.159E+01 -.147E+00   0.560E-05 0.144E-04 -.204E-05
   -.119E+02 -.385E+02 0.920E+01   0.118E+02 0.365E+02 -.940E+01   0.169E+00 0.206E+01 0.164E+00   0.627E-05 0.810E-05 0.171E-04
   -.119E+02 -.385E+02 0.920E+01   0.118E+02 0.365E+02 -.940E+01   0.169E+00 0.206E+01 0.164E+00   0.624E-05 0.810E-05 0.171E-04
   -.119E+02 -.385E+02 0.920E+01   0.118E+02 0.365E+02 -.940E+01   0.169E+00 0.206E+01 0.164E+00   0.627E-05 0.806E-05 0.171E-04
   -.119E+02 -.385E+02 0.920E+01   0.118E+02 0.365E+02 -.940E+01   0.169E+00 0.206E+01 0.164E+00   0.624E-05 0.806E-05 0.171E-04
   0.119E+02 -.385E+02 -.920E+01   -.118E+02 0.365E+02 0.940E+01   -.169E+00 0.206E+01 -.164E+00   -.624E-05 0.810E-05 -.171E-04
   0.119E+02 -.385E+02 -.920E+01   -.118E+02 0.365E+02 0.940E+01   -.169E+00 0.206E+01 -.164E+00   -.627E-05 0.810E-05 -.171E-04
   0.119E+02 -.385E+02 -.920E+01   -.118E+02 0.365E+02 0.940E+01   -.169E+00 0.206E+01 -.164E+00   -.624E-05 0.806E-05 -.171E-04
   0.119E+02 -.385E+02 -.920E+01   -.118E+02 0.365E+02 0.940E+01   -.169E+00 0.206E+01 -.164E+00   -.627E-05 0.806E-05 -.171E-04
   -.119E+02 -.385E+02 0.920E+01   0.118E+02 0.365E+02 -.940E+01   0.169E+00 0.206E+01 0.164E+00   0.627E-05 0.809E-05 0.171E-04
   -.119E+02 -.385E+02 0.920E+01   0.118E+02 0.365E+02 -.940E+01   0.169E+00 0.206E+01 0.164E+00   0.624E-05 0.809E-05 0.171E-04
   -.119E+02 -.385E+02 0.920E+01   0.118E+02 0.365E+02 -.940E+01   0.169E+00 0.206E+01 0.164E+00   0.627E-05 0.806E-05 0.171E-04
   -.119E+02 -.385E+02 0.920E+01   0.118E+02 0.365E+02 -.940E+01   0.169E+00 0.206E+01 0.164E+00   0.624E-05 0.806E-05 0.171E-04
   0.119E+02 -.385E+02 -.920E+01   -.118E+02 0.365E+02 0.940E+01   -.169E+00 0.206E+01 -.164E+00   -.624E-05 0.809E-05 -.171E-04
   0.119E+02 -.385E+02 -.920E+01   -.118E+02 0.365E+02 0.940E+01   -.169E+00 0.206E+01 -.164E+00   -.627E-05 0.809E-05 -.171E-04
   0.119E+02 -.385E+02 -.920E+01   -.118E+02 0.365E+02 0.940E+01   -.169E+00 0.206E+01 -.164E+00   -.624E-05 0.806E-05 -.171E-04
   0.119E+02 -.385E+02 -.920E+01   -.118E+02 0.365E+02 0.940E+01   -.169E+00 0.206E+01 -.164E+00   -.627E-05 0.806E-05 -.171E-04
 -----------------------------------------------------------------------------------------------
   0.124E-04 -.663E+02 0.320E-03   0.361E-12 -.242E-12 -.263E-12   0.261E-14 0.663E+02 -.250E-15   0.793E-11 0.702E-03 0.184E-10
 
 
 POSITION                                       TOTAL-FORCE (eV/Angst)
 -----------------------------------------------------------------------------------
      1.40897      1.23236      1.39103         0.000530     -0.024349      0.004223
      6.65293      1.23236      1.71181         0.000530     -0.024349      0.004223
      1.40897      6.50183      1.39103         0.000530     -0.024349      0.004223
      6.65293      6.50183      1.71181         0.000530     -0.024349      0.004223
      3.99378      3.86709      1.52554        -0.000530     -0.024349     -0.004223
      9.23774      3.86709      1.84632        -0.000530     -0.024349     -0.004223
      3.99378      9.13656      1.52554        -0.000530     -0.024349     -0.004223
      9.23774      9.13656      1.84632        -0.000530     -0.024349     -0.004223
      1.86675      3.89937      9.16543         0.000000     -0.010794     -0.000000
      7.11071      3.89937      9.48621         0.000000     -0.010794     -0.000000
      1.86675      9.16884      9.16543         0.000000     -0.010794     -0.000000
      7.11071      9.16884      9.48621         0.000000     -0.010794     -0.000000
      4.48873      1.27531      9.32582         0.000000     -0.011111     -0.000000
      9.73269      1.27531      9.64660         0.000000     -0.011111     -0.000000
      4.48873      6.54477      9.32582         0.000000     -0.011111     -0.000000
      9.73269      6.54477      9.64660         0.000000     -0.011111     -0.000000
      1.68938      1.23236      6.55671        -0.000530     -0.024349     -0.004223
      6.93334      1.23236      6.87749        -0.000530     -0.024349     -0.004223
      1.68938      6.50183      6.55671        -0.000530     -0.024349     -0.004223
      6.93334      6.50183      6.87749        -0.000530     -0.024349     -0.004223
      4.34853      3.86709      6.74298         0.000530     -0.024349      0.004223
      9.59249      3.86709      7.06376         0.000530     -0.024349      0.004223
      4.34853      9.13656      6.74298         0.000530     -0.024349      0.004223
      9.59249      9.13656      7.06376         0.000530     -0.024349      0.004223
      4.17115      1.26464      4.13426         0.000000     -0.010794     -0.000000
      9.41512      1.26464      4.45504         0.000000     -0.010794     -0.000000
      4.17115      6.53411      4.13426         0.000000     -0.010794     -0.000000
      9.41512      6.53411      4.45504         0.000000     -0.010794     -0.000000
      1.54917      3.91004      3.97387         0.000000     -0.011111     -0.000000
      6.79314      3.91004      4.29465         0.000000     -0.011111     -0.000000
      1.54917      9.17951      3.97387         0.000000     -0.011111     -0.000000
      6.79314      9.17951      4.29465         0.000000     -0.011111     -0.000000
     10.76962      0.06612      5.83172         0.006141      0.018154     -0.013396
      5.52566      0.06612      5.51094         0.006141      0.018154     -0.013396
     10.76962      5.33559      5.83172         0.006141      0.018154     -0.013396
      5.52566      5.33559      5.51094         0.006141      0.018154     -0.013396
      2.81665      0.06612      2.75758        -0.006141      0.018154      0.013396
      8.06062      0.06612      3.07836        -0.006141      0.018154      0.013396
      2.81665      5.33559      2.75758        -0.006141      0.018154      0.013396
      8.06062      5.33559      3.07836        -0.006141      0.018154      0.013396
      2.58610      2.70086      0.15898         0.006141      0.018154     -0.013396
      7.83006      2.70086      0.47977         0.006141      0.018154     -0.013396
      2.58610      7.97032      0.15898         0.006141      0.018154     -0.013396
      7.83006      7.97032      0.47977         0.006141      0.018154     -0.013396
      0.51225      2.70086      7.78875        -0.006141      0.018154      0.013396
      5.75621      2.70086      8.10953        -0.006141      0.018154      0.013396
      0.51225      7.97032      7.78875        -0.006141      0.018154      0.013396
      5.75621      7.97032      8.10953        -0.006141      0.018154      0.013396
     10.46590      0.06628      0.65633         0.013345      0.017148     -0.033434
      5.22194      0.06628      0.33554         0.013345      0.017148     -0.033434
     10.46590      5.33575      0.65633         0.013345      0.017148     -0.033434
      5.22194      5.33575      0.33554         0.013345      0.017148     -0.033434
      3.12037      0.06628      7.93298        -0.013345      0.017148      0.033434
      8.36433      0.06628      8.25376        -0.013345      0.017148      0.033434
      3.12037      5.33575      7.93298        -0.013345      0.017148      0.033434
      8.36433      5.33575      8.25376        -0.013345      0.017148      0.033434
      2.91754      2.70101      5.36671         0.013345      0.017148     -0.033434
      8.16150      2.70101      5.68750         0.013345      0.017148     -0.033434
      2.91754      7.97048      5.36671         0.013345      0.017148     -0.033434
      8.16150      7.97048      5.68750         0.013345      0.017148     -0.033434
      0.18081      2.70101      2.58102        -0.013345      0.017148      0.033434
      5.42477      2.70101      2.90181        -0.013345      0.017148      0.033434
      0.18081      7.97048      2.58102        -0.013345      0.017148      0.033434
      5.42477      7.97048      2.90181        -0.013345      0.017148      0.033434
 -----------------------------------------------------------------------------------
    total drift:                                0.000012     -0.031968      0.000320


--------------------------------------------------------------------------------------------------------



  FREE ENERGIE OF THE ION-ELECTRON SYSTEM (eV)
  ---------------------------------------------------
  free  energy   TOTEN  =      -326.51484570 eV

  energy  without entropy=     -326.51484570  energy(sigma->0) =     -326.51484570
 


--------------------------------------------------------------------------------------------------------


    POTLOK:  cpu time    0.1290: real time    0.1296


--------------------------------------------------------------------------------------------------------


 writing wavefunctions
     LOOP+:  cpu time 3732.3729: real time 3758.7473
    4ORBIT:  cpu time    0.0000: real time    0.0000
 


 total charge     
 
# of ion       s       p       d       tot
------------------------------------------
    1        1.316   2.406   0.000   3.721
    2        1.316   2.406   0.000   3.721
    3        1.316   2.406   0.000   3.721
    4        1.316   2.406   0.000   3.721
    5        1.316   2.406   0.000   3.721
    6        1.316   2.406   0.000   3.721
    7        1.316   2.406   0.000   3.721
    8        1.316   2.406   0.000   3.721
    9        1.317   2.398   0.000   3.716
   10        1.317   2.398   0.000   3.716
   11        1.317   2.398   0.000   3.716
   12        1.317   2.398   0.000   3.716
   13        1.313   2.411   0.000   3.723
   14        1.313   2.411   0.000   3.723
   15        1.313   2.411   0.000   3.723
   16        1.313   2.411   0.000   3.723
   17        1.316   2.406   0.000   3.721
   18        1.316   2.406   0.000   3.721
   19        1.316   2.406   0.000   3.721
   20        1.316   2.406   0.000   3.721
   21        1.316   2.406   0.000   3.721
   22        1.316   2.406   0.000   3.721
   23        1.316   2.406   0.000   3.721
   24        1.316   2.406   0.000   3.721
   25        1.317   2.398   0.000   3.716
   26        1.317   2.398   0.000   3.716
   27        1.317   2.398   0.000   3.716
   28        1.317   2.398   0.000   3.716
   29        1.313   2.411   0.000   3.723
   30        1.313   2.411   0.000   3.723
   31        1.313   2.411   0.000   3.723
   32        1.313   2.411   0.000   3.723
   33        0.258   6.200   8.917  15.375
   34        0.258   6.200   8.917  15.375
   35        0.258   6.200   8.917  15.375
   36        0.258   6.200   8.917  15.375
   37        0.258   6.200   8.917  15.375
   38        0.258   6.200   8.917  15.375
   39        0.258   6.200   8.917  15.375
   40        0.258   6.200   8.917  15.375
   41        0.258   6.200   8.917  15.375
   42        0.258   6.200   8.917  15.375
   43        0.258   6.200   8.917  15.375
   44        0.258   6.200   8.917  15.375
   45        0.258   6.200   8.917  15.375
   46        0.258   6.200   8.917  15.375
   47        0.258   6.200   8.917  15.375
   48        0.258   6.200   8.917  15.375
   49        0.347   6.347   5.826  12.519
   50        0.347   6.347   5.826  12.519
   51        0.347   6.347   5.826  12.519
   52        0.347   6.347   5.826  12.519
   53        0.347   6.347   5.826  12.519
   54        0.347   6.347   5.826  12.519
   55        0.347   6.347   5.826  12.519
   56        0.347   6.347   5.826  12.519
   57        0.347   6.347   5.826  12.519
   58        0.347   6.347   5.826  12.519
   59        0.347   6.347   5.826  12.519
   60        0.347   6.347   5.826  12.519
   61        0.347   6.347   5.826  12.519
   62        0.347   6.347   5.826  12.519
   63        0.347   6.347   5.826  12.519
   64        0.347   6.347   5.826  12.519
--------------------------------------------------
tot         51.765 277.712 235.883 565.360
 


 magnetization (x)
 
# of ion       s       p       d       tot
------------------------------------------
    1       -0.000  -0.030   0.000  -0.030
    2       -0.000  -0.030   0.000  -0.030
    3       -0.000  -0.030   0.000  -0.030
    4       -0.000  -0.030   0.000  -0.030
    5        0.000   0.030   0.000   0.030
    6        0.000   0.030   0.000   0.030
    7        0.000   0.030   0.000   0.030
    8        0.000   0.030   0.000   0.030
    9       -0.000   0.000   0.000   0.000
   10        0.000  -0.000   0.000  -0.000
   11       -0.000   0.000   0.000   0.000
   12        0.000  -0.000   0.000  -0.000
   13        0.000  -0.000   0.000  -0.000
   14        0.000  -0.000   0.000  -0.000
   15        0.000  -0.000   0.000  -0.000
   16        0.000  -0.000   0.000  -0.000
   17        0.000   0.030   0.000   0.030
   18        0.000   0.030   0.000   0.030
   19        0.000   0.030   0.000   0.030
   20        0.000   0.030   0.000   0.030
   21       -0.000  -0.030   0.000  -0.030
   22       -0.000  -0.030   0.000  -0.030
   23       -0.000  -0.030   0.000  -0.030
   24       -0.000  -0.030   0.000  -0.030
   25        0.000  -0.000   0.000  -0.000
   26        0.000  -0.000   0.000  -0.000
   27        0.000  -0.000   0.000  -0.000
   28       -0.000  -0.000   0.000  -0.000
   29        0.000  -0.000   0.000  -0.000
   30        0.000  -0.000   0.000  -0.000
   31        0.000  -0.000   0.000  -0.000
   32        0.000  -0.000   0.000  -0.000
   33        0.000   0.001  -0.005  -0.004
   34        0.000   0.001  -0.005  -0.004
   35        0.000   0.001  -0.005  -0.004
   36        0.000   0.001  -0.005  -0.004
   37       -0.000  -0.001   0.005   0.004
   38       -0.000  -0.001   0.005   0.004
   39       -0.000  -0.001   0.005   0.004
   40       -0.000  -0.001   0.005   0.004
   41        0.000   0.001  -0.005  -0.004
   42        0.000   0.001  -0.005  -0.004
   43        0.000   0.001  -0.005  -0.004
   44        0.000   0.001  -0.005  -0.004
   45       -0.000  -0.001   0.005   0.004
   46       -0.000  -0.001   0.005   0.004
   47       -0.000  -0.001   0.005   0.004
   48       -0.000  -0.001   0.005   0.004
   49        0.020   0.054   3.662   3.736
   50        0.020   0.054   3.662   3.736
   51        0.020   0.054   3.662   3.736
   52        0.020   0.054   3.662   3.736
   53       -0.020  -0.054  -3.662  -3.736
   54       -0.020  -0.054  -3.662  -3.736
   55       -0.020  -0.054  -3.662  -3.736
   56       -0.020  -0.054  -3.662  -3.736
   57        0.020   0.054   3.662   3.736
   58        0.020   0.054   3.662   3.736
   59        0.020   0.054   3.662   3.736
   60        0.020   0.054   3.662   3.736
   61       -0.020  -0.054  -3.662  -3.736
   62       -0.020  -0.054  -3.662  -3.736
   63       -0.020  -0.054  -3.662  -3.736
   64       -0.020  -0.054  -3.662  -3.736
--------------------------------------------------
tot          0.000  -0.000   0.000  -0.000
 
 BZINTS: Fermi energy:  5.019196;688.000000 electrons
         Band energy:***********;  BLOECHL correction:  0.000000

 total amount of memory used by VASP MPI-rank0   347075. kBytes
=======================================================================

   base      :      30000. kBytes
   nonl-proj :     215613. kBytes
   fftplans  :       4588. kBytes
   grid      :      69719. kBytes
   one-center:       1990. kBytes
   wavefun   :      25165. kBytes
 
  
  
 General timing and accounting informations for this job:
 ========================================================
  
                  Total CPU time used (sec):     3791.280
                            User time (sec):     3780.095
                          System time (sec):       11.185
                         Elapsed time (sec):     3819.353
  
                   Maximum memory used (kb):      730628.
                   Average memory used (kb):           0.
  
                          Minor page faults:       553269
                          Major page faults:         5855
                 Voluntary context switches:         7135
