 vasp.5.4.4.18Apr17-6-g9f103f2a35 (build Oct 30 2023 17:30:16) complex          
  
 executed on             LinuxIFC date 2024.06.30  04:40:37
 running on  256 total cores
 distrk:  each k-point on  256 cores,    1 groups
 distr:  one band on NCORES_PER_BAND=   1 cores,  256 groups


--------------------------------------------------------------------------------------------------------


 INCAR:
 POTCAR:    PAW_PBE S 06Sep2000                   
 POTCAR:     PAW_PBE Cu_pv 06Sep2000              
 POTCAR:     PAW_PBE Fe_pv 02Aug2007              

 ----------------------------------------------------------------------------- 
|                                                                             |
|           W    W    AA    RRRRR   N    N  II  N    N   GGGG   !!!           |
|           W    W   A  A   R    R  NN   N  II  NN   N  G    G  !!!           |
|           W    W  A    A  R    R  N N  N  II  N N  N  G       !!!           |
|           W WW W  AAAAAA  RRRRR   N  N N  II  N  N N  G  GGG   !            |
|           WW  WW  A    A  R   R   N   NN  II  N   NN  G    G                |
|           W    W  A    A  R    R  N    N  II  N    N   GGGG   !!!           |
|                                                                             |
|      For optimal performance we recommend to set                            |
|        NCORE= 4 - approx SQRT( number of cores)                             |
|      NCORE specifies how many cores store one orbital (NPAR=cpu/NCORE).     |
|      This setting can  greatly improve the performance of VASP for DFT.     |
|      The default,   NCORE=1            might be grossly inefficient         |
|      on modern multi-core architectures or massively parallel machines.     |
|      Do your own testing !!!!                                               |
|      Unfortunately you need to use the default for GW and RPA calculations. |
|      (for HF NCORE is supported but not extensively tested yet)             |
|                                                                             |
 ----------------------------------------------------------------------------- 

 POTCAR:    PAW_PBE S 06Sep2000                   
   SHA256 =  0fc7481fb0695f01bdc6462160264c5c84044ae9ec85a907d398b887a2bc3132 S/
   COPYR  = (c) Copyright 06Sep2000 Georg Kresse                                
   COPYR  = This file is part of the software VASP. Any use, copying, and all ot
   COPYR  = If you do not have a valid VASP license, you may not use, copy or di
   VRHFIN =S : s2p4                                                             
   LEXCH  = PE                                                                  
   EATOM  =   276.8230 eV,   20.3459 Ry                                         
                                                                                
   TITEL  = PAW_PBE S 06Sep2000                                                 
   LULTRA =        F    use ultrasoft PP ?                                      
   IUNSCR =        1    unscreen: 0-lin 1-nonlin 2-no                           
   RPACOR =    1.500    partial core radius                                     
   POMASS =   32.066; ZVAL   =    6.000    mass and valenz                      
   RCORE  =    1.900    outmost cutoff radius                                   
   RWIGS  =    2.200; RWIGS  =    1.164    wigner-seitz radius (au A)           
   ENMAX  =  258.689; ENMIN  =  194.016 eV                                      
   ICORE  =        2    local potential                                         
   LCOR   =        T    correct aug charges                                     
   LPAW   =        T    paw PP                                                  
   EAUG   =  335.092                                                            
   DEXC   =    0.000                                                            
   RMAX   =    1.942    core radius for proj-oper                               
   RAUG   =    1.300    factor for augmentation sphere                          
   RDEP   =    1.954    radius for radial grids                                 
   RDEPT  =    1.744    core radius for aug-charge                              
                                                                                
   Atomic configuration                                                         
    6 entries                                                                   
     n  l   j            E        occ.                                          
     1  0  0.50     -2405.8406   2.0000                                         
     2  0  0.50      -211.7007   2.0000                                         
     2  1  1.50      -156.4958   6.0000                                         
     3  0  0.50       -17.2562   2.0000                                         
     3  1  0.50        -7.0085   4.0000                                         
     3  2  1.50        -6.8029   0.0000                                         
   Description                                                                  
     l       E           TYP  RCUT    TYP  RCUT                                 
     0    -17.2561641     23  1.900                                             
     0    -15.8743224     23  1.900                                             
     1     -7.0085400     23  1.900                                             
     1     -2.7779785     23  1.900                                             
     2     -6.8029130     23  1.900                                             
  local pseudopotential read in
  partial core-charges read in
  partial kinetic energy density read in
  atomic valenz-charges read in
  non local Contribution for L=           0  read in
    real space projection operators read in
  non local Contribution for L=           0  read in
    real space projection operators read in
  non local Contribution for L=           1  read in
    real space projection operators read in
  non local Contribution for L=           1  read in
    real space projection operators read in
    PAW grid and wavefunctions read in
 
   number of l-projection  operators is LMAX  =           4
   number of lm-projection operators is LMMAX =           8
 
 POTCAR:     PAW_PBE Cu_pv 06Sep2000              
   SHA256 =  cb7b504e2ea725fe1f25c85a9ac77d4012ce94cd394135b722c4e25ec297f1cb Cu
   COPYR  = (c) Copyright 06Sep2000 Georg Kresse                                
   COPYR  = This file is part of the software VASP. Any use, copying, and all ot
   COPYR  = If you do not have a valid VASP license, you may not use, copy or di
   VRHFIN =Cu: d10 p1                                                           
   LEXCH  = PE                                                                  
   EATOM  =  4120.1201 eV,  302.8203 Ry                                         
                                                                                
   TITEL  = PAW_PBE Cu_pv 06Sep2000                                             
   LULTRA =        F    use ultrasoft PP ?                                      
   IUNSCR =        1    unscreen: 0-lin 1-nonlin 2-no                           
   RPACOR =    1.500    partial core radius                                     
   POMASS =   63.546; ZVAL   =   17.000    mass and valenz                      
   RCORE  =    2.000    outmost cutoff radius                                   
   RWIGS  =    2.000; RWIGS  =    1.058    wigner-seitz radius (au A)           
   ENMAX  =  368.648; ENMIN  =  276.486 eV                                      
   RCLOC  =    1.304    cutoff for local pot                                    
   LCOR   =        T    correct aug charges                                     
   LPAW   =        T    paw PP                                                  
   EAUG   =  758.233                                                            
   DEXC   =    0.000                                                            
   RMAX   =    2.046    core radius for proj-oper                               
   RAUG   =    1.300    factor for augmentation sphere                          
   RDEP   =    2.025    radius for radial grids                                 
   RDEPT  =    1.558    core radius for aug-charge                              
                                                                                
   Atomic configuration                                                         
    8 entries                                                                   
     n  l   j            E        occ.                                          
     1  0  0.50     -8850.2467   2.0000                                         
     2  0  0.50     -1062.3498   2.0000                                         
     2  1  1.50      -916.8226   6.0000                                         
     3  0  0.50      -114.6929   2.0000                                         
     3  1  1.50       -72.1325   6.0000                                         
     3  2  2.50        -5.0394  10.0000                                         
     4  0  0.50        -4.6097   1.0000                                         
     4  3  2.50        -1.3606   0.0000                                         
   Description                                                                  
     l       E           TYP  RCUT    TYP  RCUT                                 
     1    -72.1324777     23  1.700                                             
     1     -1.3605826     23  1.700                                             
     2     -5.0393776     23  2.000                                             
     2     -6.3999602     23  2.000                                             
     0     -4.6097062     23  1.800                                             
     0     14.1620818     23  1.800                                             
  local pseudopotential read in
  partial core-charges read in
  partial kinetic energy density read in
  atomic valenz-charges read in
  non local Contribution for L=           1  read in
    real space projection operators read in
  non local Contribution for L=           1  read in
    real space projection operators read in
  non local Contribution for L=           2  read in
    real space projection operators read in
  non local Contribution for L=           2  read in
    real space projection operators read in
  non local Contribution for L=           0  read in
    real space projection operators read in
  non local Contribution for L=           0  read in
    real space projection operators read in
    PAW grid and wavefunctions read in
 
   number of l-projection  operators is LMAX  =           6
   number of lm-projection operators is LMMAX =          18
 
 POTCAR:     PAW_PBE Fe_pv 02Aug2007              
   SHA256 =  5d22e414b1f82158bf2c7ecb8b97b28fd0923e48cadc1c3bf74d524558f5dd32 Fe
   COPYR  = (c) Copyright 02Aug2007 Georg Kresse                                
   COPYR  = This file is part of the software VASP. Any use, copying, and all ot
   COPYR  = If you do not have a valid VASP license, you may not use, copy or di
   VRHFIN =Fe:  3pd7s1                                                          
   LEXCH  = PE                                                                  
   EATOM  =  2457.4239 eV,  180.6156 Ry                                         
                                                                                
   TITEL  = PAW_PBE Fe_pv 02Aug2007                                             
   LULTRA =        F    use ultrasoft PP ?                                      
   IUNSCR =        1    unscreen: 0-lin 1-nonlin 2-no                           
   RPACOR =    1.750    partial core radius                                     
   POMASS =   55.847; ZVAL   =   14.000    mass and valenz                      
   RCORE  =    2.200    outmost cutoff radius                                   
   RWIGS  =    2.200; RWIGS  =    1.164    wigner-seitz radius (au A)           
   ENMAX  =  293.238; ENMIN  =  219.928 eV                                      
   ICORE  =        3    local potential                                         
   LCOR   =        T    correct aug charges                                     
   LPAW   =        T    paw PP                                                  
   EAUG   =  578.342                                                            
   DEXC   =    0.000                                                            
   RMAX   =    2.249    core radius for proj-oper                               
   RAUG   =    1.300    factor for augmentation sphere                          
   RDEP   =    2.296    radius for radial grids                                 
   RDEPT  =    1.766    core radius for aug-charge                              
                                                                                
   Atomic configuration                                                         
    8 entries                                                                   
     n  l   j            E        occ.                                          
     1  0  0.50     -6993.8440   2.0000                                         
     2  0  0.50      -814.6047   2.0000                                         
     2  1  1.50      -693.3689   6.0000                                         
     3  0  0.50       -89.4732   2.0000                                         
     3  1  1.50       -55.6373   6.0000                                         
     3  2  2.50        -3.8151   7.0000                                         
     4  0  0.50        -4.2551   1.0000                                         
     4  3  2.50        -1.3606   0.0000                                         
   Description                                                                  
     l       E           TYP  RCUT    TYP  RCUT                                 
     1    -55.6372668     23  2.000                                             
     1     -5.4423304     23  2.000                                             
     2     -3.8151096     23  2.200                                             
     2     -5.1756922     23  2.200                                             
     0     -4.2550951     23  2.200                                             
     0     27.2116520     23  2.200                                             
     3     -1.3605826     23  2.200                                             
  local pseudopotential read in
  partial core-charges read in
  partial kinetic energy density read in
  atomic valenz-charges read in
  non local Contribution for L=           1  read in
    real space projection operators read in
  non local Contribution for L=           1  read in
    real space projection operators read in
  non local Contribution for L=           2  read in
    real space projection operators read in
  non local Contribution for L=           2  read in
    real space projection operators read in
  non local Contribution for L=           0  read in
    real space projection operators read in
  non local Contribution for L=           0  read in
    real space projection operators read in
    PAW grid and wavefunctions read in
 
   number of l-projection  operators is LMAX  =           6
   number of lm-projection operators is LMMAX =          18
 

 ----------------------------------------------------------------------------- 
|                                                                             |
|  ADVICE TO THIS USER RUNNING 'VASP/VAMP'   (HEAR YOUR MASTER'S VOICE ...):  |
|                                                                             |
|      You have a (more or less) 'large supercell' and for larger cells       |
|      it might be more efficient to use real space projection opertators     |
|      So try LREAL= Auto  in the INCAR   file.                               |
|      Mind:          For very  accurate calculation you might also keep the  |
|      reciprocal projection scheme          (i.e. LREAL=.FALSE.)             |
|                                                                             |
 ----------------------------------------------------------------------------- 


 ----------------------------------------------------------------------------- 
|                                                                             |
|  ADVICE TO THIS USER RUNNING 'VASP/VAMP'   (HEAR YOUR MASTER'S VOICE ...):  |
|                                                                             |
|      You enforced a specific xc-type in the INCAR file,                     |
|      a different type was found on the POTCAR file                          |
|          I HOPE YOU KNOW, WHAT YOU ARE  DOING                               |
|                                                                             |
 ----------------------------------------------------------------------------- 

  PAW_PBE S 06Sep2000                   :
 energy of atom  1       EATOM= -276.8230
 kinetic energy error for atom=    0.0007 (will be added to EATOM!!)
   PAW_PBE Cu_pv 06Sep2000              :
 energy of atom  2       EATOM=-4120.1201
 kinetic energy error for atom=    0.0094 (will be added to EATOM!!)
   PAW_PBE Fe_pv 02Aug2007              :
 energy of atom  3       EATOM=-2457.4239
 kinetic energy error for atom=    0.0025 (will be added to EATOM!!)
 
 
 POSCAR: Fe16 Cu16 S32                           
  positions in direct lattice
  No initial velocities read in
 exchange correlation table for  LEXCH =       14
   RHO(1)=    0.500       N(1)  =     2000
   RHO(2)=  100.500       N(2)  =     4000
 


--------------------------------------------------------------------------------------------------------


 ion  position               nearest neighbor table
   1  0.126  0.122  0.125-  41 2.26  37 2.27  61 2.27  49 2.28
   2  0.626  0.122  0.125-  42 2.26  38 2.27  62 2.27  50 2.28
   3  0.126  0.622  0.125-  43 2.26  39 2.27  63 2.27  51 2.28
   4  0.626  0.622  0.125-  44 2.26  40 2.27  64 2.27  52 2.28
   5  0.374  0.372  0.125-  39 2.26  41 2.27  52 2.27  62 2.28
   6  0.874  0.372  0.125-  40 2.26  42 2.27  51 2.27  61 2.28
   7  0.374  0.872  0.125-  37 2.26  43 2.27  50 2.27  64 2.28
   8  0.874  0.872  0.125-  38 2.26  44 2.27  49 2.27  63 2.28
   9  0.125  0.372  0.875-  41 2.26  45 2.26  51 2.27  55 2.27
  10  0.625  0.372  0.875-  42 2.26  46 2.26  52 2.27  56 2.27
  11  0.125  0.872  0.875-  43 2.26  47 2.26  49 2.27  53 2.27
  12  0.625  0.872  0.875-  44 2.26  48 2.26  50 2.27  54 2.27
  13  0.375  0.124  0.875-  41 2.26  46 2.26  50 2.28  53 2.28
  14  0.875  0.124  0.875-  42 2.26  45 2.26  49 2.28  54 2.28
  15  0.375  0.624  0.875-  43 2.26  48 2.26  52 2.28  55 2.28
  16  0.875  0.624  0.875-  44 2.26  47 2.26  51 2.28  56 2.28
  17  0.124  0.122  0.625-  45 2.26  33 2.27  57 2.27  53 2.28
  18  0.624  0.122  0.625-  46 2.26  34 2.27  58 2.27  54 2.28
  19  0.124  0.622  0.625-  47 2.26  35 2.27  59 2.27  55 2.28
  20  0.624  0.622  0.625-  48 2.26  36 2.27  60 2.27  56 2.28
  21  0.376  0.372  0.625-  36 2.26  46 2.27  55 2.27  57 2.28
  22  0.876  0.372  0.625-  35 2.26  45 2.27  56 2.27  58 2.28
  23  0.376  0.872  0.625-  34 2.26  48 2.27  53 2.27  59 2.28
  24  0.876  0.872  0.625-  33 2.26  47 2.27  54 2.27  60 2.28
  25  0.375  0.122  0.375-  34 2.26  37 2.26  57 2.27  62 2.27
  26  0.875  0.122  0.375-  33 2.26  38 2.26  58 2.27  61 2.27
  27  0.375  0.622  0.375-  36 2.26  39 2.26  59 2.27  64 2.27
  28  0.875  0.622  0.375-  35 2.26  40 2.26  60 2.27  63 2.27
  29  0.125  0.374  0.375-  35 2.26  39 2.26  57 2.28  61 2.28
  30  0.625  0.374  0.375-  36 2.26  40 2.26  58 2.28  62 2.28
  31  0.125  0.874  0.375-  33 2.26  37 2.26  59 2.28  63 2.28
  32  0.625  0.874  0.375-  34 2.26  38 2.26  60 2.28  64 2.28
  33  0.999  0.002  0.500-  24 2.26  31 2.26  26 2.26  17 2.27
  34  0.499  0.002  0.500-  23 2.26  32 2.26  25 2.26  18 2.27
  35  0.999  0.502  0.500-  22 2.26  29 2.26  28 2.26  19 2.27
  36  0.499  0.502  0.500-  21 2.26  30 2.26  27 2.26  20 2.27
  37  0.251  0.002  0.250-   7 2.26  31 2.26  25 2.26   1 2.27
  38  0.751  0.002  0.250-   8 2.26  32 2.26  26 2.26   2 2.27
  39  0.251  0.502  0.250-   5 2.26  29 2.26  27 2.26   3 2.27
  40  0.751  0.502  0.250-   6 2.26  30 2.26  28 2.26   4 2.27
  41  0.249  0.252  0.000-   1 2.26  13 2.26   9 2.26   5 2.27
  42  0.749  0.252  0.000-   2 2.26  14 2.26  10 2.26   6 2.27
  43  0.249  0.752  0.000-   3 2.26  15 2.26  11 2.26   7 2.27
  44  0.749  0.752  0.000-   4 2.26  16 2.26  12 2.26   8 2.27
  45  0.001  0.252  0.750-  17 2.26  14 2.26   9 2.26  22 2.27
  46  0.501  0.252  0.750-  18 2.26  13 2.26  10 2.26  21 2.27
  47  0.001  0.752  0.750-  19 2.26  16 2.26  11 2.26  24 2.27
  48  0.501  0.752  0.750-  20 2.26  15 2.26  12 2.26  23 2.27
  49  0.999  0.002  0.000-   8 2.27  11 2.27  14 2.28   1 2.28
  50  0.499  0.002  0.000-   7 2.27  12 2.27  13 2.28   2 2.28
  51  0.999  0.502  0.000-   6 2.27   9 2.27  16 2.28   3 2.28
  52  0.499  0.502  0.000-   5 2.27  10 2.27  15 2.28   4 2.28
  53  0.251  0.002  0.750-  23 2.27  11 2.27  13 2.28  17 2.28
  54  0.751  0.002  0.750-  24 2.27  12 2.27  14 2.28  18 2.28
  55  0.251  0.502  0.750-  21 2.27   9 2.27  15 2.28  19 2.28
  56  0.751  0.502  0.750-  22 2.27  10 2.27  16 2.28  20 2.28
  57  0.249  0.252  0.500-  17 2.27  25 2.27  29 2.28  21 2.28
  58  0.749  0.252  0.500-  18 2.27  26 2.27  30 2.28  22 2.28
  59  0.249  0.752  0.500-  19 2.27  27 2.27  31 2.28  23 2.28
  60  0.749  0.752  0.500-  20 2.27  28 2.27  32 2.28  24 2.28
  61  0.001  0.252  0.250-   1 2.27  26 2.27  29 2.28   6 2.28
  62  0.501  0.252  0.250-   2 2.27  25 2.27  30 2.28   5 2.28
  63  0.001  0.752  0.250-   3 2.27  28 2.27  31 2.28   8 2.28
  64  0.501  0.752  0.250-   4 2.27  27 2.27  32 2.28   7 2.28
 
  LATTYP: Found a simple monoclinic cell.
 ALAT       =    15.1133354221
 B/A-ratio  =     0.6960244517
 C/A-ratio  =     1.5699263931
 COS(beta)  =    -0.9523941221
  
  Lattice vectors:
  
 A1 = ( -10.7379880000,   0.0000000000, -10.6352490000)
 A2 = (   0.0000000000, -10.5192510000,   0.0000000000)
 A3 = (  10.9650460000,   0.0000000000,  21.0411490000)


Analysis of symmetry for initial positions (statically):
=====================================================================
 Subroutine PRICEL returns following result:
 
  LATTYP: Found a base centered monoclinic cell.
 ALAT       =    11.4540036341
 B/A-ratio  =     0.4591953755
 C/A-ratio  =     0.9087108101
 COS(beta)  =    -0.8076147916
  
  Lattice vectors:
  
 A1 = (  -2.5142035000,  -2.6298127500,   5.1456127500)
 A2 = (  -2.5142035000,   2.6298127500,   5.1456127500)
 A3 = (  -0.2270580000,   0.0000000000, -10.4059000000)
 
   8 primitive cells build up your supercell.
 

 Routine SETGRP: Setting up the symmetry group for a 
 simple monoclinic supercell.


 Subroutine GETGRP returns: Found  2 space group operations
 (whereof  1 operations were pure point group operations)
 out of a pool of  4 trial point group operations.


The static configuration has the point symmetry C_1 .
 The point group associated with its full space group is C_2 .


Analysis of symmetry for dynamics (positions and initial velocities):
=====================================================================
 Subroutine PRICEL returns following result:
 
  LATTYP: Found a base centered monoclinic cell.
 ALAT       =    11.4540036341
 B/A-ratio  =     0.4591953755
 C/A-ratio  =     0.9087108101
 COS(beta)  =    -0.8076147916
  
  Lattice vectors:
  
 A1 = (  -2.5142035000,  -2.6298127500,   5.1456127500)
 A2 = (  -2.5142035000,   2.6298127500,   5.1456127500)
 A3 = (  -0.2270580000,   0.0000000000, -10.4059000000)
 
   8 primitive cells build up your supercell.
 

 Routine SETGRP: Setting up the symmetry group for a 
 simple monoclinic supercell.


 Subroutine GETGRP returns: Found  2 space group operations
 (whereof  1 operations were pure point group operations)
 out of a pool of  4 trial point group operations.


The dynamic configuration has the point symmetry C_1 .
 The point group associated with its full space group is C_2 .


Analysis of structural, dynamic, and magnetic symmetry:
=====================================================================
 Subroutine PRICEL returns following result:
 
  LATTYP: Found a base centered monoclinic cell.
 ALAT       =    11.4540036341
 B/A-ratio  =     0.4591953755
 C/A-ratio  =     0.9087108101
 COS(beta)  =    -0.8076147916
  
  Lattice vectors:
  
 A1 = (  -2.5142035000,  -2.6298127500,   5.1456127500)
 A2 = (  -2.5142035000,   2.6298127500,   5.1456127500)
 A3 = (  -0.2270580000,   0.0000000000, -10.4059000000)
 
   8 primitive cells build up your supercell.
 

 Routine SETGRP: Setting up the symmetry group for a 
 simple monoclinic supercell.


 Subroutine GETGRP returns: Found  2 space group operations
 (whereof  1 operations were pure point group operations)
 out of a pool of  4 trial point group operations.


The magnetic configuration has the point symmetry C_1 .
 The point group associated with its full space group is C_2 .


 Subroutine INISYM returns: Found  2 space group operations
 (whereof  1 operations are pure point group operations),
 and found     8 'primitive' translations

 
 
 KPOINTS: Automatic mesh                          

Automatic generation of k-mesh.
Space group operators:
 irot       det(A)        alpha          n_x          n_y          n_z        tau_x        tau_y        tau_z
    1     1.000000     0.000000     1.000000     0.000000     0.000000     0.000000     0.000000     0.000000
    2     1.000000   180.000000     0.000000     1.000000     0.000000    -0.250000     0.000000    -0.250000
 
 Subroutine IBZKPT returns following result:
 ===========================================
 
 Found      8 irreducible k-points:
 
 Following reciprocal coordinates:
            Coordinates               Weight
  0.000000  0.000000  0.000000      1.000000
  0.500000  0.000000  0.000000      1.000000
  0.000000  0.500000  0.000000      1.000000
  0.500000  0.500000  0.000000      1.000000
  0.000000  0.000000  0.500000      1.000000
  0.500000  0.000000  0.500000      1.000000
  0.000000  0.500000  0.500000      1.000000
  0.500000  0.500000  0.500000      1.000000
 
 Following cartesian coordinates:
            Coordinates               Weight
  0.000000  0.000000  0.000000      1.000000
  0.047592  0.000000 -0.001038      1.000000
  0.000000  0.047532  0.000000      1.000000
  0.047592  0.047532 -0.001038      1.000000
 -0.001049  0.000000  0.048073      1.000000
  0.046543  0.000000  0.047034      1.000000
 -0.001049  0.047532  0.048073      1.000000
  0.046543  0.047532  0.047034      1.000000
 
 TETIRR: Found     24 inequivalent tetrahedra from       48
 
 Subroutine IBZKPT_HF returns following result:
 ==============================================
 
 Found      8 k-points in 1st BZ
 the following      8 k-points will be used (e.g. in the exchange kernel)
 Following reciprocal coordinates:   # in IRBZ
  0.000000  0.000000  0.000000    0.12500000   1 t-inv F
  0.500000  0.000000  0.000000    0.12500000   2 t-inv F
  0.000000  0.500000  0.000000    0.12500000   3 t-inv F
  0.500000  0.500000  0.000000    0.12500000   4 t-inv F
  0.000000  0.000000  0.500000    0.12500000   5 t-inv F
  0.500000  0.000000  0.500000    0.12500000   6 t-inv F
  0.000000  0.500000  0.500000    0.12500000   7 t-inv F
  0.500000  0.500000  0.500000    0.12500000   8 t-inv F


--------------------------------------------------------------------------------------------------------




 Dimension of arrays:
   k-points           NKPTS =      8   k-points in BZ     NKDIM =      8   number of bands    NBANDS=    512
   number of dos      NEDOS =    301   number of ions     NIONS =     64
   non local maximal  LDIM  =      6   non local SUM 2l+1 LMDIM =     18
   total plane-waves  NPLWV = 829440
   max r-space proj   IRMAX =      1   max aug-charges    IRDMAX=  22920
   dimension x,y,z NGX =    96 NGY =   96 NGZ =   90
   dimension x,y,z NGXF=   192 NGYF=  192 NGZF=  180
   support grid    NGXF=   192 NGYF=  192 NGZF=  180
   ions per type =              32  16  16
   NGX,Y,Z   is equivalent  to a cutoff of  15.18, 15.17, 14.38 a.u.
   NGXF,Y,Z  is equivalent  to a cutoff of  30.36, 30.34, 28.75 a.u.

 SYSTEM =  CuFeS2                                  
 POSCAR =  Fe16 Cu16 S32                           

 Startparameter for this run:
   NWRITE =      2    write-flag & timer
   PREC   = accura    normal or accurate (medium, high low for compatibility)
   ISTART =      0    job   : 0-new  1-cont  2-samecut
   ICHARG =      1    charge: 1-file 2-atom 10-const
   ISPIN  =      2    spin polarized calculation?
   LNONCOLLINEAR =      F non collinear calculations
   LSORBIT =      F    spin-orbit coupling
   INIWAV =      1    electr: 0-lowe 1-rand  2-diag
   LASPH  =      F    aspherical Exc in radial PAW
   METAGGA=      F    non-selfconsistent MetaGGA calc.

 Electronic Relaxation 1
   ENCUT  =  700.0 eV  51.45 Ry    7.17 a.u.  22.68 22.69 22.45*2*pi/ulx,y,z
   ENINI  =  700.0     initial cutoff
   ENAUG  =  758.2 eV  augmentation charge cutoff
   NELM   =    500;   NELMIN=  2; NELMDL=  0     # of ELM steps 
   EDIFF  = 0.1E-07   stopping-criterion for ELM
   LREAL  =      F    real-space projection
   NLSPLINE    = F    spline interpolate recip. space projectors
   LCOMPAT=      F    compatible to vasp.4.4
   GGA_COMPAT  = T    GGA compatible to vasp.4.4-vasp.4.6
   LMAXPAW     = -100 max onsite density
   LMAXMIX     =    4 max onsite mixed and CHGCAR
   VOSKOWN=      0    Vosko Wilk Nusair interpolation
   ROPT   =    0.00000   0.00000   0.00000
 Ionic relaxation
   EDIFFG = -.1E-04   stopping-criterion for IOM
   NSW    =      0    number of steps for IOM
   NBLOCK =      1;   KBLOCK =      1    inner block; outer block 
   IBRION =     -1    ionic relax: 0-MD 1-quasi-New 2-CG
   NFREE  =      0    steps in history (QN), initial steepest desc. (CG)
   ISIF   =      2    stress and relaxation
   IWAVPR =     10    prediction:  0-non 1-charg 2-wave 3-comb
   ISYM   =      2    0-nonsym 1-usesym 2-fastsym
   LCORR  =      T    Harris-Foulkes like correction to forces

   POTIM  = 0.5000    time-step for ionic-motion
   TEIN   =    0.0    initial temperature
   TEBEG  =    0.0;   TEEND  =   0.0 temperature during run
   SMASS  =  -3.00    Nose mass-parameter (am)
   estimated Nose-frequenzy (Omega)   =  0.10E-29 period in steps =****** mass=  -0.253E-26a.u.
   SCALEE = 1.0000    scale energy and forces
   NPACO  =    256;   APACO  = 16.0  distance and # of slots for P.C.
   PSTRESS=    0.0 pullay stress

  Mass of Ions in am
   POMASS =  32.07 63.55 55.85
  Ionic Valenz
   ZVAL   =   6.00 17.00 14.00
  Atomic Wigner-Seitz radii
   RWIGS  =  -1.00 -1.00 -1.00
  virtual crystal weights 
   VCA    =   1.00  1.00  1.00
   NELECT =     688.0000    total number of electrons
   NUPDOWN=      -1.0000    fix difference up-down

 DOS related values:
   EMIN   =  10.00;   EMAX   =-10.00  energy-range for DOS
   EFERMI =   0.00
   ISMEAR =    -5;   SIGMA  =   0.03  broadening in eV -4-tet -1-fermi 0-gaus

 Electronic relaxation 2 (details)
   IALGO  =     38    algorithm
   LDIAG  =      T    sub-space diagonalisation (order eigenvalues)
   LSUBROT=      F    optimize rotation matrix (better conditioning)
   TURBO    =      0    0=normal 1=particle mesh
   IRESTART =      0    0=no restart 2=restart with 2 vectors
   NREBOOT  =      0    no. of reboots
   NMIN     =      0    reboot dimension
   EREF     =   0.00    reference energy to select bands
   IMIX   =      4    mixing-type and parameters
     AMIX     =   0.40;   BMIX     =  1.00
     AMIX_MAG =   1.60;   BMIX_MAG =  1.00
     AMIN     =   0.10
     WC   =   100.;   INIMIX=   1;  MIXPRE=   1;  MAXMIX= -45

 Intra band minimization:
   WEIMIN = 0.0000     energy-eigenvalue tresh-hold
   EBREAK =  0.49E-11  absolut break condition
   DEPER  =   0.30     relativ break condition  

   TIME   =   0.40     timestep for ELM

  volume/ion in A,a.u.               =      17.97       121.26
  Fermi-wavevector in a.u.,A,eV,Ry     =   1.379446  2.606775 25.890137  1.902871
  Thomas-Fermi vector in A             =   2.504415
 
 Write flags
   LWAVE        =      T    write WAVECAR
   LDOWNSAMPLE  =      F    k-point downsampling of WAVECAR
   LCHARG       =      T    write CHGCAR
   LVTOT        =      F    write LOCPOT, total local potential
   LVHAR        =      F    write LOCPOT, Hartree potential only
   LELF         =      F    write electronic localiz. function (ELF)
   LORBIT       =     11    0 simple, 1 ext, 2 COOP (PROOUT), +10 PAW based schemes


 Dipole corrections
   LMONO  =      F    monopole corrections only (constant potential shift)
   LDIPOL =      F    correct potential (dipole corrections)
   IDIPOL =      0    1-x, 2-y, 3-z, 4-all directions 
   EPSILON=  1.0000000 bulk dielectric constant

 LDA+U is selected, type is set to LDAUTYPE =  2
   angular momentum for each species LDAUL =     2    2    2
   U (eV)           for each species LDAUU =   0.0  0.1  4.7
   J (eV)           for each species LDAUJ =   0.0  0.0  0.0
 Exchange correlation treatment:
   GGA     =    PS    GGA type
   LEXCH   =    14    internal setting for exchange type
   VOSKOWN=      0    Vosko Wilk Nusair interpolation
   LHFCALC =     F    Hartree Fock is set to
   LHFONE  =     F    Hartree Fock one center treatment
   AEXX    =    0.0000 exact exchange contribution

 Linear response parameters
   LEPSILON=     F    determine dielectric tensor
   LRPA    =     F    only Hartree local field effects (RPA)
   LNABLA  =     F    use nabla operator in PAW spheres
   LVEL    =     F    velocity operator in full k-point grid
   LINTERFAST=   F  fast interpolation
   KINTER  =     0    interpolate to denser k-point grid
   CSHIFT  =0.1000    complex shift for real part using Kramers Kronig
   OMEGAMAX=  -1.0    maximum frequency
   DEG_THRESHOLD= 0.2000000E-02 threshold for treating states as degnerate
   RTIME   =   -0.100 relaxation time in fs
  (WPLASMAI=    0.000 imaginary part of plasma frequency in eV, 0.658/RTIME)
   DFIELD  = 0.0000000 0.0000000 0.0000000 field for delta impulse in time
 
 Orbital magnetization related:
   ORBITALMAG=     F  switch on orbital magnetization
   LCHIMAG   =     F  perturbation theory with respect to B field
   DQ        =  0.001000  dq finite difference perturbation B field
   LLRAUG    =     F  two centre corrections for induced B field

 PEAD related settings:
   LPEAD      =     T    switch on PEAD
   IPEAD      =     4    finite difference order for dpsi/dk
   LCALCPOL   =     T    calculate macroscopic polarization
   LCALCEPS   =     F    calculate dielectric tensor
   EFIELD_PEAD=    0.0000    0.0000    0.0000
   SKIP_EDOTP =     F
   LRPA       =     F
   SKIP_SCF   =     F


--------------------------------------------------------------------------------------------------------


 Static calculation
 charge density and potential will be updated during run
 spin polarized calculation
 Variant of blocked Davidson
 Davidson routine will perform the subspace rotation
 perform sub-space diagonalisation
    after iterative eigenvector-optimisation
 modified Broyden-mixing scheme, WC =      100.0
 initial mixing is a Kerker type mixing with AMIX =  0.4000 and BMIX =      1.0000
 Hartree-type preconditioning will be used
 using additional bands          168
 reciprocal scheme for non local part
 use partial core corrections
 calculate Harris-corrections to forces 
   (improved forces if not selfconsistent)
 use gradient corrections 
 use of overlap-Matrix (Vanderbilt PP)
 Fermi weights with tetrahedron method with Bloechl corrections


--------------------------------------------------------------------------------------------------------


  energy-cutoff  :      700.00
  volume of cell :     1150.00
      direct lattice vectors                 reciprocal lattice vectors
    10.510930000  0.000000000  0.229349000     0.095184379  0.000000000 -0.002076935
     0.000000000 10.519251000  0.000000000     0.000000000  0.095063803  0.000000000
     0.227058000  0.000000000 10.405900000    -0.002097891  0.000000000  0.096145104

  length of vectors
    10.513431905 10.519251000 10.408376922     0.095207036  0.095063803  0.096167990


 
 k-points in units of 2pi/SCALE and weight: Automatic mesh                          
   0.00000000  0.00000000  0.00000000       0.125
   0.04759219  0.00000000 -0.00103847       0.125
   0.00000000  0.04753190  0.00000000       0.125
   0.04759219  0.04753190 -0.00103847       0.125
  -0.00104895  0.00000000  0.04807255       0.125
   0.04654324  0.00000000  0.04703408       0.125
  -0.00104895  0.04753190  0.04807255       0.125
   0.04654324  0.04753190  0.04703408       0.125
 
 k-points in reciprocal lattice and weights: Automatic mesh                          
   0.00000000  0.00000000  0.00000000       0.125
   0.50000000  0.00000000  0.00000000       0.125
   0.00000000  0.50000000  0.00000000       0.125
   0.50000000  0.50000000  0.00000000       0.125
   0.00000000  0.00000000  0.50000000       0.125
   0.50000000  0.00000000  0.50000000       0.125
   0.00000000  0.50000000  0.50000000       0.125
   0.50000000  0.50000000  0.50000000       0.125
 
 position of ions in fractional coordinates (direct lattice) 
   0.12623700  0.12222000  0.12543100
   0.62623700  0.12222000  0.12543100
   0.12623700  0.62222000  0.12543100
   0.62623700  0.62222000  0.12543100
   0.37376300  0.37222000  0.12456900
   0.87376300  0.37222000  0.12456900
   0.37376300  0.87222000  0.12456900
   0.87376300  0.87222000  0.12456900
   0.12500000  0.37211800  0.87500000
   0.62500000  0.37211800  0.87500000
   0.12500000  0.87211800  0.87500000
   0.62500000  0.87211800  0.87500000
   0.37500000  0.12420200  0.87500000
   0.87500000  0.12420200  0.87500000
   0.37500000  0.62420200  0.87500000
   0.87500000  0.62420200  0.87500000
   0.12376300  0.12222000  0.62456900
   0.62376300  0.12222000  0.62456900
   0.12376300  0.62222000  0.62456900
   0.62376300  0.62222000  0.62456900
   0.37623700  0.37222000  0.62543100
   0.87623700  0.37222000  0.62543100
   0.37623700  0.87222000  0.62543100
   0.87623700  0.87222000  0.62543100
   0.37500000  0.12211800  0.37500000
   0.87500000  0.12211800  0.37500000
   0.37500000  0.62211800  0.37500000
   0.87500000  0.62211800  0.37500000
   0.12500000  0.37420200  0.37500000
   0.62500000  0.37420200  0.37500000
   0.12500000  0.87420200  0.37500000
   0.62500000  0.87420200  0.37500000
   0.99906100  0.00235300  0.50000600
   0.49906100  0.00235300  0.50000600
   0.99906100  0.50235300  0.50000600
   0.49906100  0.50235300  0.50000600
   0.25093900  0.00235300  0.24999400
   0.75093900  0.00235300  0.24999400
   0.25093900  0.50235300  0.24999400
   0.75093900  0.50235300  0.24999400
   0.24906100  0.25235300  0.00000600
   0.74906100  0.25235300  0.00000600
   0.24906100  0.75235300  0.00000600
   0.74906100  0.75235300  0.00000600
   0.00093900  0.25235300  0.74999400
   0.50093900  0.25235300  0.74999400
   0.00093900  0.75235300  0.74999400
   0.50093900  0.75235300  0.74999400
   0.99948900  0.00226700  0.00022000
   0.49948900  0.00226700  0.00022000
   0.99948900  0.50226700  0.00022000
   0.49948900  0.50226700  0.00022000
   0.25051100  0.00226700  0.74978000
   0.75051100  0.00226700  0.74978000
   0.25051100  0.50226700  0.74978000
   0.75051100  0.50226700  0.74978000
   0.24948900  0.25226700  0.50022000
   0.74948900  0.25226700  0.50022000
   0.24948900  0.75226700  0.50022000
   0.74948900  0.75226700  0.50022000
   0.00051100  0.25226700  0.24978000
   0.50051100  0.25226700  0.24978000
   0.00051100  0.75226700  0.24978000
   0.50051100  0.75226700  0.24978000
 
 position of ions in cartesian coordinates  (Angst):
   1.35534838  1.28566286  1.33417477
   6.61081338  1.28566286  1.44884927
   1.35534838  6.54528836  1.33417477
   6.61081338  6.54528836  1.44884927
   3.95688112  3.91547561  1.38197473
   9.21234612  3.91547561  1.49664923
   3.95688112  9.17510111  1.38197473
   9.21234612  9.17510111  1.49664923
   1.51254200  3.91440264  9.13383113
   6.76800700  3.91440264  9.24850562
   1.51254200  9.17402814  9.13383113
   6.76800700  9.17402814  9.24850562
   4.14027450  1.30651201  9.19116838
   9.39573950  1.30651201  9.30584287
   4.14027450  6.56613751  9.19116838
   9.39573950  6.56613751  9.30584287
   1.44267762  1.28566286  6.52758748
   6.69814262  1.28566286  6.64226198
   1.44267762  6.54528836  6.52758748
   6.69814262  6.54528836  6.64226198
   4.09660988  3.91547561  6.59446202
   9.35207488  3.91547561  6.70913652
   4.09660988  9.17510111  6.59446202
   9.35207488  9.17510111  6.70913652
   4.02674550  1.28458989  3.98821838
   9.28221050  1.28458989  4.10289288
   4.02674550  6.54421539  3.98821838
   9.28221050  6.54421539  4.10289288
   1.39901300  3.93632476  3.93088112
   6.65447800  3.93632476  4.04555563
   1.39901300  9.19595026  3.93088112
   6.65447800  9.19595026  4.04555563
  10.61459060  0.02475180  5.43214608
   5.35912560  0.02475180  5.31747158
  10.61459060  5.28437730  5.43214608
   5.35912560  5.28437730  5.31747158
   2.69436540  0.02475180  2.65896517
   7.94983040  0.02475180  2.77363967
   2.69436540  5.28437730  2.65896517
   7.94983040  5.28437730  2.77363967
   2.61786410  2.65456455  0.05718433
   7.87332910  2.65456455  0.17185883
   2.61786410  7.91419005  0.05718433
   7.87332910  7.91419005  0.17185883
   0.18016190  2.65456455  7.80457792
   5.43562690  2.65456455  7.91925242
   0.18016190  7.91419005  7.80457792
   5.43562690  7.91419005  7.91925242
  10.50560887  0.02384714  0.23152110
   5.25014387  0.02384714  0.11684660
  10.50560887  5.28347264  0.23152110
   5.25014387  5.28347264  0.11684660
   2.80334713  0.02384714  7.85959015
   8.05881213  0.02384714  7.97426465
   2.80334713  5.28347264  7.85959015
   8.05881213  5.28347264  7.97426465
   2.73594037  2.65365989  5.26245935
   7.99140537  2.65365989  5.37713385
   2.73594037  7.91328539  5.26245935
   7.99140537  7.91328539  5.37713385
   0.06208563  2.65365989  2.59930290
   5.31755063  2.65365989  2.71397740
   0.06208563  7.91328539  2.59930290
   5.31755063  7.91328539  2.71397740
 


--------------------------------------------------------------------------------------------------------


 k-point  1 :   0.0000 0.0000 0.0000  plane waves:   48427
 k-point  2 :   0.5000 0.0000 0.0000  plane waves:   48400
 k-point  3 :   0.0000 0.5000 0.0000  plane waves:   48382
 k-point  4 :   0.5000 0.5000 0.0000  plane waves:   48408
 k-point  5 :   0.0000 0.0000 0.5000  plane waves:   48338
 k-point  6 :   0.5000 0.0000 0.5000  plane waves:   48376
 k-point  7 :   0.0000 0.5000 0.5000  plane waves:   48344
 k-point  8 :   0.5000 0.5000 0.5000  plane waves:   48280

 maximum and minimum number of plane-waves per node :     48427    48280

 maximum number of plane-waves:     48427
 maximum index in each direction: 
   IXMAX=   22   IYMAX=   22   IZMAX=   22
   IXMIN=  -23   IYMIN=  -23   IZMIN=  -22


 serial   3D FFT for wavefunctions
 parallel 3D FFT for charge:
    minimum data exchange during FFTs selected (reduces bandwidth)


 total amount of memory used by VASP MPI-rank0   349631. kBytes
=======================================================================

   base      :      30000. kBytes
   nonl-proj :     217907. kBytes
   fftplans  :       4588. kBytes
   grid      :      69719. kBytes
   one-center:       1990. kBytes
   wavefun   :      25427. kBytes
 
     INWAV:  cpu time    0.0001: real time    0.0002
 Broyden mixing: mesh for mixing (old mesh)
   NGX = 45   NGY = 45   NGZ = 45
  (NGX  =192   NGY  =192   NGZ  =180)
  gives a total of  91125 points

 initial charge density was supplied:
 number of electron     688.0000147 magnetization      -0.0000000
 keeping initial charge density in first step


--------------------------------------------------------------------------------------------------------


 Maximum index for augmentation-charges          897 (set IRDMAX)


--------------------------------------------------------------------------------------------------------


 First call to EWALD:  gamma=   0.169
 Maximum number of real-space cells 3x 3x 3
 Maximum number of reciprocal cells 3x 3x 3

    FEWALD:  cpu time    0.0026: real time    0.0031


--------------------------------------- Iteration      1(   1)  ---------------------------------------


    POTLOK:  cpu time    0.3565: real time    0.3976
    SETDIJ:  cpu time    0.0145: real time    0.0146
     EDDAV:  cpu time   84.5823: real time   85.3077
 BZINTS: Fermi energy: 14.877826;688.000000 electrons
         Band energy:***********;  BLOECHL correction: -0.013623
       DOS:  cpu time    0.0422: real time    0.0424
    --------------------------------------------
      LOOP:  cpu time   84.9954: real time   85.7623

 eigenvalue-minimisations  : 16384
 total energy-change (2. order) : 0.6046990E+04  (-0.5164180E+05)
 number of electron     688.0000147 magnetization      -0.0000000
 augmentation part      688.0000147 magnetization      -0.0000000

 Free energy of the ion-electron system (eV)
  ---------------------------------------------------
  alpha Z        PSCENC =      2357.51707985
  Ewald energy   TEWEN  =    -62487.56386628
  -Hartree energ DENC   =    -42877.28026576
  -exchange      EXHF   =         0.00000000
  -V(xc)+E(xc)   XCENC  =      3284.45829233
  PAW double counting   =    112202.23326047  -115894.98524000
  entropy T*S    EENTRO =         0.00000000
  eigenvalues    EBANDS =     -4557.45445410
  atomic energy  EATOM  =    114020.06510763
  Solvation  Ediel_sol  =         0.00000000
  ---------------------------------------------------
  free energy    TOTEN  =      6046.98991414 eV

  energy without entropy =     6046.98991414  energy(sigma->0) =     6046.98991414


--------------------------------------------------------------------------------------------------------




--------------------------------------- Iteration      1(   2)  ---------------------------------------


     EDDAV:  cpu time  106.9942: real time  107.8090
 BZINTS: Fermi energy:  5.342834;688.000000 electrons
         Band energy:***********;  BLOECHL correction:  0.000000
       DOS:  cpu time    0.0069: real time    0.0069
    --------------------------------------------
      LOOP:  cpu time  107.0010: real time  107.8158

 eigenvalue-minimisations  : 18944
 total energy-change (2. order) :-0.6140944E+04  (-0.6031851E+04)
 number of electron     688.0000147 magnetization      -0.0000000
 augmentation part      688.0000147 magnetization      -0.0000000

 Free energy of the ion-electron system (eV)
  ---------------------------------------------------
  alpha Z        PSCENC =      2357.51707985
  Ewald energy   TEWEN  =    -62487.56386628
  -Hartree energ DENC   =    -42877.28026576
  -exchange      EXHF   =         0.00000000
  -V(xc)+E(xc)   XCENC  =      3284.45829233
  PAW double counting   =    112202.23326047  -115894.98524000
  entropy T*S    EENTRO =         0.00000000
  eigenvalues    EBANDS =    -10698.39887642
  atomic energy  EATOM  =    114020.06510763
  Solvation  Ediel_sol  =         0.00000000
  ---------------------------------------------------
  free energy    TOTEN  =       -93.95450818 eV

  energy without entropy =      -93.95450818  energy(sigma->0) =      -93.95450818


--------------------------------------------------------------------------------------------------------




--------------------------------------- Iteration      1(   3)  ---------------------------------------


     EDDAV:  cpu time  143.1947: real time  144.2167
 BZINTS: Fermi energy:  4.863985;688.000000 electrons
         Band energy:***********;  BLOECHL correction:  0.000000
       DOS:  cpu time    0.0067: real time    0.0067
    --------------------------------------------
      LOOP:  cpu time  143.2014: real time  144.2235

 eigenvalue-minimisations  : 21760
 total energy-change (2. order) :-0.2391728E+03  (-0.2384855E+03)
 number of electron     688.0000147 magnetization      -0.0000000
 augmentation part      688.0000147 magnetization      -0.0000000

 Free energy of the ion-electron system (eV)
  ---------------------------------------------------
  alpha Z        PSCENC =      2357.51707985
  Ewald energy   TEWEN  =    -62487.56386628
  -Hartree energ DENC   =    -42877.28026576
  -exchange      EXHF   =         0.00000000
  -V(xc)+E(xc)   XCENC  =      3284.45829233
  PAW double counting   =    112202.23326047  -115894.98524000
  entropy T*S    EENTRO =         0.00000000
  eigenvalues    EBANDS =    -10937.57164061
  atomic energy  EATOM  =    114020.06510763
  Solvation  Ediel_sol  =         0.00000000
  ---------------------------------------------------
  free energy    TOTEN  =      -333.12727237 eV

  energy without entropy =     -333.12727237  energy(sigma->0) =     -333.12727237


--------------------------------------------------------------------------------------------------------




--------------------------------------- Iteration      1(   4)  ---------------------------------------


     EDDAV:  cpu time  139.3226: real time  140.3182
 BZINTS: Fermi energy:  5.016886;688.000000 electrons
         Band energy:***********;  BLOECHL correction:  0.000000
       DOS:  cpu time    0.0067: real time    0.0067
    --------------------------------------------
      LOOP:  cpu time  139.3292: real time  140.3249

 eigenvalue-minimisations  : 20992
 total energy-change (2. order) :-0.3353078E+01  (-0.3352936E+01)
 number of electron     688.0000147 magnetization      -0.0000000
 augmentation part      688.0000147 magnetization      -0.0000000

 Free energy of the ion-electron system (eV)
  ---------------------------------------------------
  alpha Z        PSCENC =      2357.51707985
  Ewald energy   TEWEN  =    -62487.56386628
  -Hartree energ DENC   =    -42877.28026576
  -exchange      EXHF   =         0.00000000
  -V(xc)+E(xc)   XCENC  =      3284.45829233
  PAW double counting   =    112202.23326047  -115894.98524000
  entropy T*S    EENTRO =         0.00000000
  eigenvalues    EBANDS =    -10940.92471857
  atomic energy  EATOM  =    114020.06510763
  Solvation  Ediel_sol  =         0.00000000
  ---------------------------------------------------
  free energy    TOTEN  =      -336.48035033 eV

  energy without entropy =     -336.48035033  energy(sigma->0) =     -336.48035033


--------------------------------------------------------------------------------------------------------




--------------------------------------- Iteration      1(   5)  ---------------------------------------


     EDDAV:  cpu time  130.8381: real time  131.7800
 BZINTS: Fermi energy:  4.917273;688.000000 electrons
         Band energy:***********;  BLOECHL correction:  0.000000
       DOS:  cpu time    0.0067: real time    0.0067
    CHARGE:  cpu time    1.4014: real time    1.4118
    MIXING:  cpu time    0.0024: real time    0.0025
    --------------------------------------------
      LOOP:  cpu time  132.2486: real time  133.2010

 eigenvalue-minimisations  : 20480
 total energy-change (2. order) :-0.1049539E+00  (-0.1049535E+00)
 number of electron     688.0000180 magnetization      -0.0000000
 augmentation part      283.1885812 magnetization      -0.0000000

 Broyden mixing:
  rms(total) = 0.22379E+01    rms(broyden)= 0.22376E+01
  rms(prec ) = 0.25145E+01
  weight for this iteration     100.00

 Free energy of the ion-electron system (eV)
  ---------------------------------------------------
  alpha Z        PSCENC =      2357.51707985
  Ewald energy   TEWEN  =    -62487.56386628
  -Hartree energ DENC   =    -42877.28026576
  -exchange      EXHF   =         0.00000000
  -V(xc)+E(xc)   XCENC  =      3284.45829233
  PAW double counting   =    112202.23326047  -115894.98524000
  entropy T*S    EENTRO =         0.00000000
  eigenvalues    EBANDS =    -10941.02967245
  atomic energy  EATOM  =    114020.06510763
  Solvation  Ediel_sol  =         0.00000000
  ---------------------------------------------------
  free energy    TOTEN  =      -336.58530421 eV

  energy without entropy =     -336.58530421  energy(sigma->0) =     -336.58530421


--------------------------------------------------------------------------------------------------------




--------------------------------------- Iteration      1(   6)  ---------------------------------------


    POTLOK:  cpu time    0.1468: real time    0.1491
    SETDIJ:  cpu time    0.0130: real time    0.0131
     EDDAV:  cpu time  193.0563: real time  194.3835
 BZINTS: Fermi energy:  4.960543;688.000000 electrons
         Band energy:***********;  BLOECHL correction:  0.000000
       DOS:  cpu time    0.0068: real time    0.0068
    CHARGE:  cpu time    1.3980: real time    1.4082
    MIXING:  cpu time    0.0023: real time    0.0074
    --------------------------------------------
      LOOP:  cpu time  194.6233: real time  195.9682

 eigenvalue-minimisations  : 27136
 total energy-change (2. order) : 0.6537317E+01  (-0.5863951E+00)
 number of electron     688.0000179 magnetization      -0.0000000
 augmentation part      281.5827584 magnetization      -0.0000000

 Broyden mixing:
  rms(total) = 0.12062E+01    rms(broyden)= 0.12062E+01
  rms(prec ) = 0.13517E+01
  weight for this iteration     100.00

 eigenvalues of (default mixing * dielectric matrix)
  average eigenvalue GAMMA=   0.8735
  0.8735

 Free energy of the ion-electron system (eV)
  ---------------------------------------------------
  alpha Z        PSCENC =      2357.51707985
  Ewald energy   TEWEN  =    -62487.56386628
  -Hartree energ DENC   =    -42971.11023873
  -exchange      EXHF   =         0.00000000
  -V(xc)+E(xc)   XCENC  =      3287.00301456
  PAW double counting   =    112956.28338721  -116660.61905899
  entropy T*S    EENTRO =         0.00000000
  eigenvalues    EBANDS =    -10831.62341238
  atomic energy  EATOM  =    114020.06510763
  Solvation  Ediel_sol  =         0.00000000
  ---------------------------------------------------
  free energy    TOTEN  =      -330.04798714 eV

  energy without entropy =     -330.04798714  energy(sigma->0) =     -330.04798714


--------------------------------------------------------------------------------------------------------




--------------------------------------- Iteration      1(   7)  ---------------------------------------


    POTLOK:  cpu time    0.1511: real time    0.1520
    SETDIJ:  cpu time    0.0126: real time    0.0126
     EDDAV:  cpu time  140.2219: real time  141.2218
 BZINTS: Fermi energy:  4.956030;688.000000 electrons
         Band energy:***********;  BLOECHL correction:  0.000000
       DOS:  cpu time    0.0066: real time    0.0066
    CHARGE:  cpu time    1.3992: real time    1.4095
    MIXING:  cpu time    0.0017: real time    0.0288
    --------------------------------------------
      LOOP:  cpu time  141.7929: real time  142.8313

 eigenvalue-minimisations  : 21504
 total energy-change (2. order) : 0.1924420E+01  (-0.4199113E+00)
 number of electron     688.0000180 magnetization      -0.0000000
 augmentation part      282.8030856 magnetization      -0.0000000

 Broyden mixing:
  rms(total) = 0.80522E+00    rms(broyden)= 0.80522E+00
  rms(prec ) = 0.84418E+00
  weight for this iteration     100.00

 eigenvalues of (default mixing * dielectric matrix)
  average eigenvalue GAMMA=   1.0144
  1.4762  0.5526

 Free energy of the ion-electron system (eV)
  ---------------------------------------------------
  alpha Z        PSCENC =      2357.51707985
  Ewald energy   TEWEN  =    -62487.56386628
  -Hartree energ DENC   =    -42901.67731363
  -exchange      EXHF   =         0.00000000
  -V(xc)+E(xc)   XCENC  =      3285.75684400
  PAW double counting   =    112723.33846989  -116411.25857198
  entropy T*S    EENTRO =         0.00000000
  eigenvalues    EBANDS =    -10914.30131618
  atomic energy  EATOM  =    114020.06510763
  Solvation  Ediel_sol  =         0.00000000
  ---------------------------------------------------
  free energy    TOTEN  =      -328.12356671 eV

  energy without entropy =     -328.12356671  energy(sigma->0) =     -328.12356671


--------------------------------------------------------------------------------------------------------




--------------------------------------- Iteration      1(   8)  ---------------------------------------


    POTLOK:  cpu time    0.1466: real time    0.1511
    SETDIJ:  cpu time    0.0127: real time    0.0128
     EDDAV:  cpu time  159.3269: real time  160.4511
 BZINTS: Fermi energy:  4.973409;688.000000 electrons
         Band energy:***********;  BLOECHL correction:  0.000000
       DOS:  cpu time    0.0065: real time    0.0065
    CHARGE:  cpu time    1.3979: real time    1.4079
    MIXING:  cpu time    0.0013: real time    0.0013
    --------------------------------------------
      LOOP:  cpu time  160.8920: real time  162.0307

 eigenvalue-minimisations  : 23808
 total energy-change (2. order) : 0.2115807E+00  (-0.1267740E+00)
 number of electron     688.0000180 magnetization       0.0000000
 augmentation part      282.4310693 magnetization       0.0000000

 Broyden mixing:
  rms(total) = 0.31240E+00    rms(broyden)= 0.31239E+00
  rms(prec ) = 0.33190E+00
  weight for this iteration     100.00

 eigenvalues of (default mixing * dielectric matrix)
  average eigenvalue GAMMA=   1.0394
  1.8762  0.6816  0.5603

 Free energy of the ion-electron system (eV)
  ---------------------------------------------------
  alpha Z        PSCENC =      2357.51707985
  Ewald energy   TEWEN  =    -62487.56386628
  -Hartree energ DENC   =    -42935.37096162
  -exchange      EXHF   =         0.00000000
  -V(xc)+E(xc)   XCENC  =      3286.57338378
  PAW double counting   =    112571.60438402  -116265.46060563
  entropy T*S    EENTRO =         0.00000000
  eigenvalues    EBANDS =    -10875.27650778
  atomic energy  EATOM  =    114020.06510763
  Solvation  Ediel_sol  =         0.00000000
  ---------------------------------------------------
  free energy    TOTEN  =      -327.91198603 eV

  energy without entropy =     -327.91198603  energy(sigma->0) =     -327.91198603


--------------------------------------------------------------------------------------------------------




--------------------------------------- Iteration      1(   9)  ---------------------------------------


    POTLOK:  cpu time    0.1508: real time    0.1517
    SETDIJ:  cpu time    0.0128: real time    0.0128
     EDDAV:  cpu time  148.6494: real time  149.6911
 BZINTS: Fermi energy:  4.960919;688.000000 electrons
         Band energy:***********;  BLOECHL correction:  0.000000
       DOS:  cpu time    0.0066: real time    0.0066
    CHARGE:  cpu time    1.4016: real time    1.4114
    MIXING:  cpu time    0.0017: real time    0.0030
    --------------------------------------------
      LOOP:  cpu time  150.2228: real time  151.2767

 eigenvalue-minimisations  : 22016
 total energy-change (2. order) :-0.9581587E-03  (-0.3895540E-01)
 number of electron     688.0000180 magnetization       0.0000000
 augmentation part      282.1390383 magnetization       0.0000000

 Broyden mixing:
  rms(total) = 0.22632E+00    rms(broyden)= 0.22632E+00
  rms(prec ) = 0.24882E+00
  weight for this iteration     100.00

 eigenvalues of (default mixing * dielectric matrix)
  average eigenvalue GAMMA=   0.9604
  1.9324  0.7580  0.5755  0.5755

 Free energy of the ion-electron system (eV)
  ---------------------------------------------------
  alpha Z        PSCENC =      2357.51707985
  Ewald energy   TEWEN  =    -62487.56386628
  -Hartree energ DENC   =    -42942.86578887
  -exchange      EXHF   =         0.00000000
  -V(xc)+E(xc)   XCENC  =      3286.42781399
  PAW double counting   =    112544.15897195  -116238.94825189
  entropy T*S    EENTRO =         0.00000000
  eigenvalues    EBANDS =    -10866.70401057
  atomic energy  EATOM  =    114020.06510763
  Solvation  Ediel_sol  =         0.00000000
  ---------------------------------------------------
  free energy    TOTEN  =      -327.91294419 eV

  energy without entropy =     -327.91294419  energy(sigma->0) =     -327.91294419


--------------------------------------------------------------------------------------------------------




--------------------------------------- Iteration      1(  10)  ---------------------------------------


    POTLOK:  cpu time    0.1513: real time    0.1526
    SETDIJ:  cpu time    0.0128: real time    0.0128
     EDDAV:  cpu time  133.8473: real time  134.7965
 BZINTS: Fermi energy:  4.969194;688.000000 electrons
         Band energy:***********;  BLOECHL correction:  0.000000
       DOS:  cpu time    0.0066: real time    0.0067
    CHARGE:  cpu time    1.3998: real time    1.4101
    MIXING:  cpu time    0.0016: real time    0.0016
    --------------------------------------------
      LOOP:  cpu time  135.4193: real time  136.3803

 eigenvalue-minimisations  : 20480
 total energy-change (2. order) :-0.2597119E-02  (-0.3124764E-01)
 number of electron     688.0000180 magnetization       0.0000000
 augmentation part      282.1910210 magnetization       0.0000000

 Broyden mixing:
  rms(total) = 0.17184E+00    rms(broyden)= 0.17183E+00
  rms(prec ) = 0.19122E+00
  weight for this iteration     100.00

 eigenvalues of (default mixing * dielectric matrix)
  average eigenvalue GAMMA=   1.0035
  1.7194  1.7194  0.6765  0.4510  0.4510

 Free energy of the ion-electron system (eV)
  ---------------------------------------------------
  alpha Z        PSCENC =      2357.51707985
  Ewald energy   TEWEN  =    -62487.56386628
  -Hartree energ DENC   =    -42946.67649419
  -exchange      EXHF   =         0.00000000
  -V(xc)+E(xc)   XCENC  =      3286.76380269
  PAW double counting   =    112484.43903148  -116178.74071275
  entropy T*S    EENTRO =         0.00000000
  eigenvalues    EBANDS =    -10863.71948973
  atomic energy  EATOM  =    114020.06510763
  Solvation  Ediel_sol  =         0.00000000
  ---------------------------------------------------
  free energy    TOTEN  =      -327.91554131 eV

  energy without entropy =     -327.91554131  energy(sigma->0) =     -327.91554131


--------------------------------------------------------------------------------------------------------




--------------------------------------- Iteration      1(  11)  ---------------------------------------


    POTLOK:  cpu time    0.1502: real time    0.1511
    SETDIJ:  cpu time    0.0127: real time    0.0128
     EDDAV:  cpu time  147.2025: real time  148.2283
 BZINTS: Fermi energy:  4.955490;688.000000 electrons
         Band energy:***********;  BLOECHL correction:  0.000000
       DOS:  cpu time    0.0066: real time    0.0066
    CHARGE:  cpu time    1.3987: real time    1.4088
    MIXING:  cpu time    0.0015: real time    0.0015
    --------------------------------------------
      LOOP:  cpu time  148.7722: real time  149.8091

 eigenvalue-minimisations  : 21504
 total energy-change (2. order) : 0.1441535E-03  (-0.1451715E-01)
 number of electron     688.0000180 magnetization       0.0000000
 augmentation part      282.2503516 magnetization       0.0000000

 Broyden mixing:
  rms(total) = 0.69489E-01    rms(broyden)= 0.69486E-01
  rms(prec ) = 0.75923E-01
  weight for this iteration     100.00

 eigenvalues of (default mixing * dielectric matrix)
  average eigenvalue GAMMA=   1.1261
  2.1411  2.1411  0.8867  0.6225  0.6225  0.3431

 Free energy of the ion-electron system (eV)
  ---------------------------------------------------
  alpha Z        PSCENC =      2357.51707985
  Ewald energy   TEWEN  =    -62487.56386628
  -Hartree energ DENC   =    -42938.25125412
  -exchange      EXHF   =         0.00000000
  -V(xc)+E(xc)   XCENC  =      3286.40577944
  PAW double counting   =    112371.76552702  -116064.95171077
  entropy T*S    EENTRO =         0.00000000
  eigenvalues    EBANDS =    -10872.90205991
  atomic energy  EATOM  =    114020.06510763
  Solvation  Ediel_sol  =         0.00000000
  ---------------------------------------------------
  free energy    TOTEN  =      -327.91539716 eV

  energy without entropy =     -327.91539716  energy(sigma->0) =     -327.91539716


--------------------------------------------------------------------------------------------------------




--------------------------------------- Iteration      1(  12)  ---------------------------------------


    POTLOK:  cpu time    0.1485: real time    0.1523
    SETDIJ:  cpu time    0.0127: real time    0.0128
     EDDAV:  cpu time  168.3665: real time  169.5255
 BZINTS: Fermi energy:  4.958505;688.000000 electrons
         Band energy:***********;  BLOECHL correction:  0.000000
       DOS:  cpu time    0.0066: real time    0.0067
    CHARGE:  cpu time    1.4001: real time    1.4101
    MIXING:  cpu time    0.0016: real time    0.0016
    --------------------------------------------
      LOOP:  cpu time  169.9361: real time  171.1090

 eigenvalue-minimisations  : 24064
 total energy-change (2. order) :-0.3669547E-02  (-0.2801177E-02)
 number of electron     688.0000180 magnetization       0.0000000
 augmentation part      282.2111080 magnetization       0.0000000

 Broyden mixing:
  rms(total) = 0.23420E-01    rms(broyden)= 0.23419E-01
  rms(prec ) = 0.25309E-01
  weight for this iteration     100.00

 eigenvalues of (default mixing * dielectric matrix)
  average eigenvalue GAMMA=   1.1057
  2.2323  2.2323  1.0028  0.6878  0.6233  0.6233  0.3377

 Free energy of the ion-electron system (eV)
  ---------------------------------------------------
  alpha Z        PSCENC =      2357.51707985
  Ewald energy   TEWEN  =    -62487.56386628
  -Hartree energ DENC   =    -42942.48049614
  -exchange      EXHF   =         0.00000000
  -V(xc)+E(xc)   XCENC  =      3286.54893969
  PAW double counting   =    112301.20891629  -115995.09958600
  entropy T*S    EENTRO =         0.00000000
  eigenvalues    EBANDS =    -10868.11516174
  atomic energy  EATOM  =    114020.06510763
  Solvation  Ediel_sol  =         0.00000000
  ---------------------------------------------------
  free energy    TOTEN  =      -327.91906670 eV

  energy without entropy =     -327.91906670  energy(sigma->0) =     -327.91906670


--------------------------------------------------------------------------------------------------------




--------------------------------------- Iteration      1(  13)  ---------------------------------------


    POTLOK:  cpu time    0.1505: real time    0.1514
    SETDIJ:  cpu time    0.0126: real time    0.0126
     EDDAV:  cpu time  150.5897: real time  151.6294
 BZINTS: Fermi energy:  4.957248;688.000000 electrons
         Band energy:***********;  BLOECHL correction:  0.000000
       DOS:  cpu time    0.0067: real time    0.0067
    CHARGE:  cpu time    1.4001: real time    1.4105
    MIXING:  cpu time    0.0017: real time    0.0017
    --------------------------------------------
      LOOP:  cpu time  152.1612: real time  153.2122

 eigenvalue-minimisations  : 21504
 total energy-change (2. order) :-0.6837067E-03  (-0.2482989E-03)
 number of electron     688.0000180 magnetization       0.0000000
 augmentation part      282.2269051 magnetization       0.0000000

 Broyden mixing:
  rms(total) = 0.13758E-01    rms(broyden)= 0.13758E-01
  rms(prec ) = 0.14652E-01
  weight for this iteration     100.00

 eigenvalues of (default mixing * dielectric matrix)
  average eigenvalue GAMMA=   1.1201
  2.2743  2.2743  1.1042  1.1042  0.6683  0.5992  0.5992  0.3369

 Free energy of the ion-electron system (eV)
  ---------------------------------------------------
  alpha Z        PSCENC =      2357.51707985
  Ewald energy   TEWEN  =    -62487.56386628
  -Hartree energ DENC   =    -42941.10110265
  -exchange      EXHF   =         0.00000000
  -V(xc)+E(xc)   XCENC  =      3286.51507153
  PAW double counting   =    112281.37148116  -115974.98215344
  entropy T*S    EENTRO =         0.00000000
  eigenvalues    EBANDS =    -10869.74136820
  atomic energy  EATOM  =    114020.06510763
  Solvation  Ediel_sol  =         0.00000000
  ---------------------------------------------------
  free energy    TOTEN  =      -327.91975041 eV

  energy without entropy =     -327.91975041  energy(sigma->0) =     -327.91975041


--------------------------------------------------------------------------------------------------------




--------------------------------------- Iteration      1(  14)  ---------------------------------------


    POTLOK:  cpu time    0.1506: real time    0.1516
    SETDIJ:  cpu time    0.0129: real time    0.0129
     EDDAV:  cpu time  142.6698: real time  143.6708
 BZINTS: Fermi energy:  4.957223;688.000000 electrons
         Band energy:***********;  BLOECHL correction:  0.000000
       DOS:  cpu time    0.0067: real time    0.0067
    CHARGE:  cpu time    1.4009: real time    1.4112
    MIXING:  cpu time    0.0018: real time    0.0018
    --------------------------------------------
      LOOP:  cpu time  144.2425: real time  145.2551

 eigenvalue-minimisations  : 20992
 total energy-change (2. order) :-0.4660413E-03  (-0.1406239E-03)
 number of electron     688.0000180 magnetization       0.0000000
 augmentation part      282.2275202 magnetization       0.0000000

 Broyden mixing:
  rms(total) = 0.71724E-02    rms(broyden)= 0.71720E-02
  rms(prec ) = 0.74718E-02
  weight for this iteration     100.00

 eigenvalues of (default mixing * dielectric matrix)
  average eigenvalue GAMMA=   1.1911
  2.4547  2.4547  1.4390  1.4390  0.3370  0.6080  0.6080  0.7263  0.6531

 Free energy of the ion-electron system (eV)
  ---------------------------------------------------
  alpha Z        PSCENC =      2357.51707985
  Ewald energy   TEWEN  =    -62487.56386628
  -Hartree energ DENC   =    -42941.28479906
  -exchange      EXHF   =         0.00000000
  -V(xc)+E(xc)   XCENC  =      3286.51933475
  PAW double counting   =    112269.09995576  -115962.83613423
  entropy T*S    EENTRO =         0.00000000
  eigenvalues    EBANDS =    -10869.43689486
  atomic energy  EATOM  =    114020.06510763
  Solvation  Ediel_sol  =         0.00000000
  ---------------------------------------------------
  free energy    TOTEN  =      -327.92021645 eV

  energy without entropy =     -327.92021645  energy(sigma->0) =     -327.92021645


--------------------------------------------------------------------------------------------------------




--------------------------------------- Iteration      1(  15)  ---------------------------------------


    POTLOK:  cpu time    0.1488: real time    0.1498
    SETDIJ:  cpu time    0.0128: real time    0.0128
     EDDAV:  cpu time  144.7198: real time  145.7376
 BZINTS: Fermi energy:  4.957031;688.000000 electrons
         Band energy:***********;  BLOECHL correction:  0.000000
       DOS:  cpu time    0.0066: real time    0.0067
    CHARGE:  cpu time    1.3962: real time    1.4067
    MIXING:  cpu time    0.0018: real time    0.0018
    --------------------------------------------
      LOOP:  cpu time  146.2861: real time  147.3155

 eigenvalue-minimisations  : 20992
 total energy-change (2. order) :-0.1982820E-03  (-0.5327694E-04)
 number of electron     688.0000180 magnetization       0.0000000
 augmentation part      282.2212752 magnetization       0.0000000

 Broyden mixing:
  rms(total) = 0.44203E-02    rms(broyden)= 0.44200E-02
  rms(prec ) = 0.48480E-02
  weight for this iteration     100.00

 eigenvalues of (default mixing * dielectric matrix)
  average eigenvalue GAMMA=   1.1977
  2.7327  2.3011  1.7516  1.1644  1.1644  0.3369  0.6043  0.6043  0.7018  0.6153

 Free energy of the ion-electron system (eV)
  ---------------------------------------------------
  alpha Z        PSCENC =      2357.51707985
  Ewald energy   TEWEN  =    -62487.56386628
  -Hartree energ DENC   =    -42941.49272287
  -exchange      EXHF   =         0.00000000
  -V(xc)+E(xc)   XCENC  =      3286.52055319
  PAW double counting   =    112264.90945677  -115958.65560036
  entropy T*S    EENTRO =         0.00000000
  eigenvalues    EBANDS =    -10869.22042267
  atomic energy  EATOM  =    114020.06510763
  Solvation  Ediel_sol  =         0.00000000
  ---------------------------------------------------
  free energy    TOTEN  =      -327.92041473 eV

  energy without entropy =     -327.92041473  energy(sigma->0) =     -327.92041473


--------------------------------------------------------------------------------------------------------




--------------------------------------- Iteration      1(  16)  ---------------------------------------


    POTLOK:  cpu time    0.1510: real time    0.1519
    SETDIJ:  cpu time    0.0127: real time    0.0128
     EDDAV:  cpu time  143.1840: real time  144.1764
 BZINTS: Fermi energy:  4.956985;688.000000 electrons
         Band energy:***********;  BLOECHL correction:  0.000000
       DOS:  cpu time    0.0066: real time    0.0066
    CHARGE:  cpu time    1.4007: real time    1.4107
    MIXING:  cpu time    0.0020: real time    0.0027
    --------------------------------------------
      LOOP:  cpu time  144.7571: real time  145.7611

 eigenvalue-minimisations  : 20992
 total energy-change (2. order) :-0.6694201E-04  (-0.1919604E-04)
 number of electron     688.0000180 magnetization       0.0000000
 augmentation part      282.2252021 magnetization       0.0000000

 Broyden mixing:
  rms(total) = 0.26504E-02    rms(broyden)= 0.26502E-02
  rms(prec ) = 0.28075E-02
  weight for this iteration     100.00

 eigenvalues of (default mixing * dielectric matrix)
  average eigenvalue GAMMA=   1.2541
  3.0447  2.1503  2.1503  1.3442  1.3442  0.9087  0.3369  0.6022  0.6022  0.7024
  0.6088

 Free energy of the ion-electron system (eV)
  ---------------------------------------------------
  alpha Z        PSCENC =      2357.51707985
  Ewald energy   TEWEN  =    -62487.56386628
  -Hartree energ DENC   =    -42941.35601208
  -exchange      EXHF   =         0.00000000
  -V(xc)+E(xc)   XCENC  =      3286.52093597
  PAW double counting   =    112264.06900044  -115957.79126249
  entropy T*S    EENTRO =         0.00000000
  eigenvalues    EBANDS =    -10869.38146472
  atomic energy  EATOM  =    114020.06510763
  Solvation  Ediel_sol  =         0.00000000
  ---------------------------------------------------
  free energy    TOTEN  =      -327.92048168 eV

  energy without entropy =     -327.92048168  energy(sigma->0) =     -327.92048168


--------------------------------------------------------------------------------------------------------




--------------------------------------- Iteration      1(  17)  ---------------------------------------


    POTLOK:  cpu time    0.1469: real time    0.1491
    SETDIJ:  cpu time    0.0128: real time    0.0129
     EDDAV:  cpu time  136.1027: real time  137.0564
 BZINTS: Fermi energy:  4.956931;688.000000 electrons
         Band energy:***********;  BLOECHL correction:  0.000000
       DOS:  cpu time    0.0067: real time    0.0067
    CHARGE:  cpu time    1.4188: real time    1.4297
    MIXING:  cpu time    0.0020: real time    0.0020
    --------------------------------------------
      LOOP:  cpu time  137.6900: real time  138.6567

 eigenvalue-minimisations  : 20224
 total energy-change (2. order) :-0.4719474E-04  (-0.2208764E-04)
 number of electron     688.0000180 magnetization       0.0000000
 augmentation part      282.2247159 magnetization       0.0000000

 Broyden mixing:
  rms(total) = 0.14425E-02    rms(broyden)= 0.14421E-02
  rms(prec ) = 0.15301E-02
  weight for this iteration     100.00

 eigenvalues of (default mixing * dielectric matrix)
  average eigenvalue GAMMA=   1.3563
  4.0172  2.3220  2.3220  1.5210  1.5210  1.0444  0.3369  0.6042  0.6042  0.7134
  0.6690  0.6002

 Free energy of the ion-electron system (eV)
  ---------------------------------------------------
  alpha Z        PSCENC =      2357.51707985
  Ewald energy   TEWEN  =    -62487.56386628
  -Hartree energ DENC   =    -42941.37718555
  -exchange      EXHF   =         0.00000000
  -V(xc)+E(xc)   XCENC  =      3286.52106696
  PAW double counting   =    112264.78211006  -115958.50755230
  entropy T*S    EENTRO =         0.00000000
  eigenvalues    EBANDS =    -10869.35728923
  atomic energy  EATOM  =    114020.06510763
  Solvation  Ediel_sol  =         0.00000000
  ---------------------------------------------------
  free energy    TOTEN  =      -327.92052887 eV

  energy without entropy =     -327.92052887  energy(sigma->0) =     -327.92052887


--------------------------------------------------------------------------------------------------------




--------------------------------------- Iteration      1(  18)  ---------------------------------------


    POTLOK:  cpu time    0.1492: real time    0.1506
    SETDIJ:  cpu time    0.0127: real time    0.0127
     EDDAV:  cpu time  126.6951: real time  127.5966
 BZINTS: Fermi energy:  4.956871;688.000000 electrons
         Band energy:***********;  BLOECHL correction:  0.000000
       DOS:  cpu time    0.0066: real time    0.0066
    CHARGE:  cpu time    1.6359: real time    1.6461
    MIXING:  cpu time    0.0020: real time    0.0020
    --------------------------------------------
      LOOP:  cpu time  128.5015: real time  129.4148

 eigenvalue-minimisations  : 19456
 total energy-change (2. order) :-0.1027202E-04  (-0.7323698E-05)
 number of electron     688.0000180 magnetization       0.0000000
 augmentation part      282.2247216 magnetization       0.0000000

 Broyden mixing:
  rms(total) = 0.66305E-03    rms(broyden)= 0.66269E-03
  rms(prec ) = 0.70225E-03
  weight for this iteration     100.00

 eigenvalues of (default mixing * dielectric matrix)
  average eigenvalue GAMMA=   1.3528
  4.2745  2.3958  2.3958  1.6753  1.2152  1.2152  0.3369  0.9090  0.6028  0.6028
  0.7198  0.6031  0.6400

 Free energy of the ion-electron system (eV)
  ---------------------------------------------------
  alpha Z        PSCENC =      2357.51707985
  Ewald energy   TEWEN  =    -62487.56386628
  -Hartree energ DENC   =    -42941.35892979
  -exchange      EXHF   =         0.00000000
  -V(xc)+E(xc)   XCENC  =      3286.52047455
  PAW double counting   =    112265.58829885  -115959.31535865
  entropy T*S    EENTRO =         0.00000000
  eigenvalues    EBANDS =    -10869.37334530
  atomic energy  EATOM  =    114020.06510763
  Solvation  Ediel_sol  =         0.00000000
  ---------------------------------------------------
  free energy    TOTEN  =      -327.92053914 eV

  energy without entropy =     -327.92053914  energy(sigma->0) =     -327.92053914


--------------------------------------------------------------------------------------------------------




--------------------------------------- Iteration      1(  19)  ---------------------------------------


    POTLOK:  cpu time    0.1520: real time    0.1530
    SETDIJ:  cpu time    0.0135: real time    0.0136
     EDDAV:  cpu time  129.3719: real time  130.2899
 BZINTS: Fermi energy:  4.956852;688.000000 electrons
         Band energy:***********;  BLOECHL correction:  0.000000
       DOS:  cpu time    0.0066: real time    0.0067
    CHARGE:  cpu time    1.3985: real time    1.4086
    MIXING:  cpu time    0.0021: real time    0.0022
    --------------------------------------------
      LOOP:  cpu time  130.9448: real time  131.8739

 eigenvalue-minimisations  : 19712
 total energy-change (2. order) :-0.8034840E-06  (-0.3704683E-06)
 number of electron     688.0000180 magnetization       0.0000000
 augmentation part      282.2246643 magnetization       0.0000000

 Broyden mixing:
[...]
   -.418E+02 0.155E+02 -.124E+01   0.426E+02 -.156E+02 0.125E+01   -.854E+00 0.999E-01 -.149E-01   -.288E-05 0.835E-05 -.238E-06
   -.418E+02 0.155E+02 -.124E+01   0.426E+02 -.156E+02 0.125E+01   -.854E+00 0.999E-01 -.149E-01   -.290E-05 0.835E-05 -.237E-06
   -.418E+02 0.155E+02 -.124E+01   0.426E+02 -.156E+02 0.125E+01   -.854E+00 0.999E-01 -.149E-01   -.288E-05 0.831E-05 -.238E-06
   -.418E+02 0.155E+02 -.124E+01   0.426E+02 -.156E+02 0.125E+01   -.854E+00 0.999E-01 -.149E-01   -.290E-05 0.831E-05 -.237E-06
   0.418E+02 0.155E+02 0.124E+01   -.426E+02 -.156E+02 -.125E+01   0.854E+00 0.999E-01 0.149E-01   0.289E-05 0.833E-05 0.238E-06
   0.418E+02 0.155E+02 0.124E+01   -.426E+02 -.156E+02 -.125E+01   0.854E+00 0.999E-01 0.149E-01   0.289E-05 0.833E-05 0.238E-06
   0.418E+02 0.155E+02 0.124E+01   -.426E+02 -.156E+02 -.125E+01   0.854E+00 0.999E-01 0.149E-01   0.289E-05 0.833E-05 0.236E-06
   0.418E+02 0.155E+02 0.124E+01   -.426E+02 -.156E+02 -.125E+01   0.854E+00 0.999E-01 0.149E-01   0.289E-05 0.833E-05 0.236E-06
   0.146E-07 -.309E+02 -.803E-07   -.110E-12 0.317E+02 -.103E-12   0.218E-24 -.772E+00 -.620E-24   -.759E-10 0.726E-05 -.109E-08
   0.146E-07 -.309E+02 -.803E-07   -.693E-13 0.317E+02 -.684E-13   0.784E-25 -.772E+00 0.569E-24   0.729E-10 0.726E-05 0.109E-08
   0.146E-07 -.309E+02 -.803E-07   -.142E-12 0.317E+02 -.568E-13   0.808E-26 -.772E+00 0.931E-24   -.759E-10 0.723E-05 -.109E-08
   0.146E-07 -.309E+02 -.803E-07   -.853E-13 0.317E+02 -.497E-13   0.327E-25 -.772E+00 -.698E-24   0.729E-10 0.723E-05 0.109E-08
   -.148E-08 0.538E+02 0.191E-06   0.119E-12 -.547E+02 0.231E-13   -.574E-25 0.953E+00 -.775E-25   0.153E-07 0.139E-04 -.332E-09
   -.148E-08 0.538E+02 0.191E-06   0.171E-12 -.547E+02 0.284E-13   0.230E-25 0.953E+00 0.000E+00   -.153E-07 0.139E-04 0.331E-09
   -.148E-08 0.538E+02 0.191E-06   0.121E-12 -.547E+02 0.110E-12   -.409E-24 0.953E+00 -.258E-25   0.153E-07 0.139E-04 -.332E-09
   -.148E-08 0.538E+02 0.191E-06   0.142E-12 -.547E+02 0.114E-12   0.334E-24 0.953E+00 -.258E-25   -.153E-07 0.139E-04 0.331E-09
   0.294E+01 -.144E+02 0.102E+01   -.290E+01 0.138E+02 -.104E+01   -.353E-01 0.581E+00 0.161E-01   0.521E-05 -.259E-05 0.234E-05
   0.294E+01 -.144E+02 0.102E+01   -.290E+01 0.138E+02 -.104E+01   -.353E-01 0.581E+00 0.161E-01   0.515E-05 -.259E-05 0.234E-05
   0.294E+01 -.144E+02 0.102E+01   -.290E+01 0.138E+02 -.104E+01   -.353E-01 0.581E+00 0.161E-01   0.521E-05 -.266E-05 0.234E-05
   0.294E+01 -.144E+02 0.102E+01   -.290E+01 0.138E+02 -.104E+01   -.353E-01 0.581E+00 0.161E-01   0.515E-05 -.266E-05 0.234E-05
   -.294E+01 -.144E+02 -.102E+01   0.290E+01 0.138E+02 0.104E+01   0.353E-01 0.581E+00 -.161E-01   -.515E-05 -.259E-05 -.234E-05
   -.294E+01 -.144E+02 -.102E+01   0.290E+01 0.138E+02 0.104E+01   0.353E-01 0.581E+00 -.161E-01   -.522E-05 -.259E-05 -.234E-05
   -.294E+01 -.144E+02 -.102E+01   0.290E+01 0.138E+02 0.104E+01   0.353E-01 0.581E+00 -.161E-01   -.515E-05 -.266E-05 -.235E-05
   -.294E+01 -.144E+02 -.102E+01   0.290E+01 0.138E+02 0.104E+01   0.353E-01 0.581E+00 -.161E-01   -.522E-05 -.266E-05 -.234E-05
   0.294E+01 -.144E+02 0.102E+01   -.290E+01 0.138E+02 -.104E+01   -.353E-01 0.581E+00 0.161E-01   0.522E-05 -.259E-05 0.234E-05
   0.294E+01 -.144E+02 0.102E+01   -.290E+01 0.138E+02 -.104E+01   -.353E-01 0.581E+00 0.161E-01   0.515E-05 -.259E-05 0.234E-05
   0.294E+01 -.144E+02 0.102E+01   -.290E+01 0.138E+02 -.104E+01   -.353E-01 0.581E+00 0.161E-01   0.522E-05 -.266E-05 0.235E-05
   0.294E+01 -.144E+02 0.102E+01   -.290E+01 0.138E+02 -.104E+01   -.353E-01 0.581E+00 0.161E-01   0.515E-05 -.266E-05 0.234E-05
   -.294E+01 -.144E+02 -.102E+01   0.290E+01 0.138E+02 0.104E+01   0.353E-01 0.581E+00 -.161E-01   -.515E-05 -.259E-05 -.234E-05
   -.294E+01 -.144E+02 -.102E+01   0.290E+01 0.138E+02 0.104E+01   0.353E-01 0.581E+00 -.161E-01   -.521E-05 -.259E-05 -.234E-05
   -.294E+01 -.144E+02 -.102E+01   0.290E+01 0.138E+02 0.104E+01   0.353E-01 0.581E+00 -.161E-01   -.515E-05 -.266E-05 -.235E-05
   -.294E+01 -.144E+02 -.102E+01   0.290E+01 0.138E+02 0.104E+01   0.353E-01 0.581E+00 -.161E-01   -.521E-05 -.266E-05 -.234E-05
   -.378E+01 -.141E+02 0.116E+01   0.371E+01 0.133E+02 -.119E+01   0.738E-01 0.766E+00 0.230E-01   0.242E-05 0.259E-05 0.519E-05
   -.378E+01 -.141E+02 0.116E+01   0.371E+01 0.133E+02 -.119E+01   0.738E-01 0.766E+00 0.230E-01   0.236E-05 0.259E-05 0.519E-05
   -.378E+01 -.141E+02 0.116E+01   0.371E+01 0.133E+02 -.119E+01   0.738E-01 0.766E+00 0.230E-01   0.242E-05 0.253E-05 0.518E-05
   -.378E+01 -.141E+02 0.116E+01   0.371E+01 0.133E+02 -.119E+01   0.738E-01 0.766E+00 0.230E-01   0.236E-05 0.253E-05 0.519E-05
   0.378E+01 -.141E+02 -.116E+01   -.371E+01 0.133E+02 0.119E+01   -.738E-01 0.766E+00 -.230E-01   -.236E-05 0.259E-05 -.519E-05
   0.378E+01 -.141E+02 -.116E+01   -.371E+01 0.133E+02 0.119E+01   -.738E-01 0.766E+00 -.230E-01   -.242E-05 0.259E-05 -.519E-05
   0.378E+01 -.141E+02 -.116E+01   -.371E+01 0.133E+02 0.119E+01   -.738E-01 0.766E+00 -.230E-01   -.236E-05 0.253E-05 -.519E-05
   0.378E+01 -.141E+02 -.116E+01   -.371E+01 0.133E+02 0.119E+01   -.738E-01 0.766E+00 -.230E-01   -.242E-05 0.253E-05 -.519E-05
   -.378E+01 -.141E+02 0.116E+01   0.371E+01 0.133E+02 -.119E+01   0.738E-01 0.766E+00 0.230E-01   0.242E-05 0.258E-05 0.519E-05
   -.378E+01 -.141E+02 0.116E+01   0.371E+01 0.133E+02 -.119E+01   0.738E-01 0.766E+00 0.230E-01   0.236E-05 0.258E-05 0.519E-05
   -.378E+01 -.141E+02 0.116E+01   0.371E+01 0.133E+02 -.119E+01   0.738E-01 0.766E+00 0.230E-01   0.242E-05 0.253E-05 0.518E-05
   -.378E+01 -.141E+02 0.116E+01   0.371E+01 0.133E+02 -.119E+01   0.738E-01 0.766E+00 0.230E-01   0.236E-05 0.253E-05 0.519E-05
   0.378E+01 -.141E+02 -.116E+01   -.371E+01 0.133E+02 0.119E+01   -.738E-01 0.766E+00 -.230E-01   -.236E-05 0.258E-05 -.519E-05
   0.378E+01 -.141E+02 -.116E+01   -.371E+01 0.133E+02 0.119E+01   -.738E-01 0.766E+00 -.230E-01   -.242E-05 0.258E-05 -.519E-05
   0.378E+01 -.141E+02 -.116E+01   -.371E+01 0.133E+02 0.119E+01   -.738E-01 0.766E+00 -.230E-01   -.236E-05 0.253E-05 -.518E-05
   0.378E+01 -.141E+02 -.116E+01   -.371E+01 0.133E+02 0.119E+01   -.738E-01 0.766E+00 -.230E-01   -.242E-05 0.253E-05 -.519E-05
 -----------------------------------------------------------------------------------------------
   0.382E-06 -.246E+02 0.106E-03   -.362E-12 0.306E-12 0.132E-11   -.118E-14 0.246E+02 0.312E-16   0.618E-11 0.301E-03 0.229E-11
 
 
 POSITION                                       TOTAL-FORCE (eV/Angst)
 -----------------------------------------------------------------------------------
      1.35535      1.28566      1.33417         0.000239     -0.003278      0.000681
      6.61081      1.28566      1.44885         0.000239     -0.003278      0.000681
      1.35535      6.54529      1.33417         0.000239     -0.003278      0.000681
      6.61081      6.54529      1.44885         0.000239     -0.003278      0.000681
      3.95688      3.91548      1.38197        -0.000239     -0.003278     -0.000681
      9.21235      3.91548      1.49665        -0.000239     -0.003278     -0.000681
      3.95688      9.17510      1.38197        -0.000239     -0.003278     -0.000681
      9.21235      9.17510      1.49665        -0.000239     -0.003278     -0.000681
      1.51254      3.91440      9.13383        -0.000000     -0.003568     -0.000000
      6.76801      3.91440      9.24851        -0.000000     -0.003568     -0.000000
      1.51254      9.17403      9.13383        -0.000000     -0.003568     -0.000000
      6.76801      9.17403      9.24851        -0.000000     -0.003568     -0.000000
      4.14027      1.30651      9.19117        -0.000000     -0.000423     -0.000000
      9.39574      1.30651      9.30584        -0.000000     -0.000423     -0.000000
      4.14027      6.56614      9.19117        -0.000000     -0.000423     -0.000000
      9.39574      6.56614      9.30584        -0.000000     -0.000423     -0.000000
      1.44268      1.28566      6.52759        -0.000239     -0.003278     -0.000681
      6.69814      1.28566      6.64226        -0.000239     -0.003278     -0.000681
      1.44268      6.54529      6.52759        -0.000239     -0.003278     -0.000681
      6.69814      6.54529      6.64226        -0.000239     -0.003278     -0.000681
      4.09661      3.91548      6.59446         0.000239     -0.003278      0.000681
      9.35207      3.91548      6.70914         0.000239     -0.003278      0.000681
      4.09661      9.17510      6.59446         0.000239     -0.003278      0.000681
      9.35207      9.17510      6.70914         0.000239     -0.003278      0.000681
      4.02675      1.28459      3.98822        -0.000000     -0.003568     -0.000000
      9.28221      1.28459      4.10289        -0.000000     -0.003568     -0.000000
      4.02675      6.54422      3.98822        -0.000000     -0.003568     -0.000000
      9.28221      6.54422      4.10289        -0.000000     -0.003568     -0.000000
      1.39901      3.93632      3.93088        -0.000000     -0.000423     -0.000000
      6.65448      3.93632      4.04556        -0.000000     -0.000423     -0.000000
      1.39901      9.19595      3.93088        -0.000000     -0.000423     -0.000000
      6.65448      9.19595      4.04556        -0.000000     -0.000423     -0.000000
     10.61459      0.02475      5.43215         0.001406      0.002333     -0.004043
      5.35913      0.02475      5.31747         0.001406      0.002333     -0.004043
     10.61459      5.28438      5.43215         0.001406      0.002333     -0.004043
      5.35913      5.28438      5.31747         0.001406      0.002333     -0.004043
      2.69437      0.02475      2.65897        -0.001406      0.002333      0.004043
      7.94983      0.02475      2.77364        -0.001406      0.002333      0.004043
      2.69437      5.28438      2.65897        -0.001406      0.002333      0.004043
      7.94983      5.28438      2.77364        -0.001406      0.002333      0.004043
      2.61786      2.65456      0.05718         0.001406      0.002333     -0.004043
      7.87333      2.65456      0.17186         0.001406      0.002333     -0.004043
      2.61786      7.91419      0.05718         0.001406      0.002333     -0.004043
      7.87333      7.91419      0.17186         0.001406      0.002333     -0.004043
      0.18016      2.65456      7.80458        -0.001406      0.002333      0.004043
      5.43563      2.65456      7.91925        -0.001406      0.002333      0.004043
      0.18016      7.91419      7.80458        -0.001406      0.002333      0.004043
      5.43563      7.91419      7.91925        -0.001406      0.002333      0.004043
     10.50561      0.02385      0.23152         0.002045      0.002940     -0.007432
      5.25014      0.02385      0.11685         0.002045      0.002940     -0.007432
     10.50561      5.28347      0.23152         0.002045      0.002940     -0.007432
      5.25014      5.28347      0.11685         0.002045      0.002940     -0.007432
      2.80335      0.02385      7.85959        -0.002045      0.002940      0.007432
      8.05881      0.02385      7.97426        -0.002045      0.002940      0.007432
      2.80335      5.28347      7.85959        -0.002045      0.002940      0.007432
      8.05881      5.28347      7.97426        -0.002045      0.002940      0.007432
      2.73594      2.65366      5.26246         0.002045      0.002940     -0.007432
      7.99141      2.65366      5.37713         0.002045      0.002940     -0.007432
      2.73594      7.91329      5.26246         0.002045      0.002940     -0.007432
      7.99141      7.91329      5.37713         0.002045      0.002940     -0.007432
      0.06209      2.65366      2.59930        -0.002045      0.002940      0.007432
      5.31755      2.65366      2.71398        -0.002045      0.002940      0.007432
      0.06209      7.91329      2.59930        -0.002045      0.002940      0.007432
      5.31755      7.91329      2.71398        -0.002045      0.002940      0.007432
 -----------------------------------------------------------------------------------
    total drift:                                0.000000     -0.004979      0.000106


--------------------------------------------------------------------------------------------------------



  FREE ENERGIE OF THE ION-ELECTRON SYSTEM (eV)
  ---------------------------------------------------
  free  energy   TOTEN  =      -327.92054037 eV

  energy  without entropy=     -327.92054037  energy(sigma->0) =     -327.92054037
 


--------------------------------------------------------------------------------------------------------


    POTLOK:  cpu time    0.1573: real time    0.1584


--------------------------------------------------------------------------------------------------------


 writing wavefunctions
     LOOP+:  cpu time 3621.3990: real time 3647.2716
    4ORBIT:  cpu time    0.0000: real time    0.0000
 


 total charge     
 
# of ion       s       p       d       tot
------------------------------------------
    1        1.314   2.410   0.000   3.724
    2        1.314   2.410   0.000   3.724
    3        1.314   2.410   0.000   3.724
    4        1.314   2.410   0.000   3.724
    5        1.314   2.410   0.000   3.724
    6        1.314   2.410   0.000   3.724
    7        1.314   2.410   0.000   3.724
    8        1.314   2.410   0.000   3.724
    9        1.314   2.407   0.000   3.722
   10        1.314   2.407   0.000   3.722
   11        1.314   2.407   0.000   3.722
   12        1.314   2.407   0.000   3.722
   13        1.313   2.412   0.000   3.725
   14        1.313   2.412   0.000   3.725
   15        1.313   2.412   0.000   3.725
   16        1.313   2.412   0.000   3.725
   17        1.314   2.410   0.000   3.724
   18        1.314   2.410   0.000   3.724
   19        1.314   2.410   0.000   3.724
   20        1.314   2.410   0.000   3.724
   21        1.314   2.410   0.000   3.724
   22        1.314   2.410   0.000   3.724
   23        1.314   2.410   0.000   3.724
   24        1.314   2.410   0.000   3.724
   25        1.314   2.407   0.000   3.722
   26        1.314   2.407   0.000   3.722
   27        1.314   2.407   0.000   3.722
   28        1.314   2.407   0.000   3.722
   29        1.313   2.412   0.000   3.725
   30        1.313   2.412   0.000   3.725
   31        1.313   2.412   0.000   3.725
   32        1.313   2.412   0.000   3.725
   33        0.259   6.202   8.917  15.378
   34        0.259   6.202   8.917  15.378
   35        0.259   6.202   8.917  15.378
   36        0.259   6.202   8.917  15.378
   37        0.259   6.202   8.917  15.378
   38        0.259   6.202   8.917  15.378
   39        0.259   6.202   8.917  15.378
   40        0.259   6.202   8.917  15.378
   41        0.259   6.202   8.917  15.378
   42        0.259   6.202   8.917  15.378
   43        0.259   6.202   8.917  15.378
   44        0.259   6.202   8.917  15.378
   45        0.259   6.202   8.917  15.378
   46        0.259   6.202   8.917  15.378
   47        0.259   6.202   8.917  15.378
   48        0.259   6.202   8.917  15.378
   49        0.350   6.350   5.821  12.521
   50        0.350   6.350   5.821  12.521
   51        0.350   6.350   5.821  12.521
   52        0.350   6.350   5.821  12.521
   53        0.350   6.350   5.821  12.521
   54        0.350   6.350   5.821  12.521
   55        0.350   6.350   5.821  12.521
   56        0.350   6.350   5.821  12.521
   57        0.350   6.350   5.821  12.521
   58        0.350   6.350   5.821  12.521
   59        0.350   6.350   5.821  12.521
   60        0.350   6.350   5.821  12.521
   61        0.350   6.350   5.821  12.521
   62        0.350   6.350   5.821  12.521
   63        0.350   6.350   5.821  12.521
   64        0.350   6.350   5.821  12.521
--------------------------------------------------
tot         51.787 277.949 235.794 565.530
 


 magnetization (x)
 
# of ion       s       p       d       tot
------------------------------------------
    1       -0.000  -0.010   0.000  -0.011
    2       -0.000  -0.010   0.000  -0.011
    3       -0.000  -0.010   0.000  -0.011
    4       -0.000  -0.010   0.000  -0.011
    5        0.000   0.010   0.000   0.011
    6        0.000   0.010   0.000   0.011
    7        0.000   0.010   0.000   0.011
    8        0.000   0.010   0.000   0.011
    9       -0.000   0.000   0.000   0.000
   10        0.000  -0.000   0.000  -0.000
   11       -0.000   0.000   0.000   0.000
   12        0.000  -0.000   0.000  -0.000
   13        0.000   0.000   0.000   0.000
   14        0.000   0.000   0.000   0.000
   15        0.000   0.000   0.000   0.000
   16        0.000   0.000   0.000   0.000
   17        0.000   0.010   0.000   0.011
   18        0.000   0.010   0.000   0.011
   19        0.000   0.010   0.000   0.011
   20        0.000   0.010   0.000   0.011
   21       -0.000  -0.010   0.000  -0.011
   22       -0.000  -0.010   0.000  -0.011
   23       -0.000  -0.010   0.000  -0.011
   24       -0.000  -0.010   0.000  -0.011
   25       -0.000   0.000   0.000   0.000
   26       -0.000   0.000   0.000   0.000
   27        0.000   0.000   0.000   0.000
   28       -0.000   0.000   0.000   0.000
   29        0.000  -0.000   0.000  -0.000
   30       -0.000   0.000   0.000   0.000
   31        0.000  -0.000   0.000  -0.000
   32        0.000   0.000   0.000   0.000
   33        0.000   0.001  -0.001  -0.000
   34        0.000   0.001  -0.001  -0.000
   35        0.000   0.001  -0.001  -0.000
   36        0.000   0.001  -0.001  -0.000
   37       -0.000  -0.001   0.001   0.000
   38       -0.000  -0.001   0.001   0.000
   39       -0.000  -0.001   0.001   0.000
   40       -0.000  -0.001   0.001   0.000
   41        0.000   0.001  -0.001  -0.000
   42        0.000   0.001  -0.001  -0.000
   43        0.000   0.001  -0.001  -0.000
   44        0.000   0.001  -0.001  -0.000
   45       -0.000  -0.001   0.001   0.000
   46       -0.000  -0.001   0.001   0.000
   47       -0.000  -0.001   0.001   0.000
   48       -0.000  -0.001   0.001   0.000
   49        0.020   0.054   3.670   3.743
   50        0.020   0.054   3.670   3.743
   51        0.020   0.054   3.670   3.743
   52        0.020   0.054   3.670   3.743
   53       -0.020  -0.054  -3.670  -3.743
   54       -0.020  -0.054  -3.670  -3.743
   55       -0.020  -0.054  -3.670  -3.743
   56       -0.020  -0.054  -3.670  -3.743
   57        0.020   0.054   3.670   3.743
   58        0.020   0.054   3.670   3.743
   59        0.020   0.054   3.670   3.743
   60        0.020   0.054   3.670   3.743
   61       -0.020  -0.054  -3.670  -3.743
   62       -0.020  -0.054  -3.670  -3.743
   63       -0.020  -0.054  -3.670  -3.743
   64       -0.020  -0.054  -3.670  -3.743
--------------------------------------------------
tot         -0.000   0.000  -0.000   0.000
 
 BZINTS: Fermi energy:  4.956836;688.000000 electrons
         Band energy:***********;  BLOECHL correction:  0.000000

 total amount of memory used by VASP MPI-rank0   349631. kBytes
=======================================================================

   base      :      30000. kBytes
   nonl-proj :     217907. kBytes
   fftplans  :       4588. kBytes
   grid      :      69719. kBytes
   one-center:       1990. kBytes
   wavefun   :      25427. kBytes
 
  
  
 General timing and accounting informations for this job:
 ========================================================
  
                  Total CPU time used (sec):     3680.812
                            User time (sec):     3669.435
                          System time (sec):       11.377
                         Elapsed time (sec):     3708.137
  
                   Maximum memory used (kb):      725340.
                   Average memory used (kb):           0.
  
                          Minor page faults:       591330
                          Major page faults:         5819
                 Voluntary context switches:         7215
