       N       E                     dE             d eps       ncg     rms          rms(c)
DAV:   1    -0.305276461672E+03   -0.30528E+03   -0.13327E+03 18944   0.200E+02    0.310E+01
DAV:   2    -0.327832692984E+03   -0.22556E+02   -0.22588E+02 12288   0.224E+01    0.126E+01
DAV:   3    -0.328114097760E+03   -0.28140E+00   -0.34660E+00 18176   0.343E+00    0.925E+00
DAV:   4    -0.328120106336E+03   -0.60086E-02   -0.20665E-01 14848   0.114E+00    0.799E+00
DAV:   5    -0.328120456899E+03   -0.35056E-03   -0.16048E-02 16384   0.344E-01    0.695E+00
DAV:   6    -0.328120228658E+03    0.22824E-03   -0.60739E-04 16128   0.641E-02    0.644E+00
DAV:   7    -0.328119495907E+03    0.73275E-03   -0.50272E-04 16896   0.711E-02    0.503E+00
DAV:   8    -0.328119025825E+03    0.47008E-03   -0.47011E-04 13056   0.633E-02    0.310E+00
DAV:   9    -0.328118895981E+03    0.12984E-03   -0.87581E-05 17152   0.224E-02    0.245E+00
DAV:  10    -0.328118742290E+03    0.15369E-03   -0.17881E-04 13568   0.352E-02    0.121E+00
DAV:  11    -0.328118711774E+03    0.30516E-04   -0.31479E-05 19456   0.135E-02    0.696E-01
DAV:  12    -0.328118696025E+03    0.15749E-04   -0.13834E-05 13824   0.739E-03    0.309E-01
DAV:  13    -0.328118689645E+03    0.63805E-05   -0.62098E-06 16128   0.671E-03    0.834E-02
DAV:  14    -0.328118688313E+03    0.13319E-05   -0.13676E-06 17152   0.257E-03    0.103E-02
DAV:  15    -0.328118688146E+03    0.16653E-06   -0.91442E-08 15360   0.418E-04    0.207E-03
DAV:  16    -0.328118688131E+03    0.15454E-07   -0.99900E-09  9728   0.180E-04    0.520E-04
DAV:  17    -0.328118688105E+03    0.25757E-07   -0.65983E-10 11776   0.615E-05    0.853E-04
DAV:  18    -0.328118688081E+03    0.24564E-07   -0.74746E-12 10496   0.829E-05    0.157E-04
DAV:  19    -0.328118688080E+03    0.77125E-09    0.83611E-10 11520   0.202E-05
   1 F= -.32811869E+03 E0= -.32811869E+03  d E =0.000000E+00  mag=     0.0000
