 vasp.5.4.4.18Apr17-6-g9f103f2a35 (build Oct 30 2023 17:30:16) complex          
  
 executed on             LinuxIFC date 2024.06.29  19:02:31
 running on  256 total cores
 distrk:  each k-point on  256 cores,    1 groups
 distr:  one band on NCORES_PER_BAND=   1 cores,  256 groups


--------------------------------------------------------------------------------------------------------


 INCAR:
 POTCAR:    PAW_PBE S 06Sep2000                   
 POTCAR:     PAW_PBE Cu_pv 06Sep2000              
 POTCAR:     PAW_PBE Fe_pv 02Aug2007              

 ----------------------------------------------------------------------------- 
|                                                                             |
|           W    W    AA    RRRRR   N    N  II  N    N   GGGG   !!!           |
|           W    W   A  A   R    R  NN   N  II  NN   N  G    G  !!!           |
|           W    W  A    A  R    R  N N  N  II  N N  N  G       !!!           |
|           W WW W  AAAAAA  RRRRR   N  N N  II  N  N N  G  GGG   !            |
|           WW  WW  A    A  R   R   N   NN  II  N   NN  G    G                |
|           W    W  A    A  R    R  N    N  II  N    N   GGGG   !!!           |
|                                                                             |
|      For optimal performance we recommend to set                            |
|        NCORE= 4 - approx SQRT( number of cores)                             |
|      NCORE specifies how many cores store one orbital (NPAR=cpu/NCORE).     |
|      This setting can  greatly improve the performance of VASP for DFT.     |
|      The default,   NCORE=1            might be grossly inefficient         |
|      on modern multi-core architectures or massively parallel machines.     |
|      Do your own testing !!!!                                               |
|      Unfortunately you need to use the default for GW and RPA calculations. |
|      (for HF NCORE is supported but not extensively tested yet)             |
|                                                                             |
 ----------------------------------------------------------------------------- 

 POTCAR:    PAW_PBE S 06Sep2000                   
   SHA256 =  0fc7481fb0695f01bdc6462160264c5c84044ae9ec85a907d398b887a2bc3132 S/
   COPYR  = (c) Copyright 06Sep2000 Georg Kresse                                
   COPYR  = This file is part of the software VASP. Any use, copying, and all ot
   COPYR  = If you do not have a valid VASP license, you may not use, copy or di
   VRHFIN =S : s2p4                                                             
   LEXCH  = PE                                                                  
   EATOM  =   276.8230 eV,   20.3459 Ry                                         
                                                                                
   TITEL  = PAW_PBE S 06Sep2000                                                 
   LULTRA =        F    use ultrasoft PP ?                                      
   IUNSCR =        1    unscreen: 0-lin 1-nonlin 2-no                           
   RPACOR =    1.500    partial core radius                                     
   POMASS =   32.066; ZVAL   =    6.000    mass and valenz                      
   RCORE  =    1.900    outmost cutoff radius                                   
   RWIGS  =    2.200; RWIGS  =    1.164    wigner-seitz radius (au A)           
   ENMAX  =  258.689; ENMIN  =  194.016 eV                                      
   ICORE  =        2    local potential                                         
   LCOR   =        T    correct aug charges                                     
   LPAW   =        T    paw PP                                                  
   EAUG   =  335.092                                                            
   DEXC   =    0.000                                                            
   RMAX   =    1.942    core radius for proj-oper                               
   RAUG   =    1.300    factor for augmentation sphere                          
   RDEP   =    1.954    radius for radial grids                                 
   RDEPT  =    1.744    core radius for aug-charge                              
                                                                                
   Atomic configuration                                                         
    6 entries                                                                   
     n  l   j            E        occ.                                          
     1  0  0.50     -2405.8406   2.0000                                         
     2  0  0.50      -211.7007   2.0000                                         
     2  1  1.50      -156.4958   6.0000                                         
     3  0  0.50       -17.2562   2.0000                                         
     3  1  0.50        -7.0085   4.0000                                         
     3  2  1.50        -6.8029   0.0000                                         
   Description                                                                  
     l       E           TYP  RCUT    TYP  RCUT                                 
     0    -17.2561641     23  1.900                                             
     0    -15.8743224     23  1.900                                             
     1     -7.0085400     23  1.900                                             
     1     -2.7779785     23  1.900                                             
     2     -6.8029130     23  1.900                                             
  local pseudopotential read in
  partial core-charges read in
  partial kinetic energy density read in
  atomic valenz-charges read in
  non local Contribution for L=           0  read in
    real space projection operators read in
  non local Contribution for L=           0  read in
    real space projection operators read in
  non local Contribution for L=           1  read in
    real space projection operators read in
  non local Contribution for L=           1  read in
    real space projection operators read in
    PAW grid and wavefunctions read in
 
   number of l-projection  operators is LMAX  =           4
   number of lm-projection operators is LMMAX =           8
 
 POTCAR:     PAW_PBE Cu_pv 06Sep2000              
   SHA256 =  cb7b504e2ea725fe1f25c85a9ac77d4012ce94cd394135b722c4e25ec297f1cb Cu
   COPYR  = (c) Copyright 06Sep2000 Georg Kresse                                
   COPYR  = This file is part of the software VASP. Any use, copying, and all ot
   COPYR  = If you do not have a valid VASP license, you may not use, copy or di
   VRHFIN =Cu: d10 p1                                                           
   LEXCH  = PE                                                                  
   EATOM  =  4120.1201 eV,  302.8203 Ry                                         
                                                                                
   TITEL  = PAW_PBE Cu_pv 06Sep2000                                             
   LULTRA =        F    use ultrasoft PP ?                                      
   IUNSCR =        1    unscreen: 0-lin 1-nonlin 2-no                           
   RPACOR =    1.500    partial core radius                                     
   POMASS =   63.546; ZVAL   =   17.000    mass and valenz                      
   RCORE  =    2.000    outmost cutoff radius                                   
   RWIGS  =    2.000; RWIGS  =    1.058    wigner-seitz radius (au A)           
   ENMAX  =  368.648; ENMIN  =  276.486 eV                                      
   RCLOC  =    1.304    cutoff for local pot                                    
   LCOR   =        T    correct aug charges                                     
   LPAW   =        T    paw PP                                                  
   EAUG   =  758.233                                                            
   DEXC   =    0.000                                                            
   RMAX   =    2.046    core radius for proj-oper                               
   RAUG   =    1.300    factor for augmentation sphere                          
   RDEP   =    2.025    radius for radial grids                                 
   RDEPT  =    1.558    core radius for aug-charge                              
                                                                                
   Atomic configuration                                                         
    8 entries                                                                   
     n  l   j            E        occ.                                          
     1  0  0.50     -8850.2467   2.0000                                         
     2  0  0.50     -1062.3498   2.0000                                         
     2  1  1.50      -916.8226   6.0000                                         
     3  0  0.50      -114.6929   2.0000                                         
     3  1  1.50       -72.1325   6.0000                                         
     3  2  2.50        -5.0394  10.0000                                         
     4  0  0.50        -4.6097   1.0000                                         
     4  3  2.50        -1.3606   0.0000                                         
   Description                                                                  
     l       E           TYP  RCUT    TYP  RCUT                                 
     1    -72.1324777     23  1.700                                             
     1     -1.3605826     23  1.700                                             
     2     -5.0393776     23  2.000                                             
     2     -6.3999602     23  2.000                                             
     0     -4.6097062     23  1.800                                             
     0     14.1620818     23  1.800                                             
  local pseudopotential read in
  partial core-charges read in
  partial kinetic energy density read in
  atomic valenz-charges read in
  non local Contribution for L=           1  read in
    real space projection operators read in
  non local Contribution for L=           1  read in
    real space projection operators read in
  non local Contribution for L=           2  read in
    real space projection operators read in
  non local Contribution for L=           2  read in
    real space projection operators read in
  non local Contribution for L=           0  read in
    real space projection operators read in
  non local Contribution for L=           0  read in
    real space projection operators read in
    PAW grid and wavefunctions read in
 
   number of l-projection  operators is LMAX  =           6
   number of lm-projection operators is LMMAX =          18
 
 POTCAR:     PAW_PBE Fe_pv 02Aug2007              
   SHA256 =  5d22e414b1f82158bf2c7ecb8b97b28fd0923e48cadc1c3bf74d524558f5dd32 Fe
   COPYR  = (c) Copyright 02Aug2007 Georg Kresse                                
   COPYR  = This file is part of the software VASP. Any use, copying, and all ot
   COPYR  = If you do not have a valid VASP license, you may not use, copy or di
   VRHFIN =Fe:  3pd7s1                                                          
   LEXCH  = PE                                                                  
   EATOM  =  2457.4239 eV,  180.6156 Ry                                         
                                                                                
   TITEL  = PAW_PBE Fe_pv 02Aug2007                                             
   LULTRA =        F    use ultrasoft PP ?                                      
   IUNSCR =        1    unscreen: 0-lin 1-nonlin 2-no                           
   RPACOR =    1.750    partial core radius                                     
   POMASS =   55.847; ZVAL   =   14.000    mass and valenz                      
   RCORE  =    2.200    outmost cutoff radius                                   
   RWIGS  =    2.200; RWIGS  =    1.164    wigner-seitz radius (au A)           
   ENMAX  =  293.238; ENMIN  =  219.928 eV                                      
   ICORE  =        3    local potential                                         
   LCOR   =        T    correct aug charges                                     
   LPAW   =        T    paw PP                                                  
   EAUG   =  578.342                                                            
   DEXC   =    0.000                                                            
   RMAX   =    2.249    core radius for proj-oper                               
   RAUG   =    1.300    factor for augmentation sphere                          
   RDEP   =    2.296    radius for radial grids                                 
   RDEPT  =    1.766    core radius for aug-charge                              
                                                                                
   Atomic configuration                                                         
    8 entries                                                                   
     n  l   j            E        occ.                                          
     1  0  0.50     -6993.8440   2.0000                                         
     2  0  0.50      -814.6047   2.0000                                         
     2  1  1.50      -693.3689   6.0000                                         
     3  0  0.50       -89.4732   2.0000                                         
     3  1  1.50       -55.6373   6.0000                                         
     3  2  2.50        -3.8151   7.0000                                         
     4  0  0.50        -4.2551   1.0000                                         
     4  3  2.50        -1.3606   0.0000                                         
   Description                                                                  
     l       E           TYP  RCUT    TYP  RCUT                                 
     1    -55.6372668     23  2.000                                             
     1     -5.4423304     23  2.000                                             
     2     -3.8151096     23  2.200                                             
     2     -5.1756922     23  2.200                                             
     0     -4.2550951     23  2.200                                             
     0     27.2116520     23  2.200                                             
     3     -1.3605826     23  2.200                                             
  local pseudopotential read in
  partial core-charges read in
  partial kinetic energy density read in
  atomic valenz-charges read in
  non local Contribution for L=           1  read in
    real space projection operators read in
  non local Contribution for L=           1  read in
    real space projection operators read in
  non local Contribution for L=           2  read in
    real space projection operators read in
  non local Contribution for L=           2  read in
    real space projection operators read in
  non local Contribution for L=           0  read in
    real space projection operators read in
  non local Contribution for L=           0  read in
    real space projection operators read in
    PAW grid and wavefunctions read in
 
   number of l-projection  operators is LMAX  =           6
   number of lm-projection operators is LMMAX =          18
 

 ----------------------------------------------------------------------------- 
|                                                                             |
|  ADVICE TO THIS USER RUNNING 'VASP/VAMP'   (HEAR YOUR MASTER'S VOICE ...):  |
|                                                                             |
|      You have a (more or less) 'large supercell' and for larger cells       |
|      it might be more efficient to use real space projection opertators     |
|      So try LREAL= Auto  in the INCAR   file.                               |
|      Mind:          For very  accurate calculation you might also keep the  |
|      reciprocal projection scheme          (i.e. LREAL=.FALSE.)             |
|                                                                             |
 ----------------------------------------------------------------------------- 


 ----------------------------------------------------------------------------- 
|                                                                             |
|  ADVICE TO THIS USER RUNNING 'VASP/VAMP'   (HEAR YOUR MASTER'S VOICE ...):  |
|                                                                             |
|      You enforced a specific xc-type in the INCAR file,                     |
|      a different type was found on the POTCAR file                          |
|          I HOPE YOU KNOW, WHAT YOU ARE  DOING                               |
|                                                                             |
 ----------------------------------------------------------------------------- 

  PAW_PBE S 06Sep2000                   :
 energy of atom  1       EATOM= -276.8230
 kinetic energy error for atom=    0.0007 (will be added to EATOM!!)
   PAW_PBE Cu_pv 06Sep2000              :
 energy of atom  2       EATOM=-4120.1201
 kinetic energy error for atom=    0.0094 (will be added to EATOM!!)
   PAW_PBE Fe_pv 02Aug2007              :
 energy of atom  3       EATOM=-2457.4239
 kinetic energy error for atom=    0.0025 (will be added to EATOM!!)
 
 
 POSCAR: Fe16 Cu16 S32                           
  positions in direct lattice
  No initial velocities read in
 exchange correlation table for  LEXCH =       14
   RHO(1)=    0.500       N(1)  =     2000
   RHO(2)=  100.500       N(2)  =     4000
 


--------------------------------------------------------------------------------------------------------


 ion  position               nearest neighbor table
   1  0.126  0.125  0.125-  37 2.26  41 2.26  61 2.28  49 2.28
   2  0.626  0.125  0.125-  38 2.26  42 2.26  62 2.28  50 2.28
   3  0.126  0.625  0.125-  39 2.26  43 2.26  63 2.28  51 2.28
   4  0.626  0.625  0.125-  40 2.26  44 2.26  64 2.28  52 2.28
   5  0.374  0.375  0.125-  39 2.26  41 2.26  62 2.28  52 2.28
   6  0.874  0.375  0.125-  40 2.26  42 2.26  61 2.28  51 2.28
   7  0.374  0.875  0.125-  37 2.26  43 2.26  64 2.28  50 2.28
   8  0.874  0.875  0.125-  38 2.26  44 2.26  63 2.28  49 2.28
   9  0.125  0.374  0.875-  41 2.26  45 2.26  51 2.28  55 2.28
  10  0.625  0.374  0.875-  42 2.26  46 2.26  52 2.28  56 2.28
  11  0.125  0.874  0.875-  43 2.26  47 2.26  49 2.28  53 2.28
  12  0.625  0.874  0.875-  44 2.26  48 2.26  50 2.28  54 2.28
  13  0.375  0.126  0.875-  41 2.26  46 2.26  50 2.28  53 2.28
  14  0.875  0.126  0.875-  42 2.26  45 2.26  49 2.28  54 2.28
  15  0.375  0.626  0.875-  43 2.26  48 2.26  52 2.28  55 2.28
  16  0.875  0.626  0.875-  44 2.26  47 2.26  51 2.28  56 2.28
  17  0.124  0.125  0.625-  45 2.26  33 2.26  53 2.28  57 2.28
  18  0.624  0.125  0.625-  46 2.26  34 2.26  54 2.28  58 2.28
  19  0.124  0.625  0.625-  47 2.26  35 2.26  55 2.28  59 2.28
  20  0.624  0.625  0.625-  48 2.26  36 2.26  56 2.28  60 2.28
  21  0.376  0.375  0.625-  46 2.26  36 2.26  55 2.28  57 2.28
  22  0.876  0.375  0.625-  45 2.26  35 2.26  56 2.28  58 2.28
  23  0.376  0.875  0.625-  48 2.26  34 2.26  53 2.28  59 2.28
  24  0.876  0.875  0.625-  47 2.26  33 2.26  54 2.28  60 2.28
  25  0.375  0.124  0.375-  34 2.26  37 2.26  57 2.28  62 2.28
  26  0.875  0.124  0.375-  33 2.26  38 2.26  58 2.28  61 2.28
  27  0.375  0.624  0.375-  36 2.26  39 2.26  59 2.28  64 2.28
  28  0.875  0.624  0.375-  35 2.26  40 2.26  60 2.28  63 2.28
  29  0.125  0.376  0.375-  35 2.26  39 2.26  57 2.28  61 2.28
  30  0.625  0.376  0.375-  36 2.26  40 2.26  58 2.28  62 2.28
  31  0.125  0.876  0.375-  33 2.26  37 2.26  59 2.28  63 2.28
  32  0.625  0.876  0.375-  34 2.26  38 2.26  60 2.28  64 2.28
  33  0.000  0.000  0.500-  26 2.26  31 2.26  17 2.26  24 2.26
  34  0.500  0.000  0.500-  25 2.26  32 2.26  18 2.26  23 2.26
  35  0.000  0.500  0.500-  28 2.26  29 2.26  19 2.26  22 2.26
  36  0.500  0.500  0.500-  27 2.26  30 2.26  20 2.26  21 2.26
  37  0.250  0.000  0.250-   1 2.26   7 2.26  25 2.26  31 2.26
  38  0.750  0.000  0.250-   2 2.26   8 2.26  26 2.26  32 2.26
  39  0.250  0.500  0.250-   3 2.26   5 2.26  27 2.26  29 2.26
  40  0.750  0.500  0.250-   4 2.26   6 2.26  28 2.26  30 2.26
  41  0.250  0.250  0.000-   9 2.26  13 2.26   1 2.26   5 2.26
  42  0.750  0.250  0.000-  10 2.26  14 2.26   2 2.26   6 2.26
  43  0.250  0.750  0.000-  11 2.26  15 2.26   3 2.26   7 2.26
  44  0.750  0.750  0.000-  12 2.26  16 2.26   4 2.26   8 2.26
  45  0.000  0.250  0.750-  17 2.26  22 2.26   9 2.26  14 2.26
  46  0.500  0.250  0.750-  18 2.26  21 2.26  10 2.26  13 2.26
  47  0.000  0.750  0.750-  19 2.26  24 2.26  11 2.26  16 2.26
  48  0.500  0.750  0.750-  20 2.26  23 2.26  12 2.26  15 2.26
  49  0.000  0.000  0.000-  11 2.28  14 2.28   1 2.28   8 2.28
  50  0.500  0.000  0.000-  12 2.28  13 2.28   2 2.28   7 2.28
  51  0.000  0.500  0.000-   9 2.28  16 2.28   3 2.28   6 2.28
  52  0.500  0.500  0.000-  10 2.28  15 2.28   4 2.28   5 2.28
  53  0.250  0.000  0.750-  17 2.28  23 2.28  11 2.28  13 2.28
  54  0.750  0.000  0.750-  18 2.28  24 2.28  12 2.28  14 2.28
  55  0.250  0.500  0.750-  19 2.28  21 2.28   9 2.28  15 2.28
  56  0.750  0.500  0.750-  20 2.28  22 2.28  10 2.28  16 2.28
  57  0.250  0.250  0.500-  25 2.28  29 2.28  17 2.28  21 2.28
  58  0.750  0.250  0.500-  26 2.28  30 2.28  18 2.28  22 2.28
  59  0.250  0.750  0.500-  27 2.28  31 2.28  19 2.28  23 2.28
  60  0.750  0.750  0.500-  28 2.28  32 2.28  20 2.28  24 2.28
  61  0.000  0.250  0.250-   1 2.28   6 2.28  26 2.28  29 2.28
  62  0.500  0.250  0.250-   2 2.28   5 2.28  25 2.28  30 2.28
  63  0.000  0.750  0.250-   3 2.28   8 2.28  28 2.28  31 2.28
  64  0.500  0.750  0.250-   4 2.28   7 2.28  27 2.28  32 2.28
 
  LATTYP: Found a base centered orthorhombic cell.
 ALAT       =    14.8176672587
 B/A-ratio  =     1.0069979279
 C/A-ratio  =     0.7027318685
  
  Lattice vectors:
  
 A1 = (  10.5143340000,   0.0366610000,   0.0000000000)
 A2 = (  -0.0366610000, -10.5143340000,   0.0000000000)
 A3 = (   0.0000000000,   0.0000000000, -10.4128470000)


Analysis of symmetry for initial positions (statically):
=====================================================================
 Subroutine PRICEL returns following result:
 
  LATTYP: Found a face centered orthorhombic cell.
 ALAT       =     7.4088336294
 B/A-ratio  =     1.0069979279
 C/A-ratio  =     1.4054637371
  
  Lattice vectors:
  
 A1 = (  -2.6377487500,  -2.6377487500,   5.2064235000)
 A2 = (  -2.6194182500,   2.6194182500,   5.2064235000)
 A3 = (  -5.2571670000,  -0.0183305000,   0.0000000000)
 
   8 primitive cells build up your supercell.
 

 Routine SETGRP: Setting up the symmetry group for a 
 base centered orthorhombic supercell.


 Subroutine GETGRP returns: Found  4 space group operations
 (whereof  2 operations were pure point group operations)
 out of a pool of  8 trial point group operations.


The static configuration has the point symmetry C_2 .
 The point group associated with its full space group is C_2v.


Analysis of symmetry for dynamics (positions and initial velocities):
=====================================================================
 Subroutine PRICEL returns following result:
 
  LATTYP: Found a face centered orthorhombic cell.
 ALAT       =     7.4088336294
 B/A-ratio  =     1.0069979279
 C/A-ratio  =     1.4054637371
  
  Lattice vectors:
  
 A1 = (  -2.6377487500,  -2.6377487500,   5.2064235000)
 A2 = (  -2.6194182500,   2.6194182500,   5.2064235000)
 A3 = (  -5.2571670000,  -0.0183305000,   0.0000000000)
 
   8 primitive cells build up your supercell.
 

 Routine SETGRP: Setting up the symmetry group for a 
 base centered orthorhombic supercell.


 Subroutine GETGRP returns: Found  4 space group operations
 (whereof  2 operations were pure point group operations)
 out of a pool of  8 trial point group operations.


The dynamic configuration has the point symmetry C_2 .
 The point group associated with its full space group is C_2v.


Analysis of structural, dynamic, and magnetic symmetry:
=====================================================================
 Subroutine PRICEL returns following result:
 
  LATTYP: Found a face centered orthorhombic cell.
 ALAT       =     7.4088336294
 B/A-ratio  =     1.0069979279
 C/A-ratio  =     1.4054637371
  
  Lattice vectors:
  
 A1 = (  -2.6377487500,  -2.6377487500,   5.2064235000)
 A2 = (  -2.6194182500,   2.6194182500,   5.2064235000)
 A3 = (  -5.2571670000,  -0.0183305000,   0.0000000000)
 
   8 primitive cells build up your supercell.
 

 Routine SETGRP: Setting up the symmetry group for a 
 base centered orthorhombic supercell.


 Subroutine GETGRP returns: Found  4 space group operations
 (whereof  2 operations were pure point group operations)
 out of a pool of  8 trial point group operations.


The magnetic configuration has the point symmetry C_2 .
 The point group associated with its full space group is C_2v.


 Subroutine INISYM returns: Found  4 space group operations
 (whereof  2 operations are pure point group operations),
 and found     8 'primitive' translations

 
 
 KPOINTS: Automatic mesh                          

Automatic generation of k-mesh.
Space group operators:
 irot       det(A)        alpha          n_x          n_y          n_z        tau_x        tau_y        tau_z
    1     1.000000     0.000000     1.000000     0.000000     0.000000     0.000000     0.000000     0.000000
    2     1.000000   180.000000     0.000000     0.000000     1.000000     0.000000     0.000000     0.000000
    3    -1.000000   180.000000     0.707107     0.707107     0.000000    -0.750000    -0.000000     0.750000
    4    -1.000000   180.000000     0.707107    -0.707107     0.000000    -0.750000    -0.000000     0.750000
 
 Subroutine IBZKPT returns following result:
 ===========================================
 
 Found      6 irreducible k-points:
 
 Following reciprocal coordinates:
            Coordinates               Weight
  0.000000  0.000000  0.000000      1.000000
  0.500000  0.000000  0.000000      2.000000
  0.500000  0.500000  0.000000      1.000000
  0.000000  0.000000  0.500000      1.000000
  0.500000  0.000000  0.500000      2.000000
  0.500000  0.500000  0.500000      1.000000
 
 Following cartesian coordinates:
            Coordinates               Weight
  0.000000  0.000000  0.000000      1.000000
  0.047555 -0.000166  0.000000      2.000000
  0.047389  0.047389  0.000000      1.000000
  0.000000  0.000000  0.048018      1.000000
  0.047555 -0.000166  0.048018      2.000000
  0.047389  0.047389  0.048018      1.000000
 
 TETIRR: Found     12 inequivalent tetrahedra from       48
 
 Subroutine IBZKPT_HF returns following result:
 ==============================================
 
 Found      8 k-points in 1st BZ
 the following      8 k-points will be used (e.g. in the exchange kernel)
 Following reciprocal coordinates:   # in IRBZ
  0.000000  0.000000  0.000000    0.12500000   1 t-inv F
  0.500000  0.000000  0.000000    0.12500000   2 t-inv F
  0.500000  0.500000  0.000000    0.12500000   3 t-inv F
  0.000000  0.000000  0.500000    0.12500000   4 t-inv F
  0.500000  0.000000  0.500000    0.12500000   5 t-inv F
  0.500000  0.500000  0.500000    0.12500000   6 t-inv F
 -0.000000 -0.500000  0.000000    0.12500000   2 t-inv F spinflp
 -0.000000 -0.500000  0.500000    0.12500000   5 t-inv F spinflp


--------------------------------------------------------------------------------------------------------




 Dimension of arrays:
   k-points           NKPTS =      6   k-points in BZ     NKDIM =      6   number of bands    NBANDS=    512
   number of dos      NEDOS =    301   number of ions     NIONS =     64
   non local maximal  LDIM  =      6   non local SUM 2l+1 LMDIM =     18
   total plane-waves  NPLWV = 829440
   max r-space proj   IRMAX =      1   max aug-charges    IRDMAX=  22897
   dimension x,y,z NGX =    96 NGY =   96 NGZ =   90
   dimension x,y,z NGXF=   192 NGYF=  192 NGZF=  180
   support grid    NGXF=   192 NGYF=  192 NGZF=  180
   ions per type =              32  16  16
   NGX,Y,Z   is equivalent  to a cutoff of  15.18, 15.18, 14.37 a.u.
   NGXF,Y,Z  is equivalent  to a cutoff of  30.36, 30.36, 28.74 a.u.

 SYSTEM =  CuFeS2                                  
 POSCAR =  Fe16 Cu16 S32                           

 Startparameter for this run:
   NWRITE =      2    write-flag & timer
   PREC   = accura    normal or accurate (medium, high low for compatibility)
   ISTART =      1    job   : 0-new  1-cont  2-samecut
   ICHARG =      1    charge: 1-file 2-atom 10-const
   ISPIN  =      2    spin polarized calculation?
   LNONCOLLINEAR =      F non collinear calculations
   LSORBIT =      F    spin-orbit coupling
   INIWAV =      1    electr: 0-lowe 1-rand  2-diag
   LASPH  =      F    aspherical Exc in radial PAW
   METAGGA=      F    non-selfconsistent MetaGGA calc.

 Electronic Relaxation 1
   ENCUT  =  700.0 eV  51.45 Ry    7.17 a.u.  22.68 22.68 22.46*2*pi/ulx,y,z
   ENINI  =  700.0     initial cutoff
   ENAUG  =  758.2 eV  augmentation charge cutoff
   NELM   =    500;   NELMIN=  2; NELMDL=  0     # of ELM steps 
   EDIFF  = 0.1E-07   stopping-criterion for ELM
   LREAL  =      F    real-space projection
   NLSPLINE    = F    spline interpolate recip. space projectors
   LCOMPAT=      F    compatible to vasp.4.4
   GGA_COMPAT  = T    GGA compatible to vasp.4.4-vasp.4.6
   LMAXPAW     = -100 max onsite density
   LMAXMIX     =    4 max onsite mixed and CHGCAR
   VOSKOWN=      0    Vosko Wilk Nusair interpolation
   ROPT   =    0.00000   0.00000   0.00000
 Ionic relaxation
   EDIFFG = -.1E-04   stopping-criterion for IOM
   NSW    =      0    number of steps for IOM
   NBLOCK =      1;   KBLOCK =      1    inner block; outer block 
   IBRION =     -1    ionic relax: 0-MD 1-quasi-New 2-CG
   NFREE  =      0    steps in history (QN), initial steepest desc. (CG)
   ISIF   =      2    stress and relaxation
   IWAVPR =     10    prediction:  0-non 1-charg 2-wave 3-comb
   ISYM   =      2    0-nonsym 1-usesym 2-fastsym
   LCORR  =      T    Harris-Foulkes like correction to forces

   POTIM  = 0.5000    time-step for ionic-motion
   TEIN   =    0.0    initial temperature
   TEBEG  =    0.0;   TEEND  =   0.0 temperature during run
   SMASS  =  -3.00    Nose mass-parameter (am)
   estimated Nose-frequenzy (Omega)   =  0.10E-29 period in steps =****** mass=  -0.253E-26a.u.
   SCALEE = 1.0000    scale energy and forces
   NPACO  =    256;   APACO  = 16.0  distance and # of slots for P.C.
   PSTRESS=    0.0 pullay stress

  Mass of Ions in am
   POMASS =  32.07 63.55 55.85
  Ionic Valenz
   ZVAL   =   6.00 17.00 14.00
  Atomic Wigner-Seitz radii
   RWIGS  =  -1.00 -1.00 -1.00
  virtual crystal weights 
   VCA    =   1.00  1.00  1.00
   NELECT =     688.0000    total number of electrons
   NUPDOWN=      -1.0000    fix difference up-down

 DOS related values:
   EMIN   =  10.00;   EMAX   =-10.00  energy-range for DOS
   EFERMI =   0.00
   ISMEAR =    -5;   SIGMA  =   0.03  broadening in eV -4-tet -1-fermi 0-gaus

 Electronic relaxation 2 (details)
   IALGO  =     38    algorithm
   LDIAG  =      T    sub-space diagonalisation (order eigenvalues)
   LSUBROT=      F    optimize rotation matrix (better conditioning)
   TURBO    =      0    0=normal 1=particle mesh
   IRESTART =      0    0=no restart 2=restart with 2 vectors
   NREBOOT  =      0    no. of reboots
   NMIN     =      0    reboot dimension
   EREF     =   0.00    reference energy to select bands
   IMIX   =      4    mixing-type and parameters
     AMIX     =   0.40;   BMIX     =  1.00
     AMIX_MAG =   1.60;   BMIX_MAG =  1.00
     AMIN     =   0.10
     WC   =   100.;   INIMIX=   1;  MIXPRE=   1;  MAXMIX= -45

 Intra band minimization:
   WEIMIN = 0.0000     energy-eigenvalue tresh-hold
   EBREAK =  0.49E-11  absolut break condition
   DEPER  =   0.30     relativ break condition  

   TIME   =   0.40     timestep for ELM

  volume/ion in A,a.u.               =      17.99       121.38
  Fermi-wavevector in a.u.,A,eV,Ry     =   1.378992  2.605917 25.873094  1.901619
  Thomas-Fermi vector in A             =   2.504003
 
 Write flags
   LWAVE        =      T    write WAVECAR
   LDOWNSAMPLE  =      F    k-point downsampling of WAVECAR
   LCHARG       =      T    write CHGCAR
   LVTOT        =      F    write LOCPOT, total local potential
   LVHAR        =      F    write LOCPOT, Hartree potential only
   LELF         =      F    write electronic localiz. function (ELF)
   LORBIT       =     11    0 simple, 1 ext, 2 COOP (PROOUT), +10 PAW based schemes


 Dipole corrections
   LMONO  =      F    monopole corrections only (constant potential shift)
   LDIPOL =      F    correct potential (dipole corrections)
   IDIPOL =      0    1-x, 2-y, 3-z, 4-all directions 
   EPSILON=  1.0000000 bulk dielectric constant

 LDA+U is selected, type is set to LDAUTYPE =  2
   angular momentum for each species LDAUL =     2    2    2
   U (eV)           for each species LDAUU =   0.0  0.1  4.7
   J (eV)           for each species LDAUJ =   0.0  0.0  0.0
 Exchange correlation treatment:
   GGA     =    PS    GGA type
   LEXCH   =    14    internal setting for exchange type
   VOSKOWN=      0    Vosko Wilk Nusair interpolation
   LHFCALC =     F    Hartree Fock is set to
   LHFONE  =     F    Hartree Fock one center treatment
   AEXX    =    0.0000 exact exchange contribution

 Linear response parameters
   LEPSILON=     F    determine dielectric tensor
   LRPA    =     F    only Hartree local field effects (RPA)
   LNABLA  =     F    use nabla operator in PAW spheres
   LVEL    =     F    velocity operator in full k-point grid
   LINTERFAST=   F  fast interpolation
   KINTER  =     0    interpolate to denser k-point grid
   CSHIFT  =0.1000    complex shift for real part using Kramers Kronig
   OMEGAMAX=  -1.0    maximum frequency
   DEG_THRESHOLD= 0.2000000E-02 threshold for treating states as degnerate
   RTIME   =   -0.100 relaxation time in fs
  (WPLASMAI=    0.000 imaginary part of plasma frequency in eV, 0.658/RTIME)
   DFIELD  = 0.0000000 0.0000000 0.0000000 field for delta impulse in time
 
 Orbital magnetization related:
   ORBITALMAG=     F  switch on orbital magnetization
   LCHIMAG   =     F  perturbation theory with respect to B field
   DQ        =  0.001000  dq finite difference perturbation B field
   LLRAUG    =     F  two centre corrections for induced B field

 PEAD related settings:
   LPEAD      =     T    switch on PEAD
   IPEAD      =     4    finite difference order for dpsi/dk
   LCALCPOL   =     T    calculate macroscopic polarization
   LCALCEPS   =     F    calculate dielectric tensor
   EFIELD_PEAD=    0.0000    0.0000    0.0000
   SKIP_EDOTP =     F
   LRPA       =     F
   SKIP_SCF   =     F


--------------------------------------------------------------------------------------------------------


 Static calculation
 charge density and potential will be updated during run
 spin polarized calculation
 Variant of blocked Davidson
 Davidson routine will perform the subspace rotation
 perform sub-space diagonalisation
    after iterative eigenvector-optimisation
 modified Broyden-mixing scheme, WC =      100.0
 initial mixing is a Kerker type mixing with AMIX =  0.4000 and BMIX =      1.0000
 Hartree-type preconditioning will be used
 using additional bands          168
 reciprocal scheme for non local part
 use partial core corrections
 calculate Harris-corrections to forces 
   (improved forces if not selfconsistent)
 use gradient corrections 
 use of overlap-Matrix (Vanderbilt PP)
 Fermi weights with tetrahedron method with Bloechl corrections


--------------------------------------------------------------------------------------------------------


  energy-cutoff  :      700.00
  volume of cell :     1151.14
      direct lattice vectors                 reciprocal lattice vectors
    10.514334000  0.036661000  0.000000000     0.095109415 -0.000331624  0.000000000
     0.036661000 10.514334000  0.000000000    -0.000331624  0.095109415  0.000000000
     0.000000000  0.000000000 10.412847000     0.000000000  0.000000000  0.096035215

  length of vectors
    10.514397914 10.514397914 10.412847000     0.095109993  0.095109993  0.096035215


 
 old parameters found on file WAVECAR:
  energy-cutoff  :      700.00
  volume of cell :     1151.14
      direct lattice vectors                 reciprocal lattice vectors
    10.514334000  0.036661000  0.000000000     0.095109415 -0.000331624  0.000000000
     0.036661000 10.514334000  0.000000000    -0.000331624  0.095109415  0.000000000
     0.000000000  0.000000000 10.412847000     0.000000000  0.000000000  0.096035215

  length of vectors

 
 k-points in units of 2pi/SCALE and weight: Automatic mesh                          
   0.00000000  0.00000000  0.00000000       0.125
   0.04755471 -0.00016581  0.00000000       0.250
   0.04738890  0.04738890  0.00000000       0.125
   0.00000000  0.00000000  0.04801761       0.125
   0.04755471 -0.00016581  0.04801761       0.250
   0.04738890  0.04738890  0.04801761       0.125
 
 k-points in reciprocal lattice and weights: Automatic mesh                          
   0.00000000  0.00000000  0.00000000       0.125
   0.50000000  0.00000000  0.00000000       0.250
   0.50000000  0.50000000  0.00000000       0.125
   0.00000000  0.00000000  0.50000000       0.125
   0.50000000  0.00000000  0.50000000       0.250
   0.50000000  0.50000000  0.50000000       0.125
 
 position of ions in fractional coordinates (direct lattice) 
   0.12615600  0.12504300  0.12461000
   0.62615600  0.12504300  0.12461000
   0.12615600  0.62504300  0.12461000
   0.62615600  0.62504300  0.12461000
   0.37384400  0.37495700  0.12461000
   0.87384400  0.37495700  0.12461000
   0.37384400  0.87495700  0.12461000
   0.87384400  0.87495700  0.12461000
   0.12495700  0.37384400  0.87461000
   0.62495700  0.37384400  0.87461000
   0.12495700  0.87384400  0.87461000
   0.62495700  0.87384400  0.87461000
   0.37504300  0.12615600  0.87461000
   0.87504300  0.12615600  0.87461000
   0.37504300  0.62615600  0.87461000
   0.87504300  0.62615600  0.87461000
   0.12384400  0.12495700  0.62461000
   0.62384400  0.12495700  0.62461000
   0.12384400  0.62495700  0.62461000
   0.62384400  0.62495700  0.62461000
   0.37615600  0.37504300  0.62461000
   0.87615600  0.37504300  0.62461000
   0.37615600  0.87504300  0.62461000
   0.87615600  0.87504300  0.62461000
   0.37495700  0.12384400  0.37461000
   0.87495700  0.12384400  0.37461000
   0.37495700  0.62384400  0.37461000
   0.87495700  0.62384400  0.37461000
   0.12504300  0.37615600  0.37461000
   0.62504300  0.37615600  0.37461000
   0.12504300  0.87615600  0.37461000
   0.62504300  0.87615600  0.37461000
   0.00000000  0.00000000  0.50033200
   0.50000000  0.00000000  0.50033200
   0.00000000  0.50000000  0.50033200
   0.50000000  0.50000000  0.50033200
   0.25000000  0.00000000  0.25033200
   0.75000000  0.00000000  0.25033200
   0.25000000  0.50000000  0.25033200
   0.75000000  0.50000000  0.25033200
   0.25000000  0.25000000  0.00033200
   0.75000000  0.25000000  0.00033200
   0.25000000  0.75000000  0.00033200
   0.75000000  0.75000000  0.00033200
   0.00000000  0.25000000  0.75033200
   0.50000000  0.25000000  0.75033200
   0.00000000  0.75000000  0.75033200
   0.50000000  0.75000000  0.75033200
   0.00000000  0.00000000  0.00044700
   0.50000000  0.00000000  0.00044700
   0.00000000  0.50000000  0.00044700
   0.50000000  0.50000000  0.00044700
   0.25000000  0.00000000  0.75044700
   0.75000000  0.00000000  0.75044700
   0.25000000  0.50000000  0.75044700
   0.75000000  0.50000000  0.75044700
   0.25000000  0.25000000  0.50044700
   0.75000000  0.25000000  0.50044700
   0.25000000  0.75000000  0.50044700
   0.75000000  0.75000000  0.50044700
   0.00000000  0.25000000  0.25044700
   0.50000000  0.25000000  0.25044700
   0.00000000  0.75000000  0.25044700
   0.50000000  0.75000000  0.25044700
 
 position of ions in cartesian coordinates  (Angst):
   1.33103052  1.31936887  1.29754486
   6.58819752  1.33769937  1.29754486
   1.34936102  6.57653587  1.29754486
   6.60652802  6.59486637  1.29754486
   3.94446698  3.95612863  1.29754486
   9.20163398  3.97445913  1.29754486
   3.96279748  9.21329563  1.29754486
   9.21996448  9.23162613  1.29754486
   1.32754513  3.93530173  9.10718011
   6.58471213  3.95363223  9.10718011
   1.34587563  9.19246873  9.10718011
   6.60304263  9.21079923  9.10718011
   3.94795237  1.34019577  9.10718011
   9.20511937  1.35852627  9.10718011
   3.96628287  6.59736277  9.10718011
   9.22344987  6.61569327  9.10718011
   1.30671823  1.31837988  6.50396836
   6.56388523  1.33671038  6.50396836
   1.32504873  6.57554688  6.50396836
   6.58221573  6.59387738  6.50396836
   3.96877927  3.95711762  6.50396836
   9.22594627  3.97544812  6.50396836
   3.98710977  9.21428462  6.50396836
   9.24427677  9.23261512  6.50396836
   3.94696338  1.31588348  3.90075661
   9.20413038  1.33421398  3.90075661
   3.96529388  6.57305048  3.90075661
   9.22246088  6.59138098  3.90075661
   1.32853412  3.95961402  3.90075661
   6.58570112  3.97794452  3.90075661
   1.34686462  9.21678102  3.90075661
   6.60403162  9.23511152  3.90075661
   0.00000000  0.00000000  5.20988057
   5.25716700  0.01833050  5.20988057
   0.01833050  5.25716700  5.20988057
   5.27549750  5.27549750  5.20988057
   2.62858350  0.00916525  2.60666882
   7.88575050  0.02749575  2.60666882
   2.64691400  5.26633225  2.60666882
   7.90408100  5.28466275  2.60666882
   2.63774875  2.63774875  0.00345707
   7.89491575  2.65607925  0.00345707
   2.65607925  7.89491575  0.00345707
   7.91324625  7.91324625  0.00345707
   0.00916525  2.62858350  7.81309232
   5.26633225  2.64691400  7.81309232
   0.02749575  7.88575050  7.81309232
   5.28466275  7.90408100  7.81309232
   0.00000000  0.00000000  0.00465454
   5.25716700  0.01833050  0.00465454
   0.01833050  5.25716700  0.00465454
   5.27549750  5.27549750  0.00465454
   2.62858350  0.00916525  7.81428979
   7.88575050  0.02749575  7.81428979
   2.64691400  5.26633225  7.81428979
   7.90408100  5.28466275  7.81428979
   2.63774875  2.63774875  5.21107804
   7.89491575  2.65607925  5.21107804
   2.65607925  7.89491575  5.21107804
   7.91324625  7.91324625  5.21107804
   0.00916525  2.62858350  2.60786629
   5.26633225  2.64691400  2.60786629
   0.02749575  7.88575050  2.60786629
   5.28466275  7.90408100  2.60786629
 


--------------------------------------------------------------------------------------------------------


 k-point  1 :   0.0000 0.0000 0.0000  plane waves:   48415
 k-point  2 :   0.5000 0.0000 0.0000  plane waves:   48440
 k-point  3 :   0.5000 0.5000 0.0000  plane waves:   48432
 k-point  4 :   0.0000 0.0000 0.5000  plane waves:   48436
 k-point  5 :   0.5000 0.0000 0.5000  plane waves:   48380
 k-point  6 :   0.5000 0.5000 0.5000  plane waves:   48360

 maximum and minimum number of plane-waves per node :     48440    48360

 maximum number of plane-waves:     48440
 maximum index in each direction: 
   IXMAX=   22   IYMAX=   22   IZMAX=   22
   IXMIN=  -23   IYMIN=  -23   IZMIN=  -22


 serial   3D FFT for wavefunctions
 parallel 3D FFT for charge:
    minimum data exchange during FFTs selected (reduces bandwidth)


 total amount of memory used by VASP MPI-rank0   301249. kBytes
=======================================================================

   base      :      30000. kBytes
   nonl-proj :     175882. kBytes
   fftplans  :       4588. kBytes
   grid      :      69719. kBytes
   one-center:       1990. kBytes
   wavefun   :      19070. kBytes
 
     INWAV:  cpu time   11.5815: real time   11.7341
 Broyden mixing: mesh for mixing (old mesh)
   NGX = 45   NGY = 45   NGZ = 45
  (NGX  =192   NGY  =192   NGZ  =180)
  gives a total of  91125 points

 initial charge density was supplied:
 number of electron     688.0000446 magnetization       0.0000000
 keeping initial charge density in first step


--------------------------------------------------------------------------------------------------------


 Maximum index for augmentation-charges          897 (set IRDMAX)


--------------------------------------------------------------------------------------------------------


 First call to EWALD:  gamma=   0.169
 Maximum number of real-space cells 3x 3x 3
 Maximum number of reciprocal cells 3x 3x 3

    FEWALD:  cpu time    0.0028: real time    0.0032


--------------------------------------- Iteration      1(   1)  ---------------------------------------


    POTLOK:  cpu time    0.3470: real time    0.3717
    SETDIJ:  cpu time    0.0147: real time    0.0148
     EDDAV:  cpu time  142.1239: real time  143.1657
 BZINTS: Fermi energy:  4.975053;688.000000 electrons
         Band energy:***********;  BLOECHL correction:  0.000000
       DOS:  cpu time    0.0032: real time    0.0032
    CHARGE:  cpu time    1.1953: real time    1.2023
    MIXING:  cpu time    0.0025: real time    0.0026
    --------------------------------------------
      LOOP:  cpu time  143.6867: real time  144.7603

 eigenvalue-minimisations  : 18944
 total energy-change (2. order) :-0.3052765E+03  (-0.1332671E+03)
 number of electron     688.0000448 magnetization      -0.0000000
 augmentation part      282.9117747 magnetization      -0.0000000

 Broyden mixing:
  rms(total) = 0.31019E+01    rms(broyden)= 0.31019E+01
  rms(prec ) = 0.31027E+01
  weight for this iteration     100.00

 Free energy of the ion-electron system (eV)
  ---------------------------------------------------
  alpha Z        PSCENC =      2355.18967658
  Ewald energy   TEWEN  =    -62458.87380768
  -Hartree energ DENC   =    -42959.13814493
  -exchange      EXHF   =         0.00000000
  -V(xc)+E(xc)   XCENC  =      3286.49313595
  PAW double counting   =    112275.25010700  -115969.27183769
  entropy T*S    EENTRO =         0.00000000
  eigenvalues    EBANDS =    -10854.99069852
  atomic energy  EATOM  =    114020.06510763
  Solvation  Ediel_sol  =         0.00000000
  ---------------------------------------------------
  free energy    TOTEN  =      -305.27646167 eV

  energy without entropy =     -305.27646167  energy(sigma->0) =     -305.27646167


--------------------------------------------------------------------------------------------------------




--------------------------------------- Iteration      1(   2)  ---------------------------------------


    POTLOK:  cpu time    0.1212: real time    0.1227
    SETDIJ:  cpu time    0.0126: real time    0.0127
     EDDAV:  cpu time   64.2558: real time   64.7526
 BZINTS: Fermi energy:  4.934351;688.000000 electrons
         Band energy:***********;  BLOECHL correction:  0.000000
       DOS:  cpu time    0.0038: real time    0.0039
    CHARGE:  cpu time    1.1775: real time    1.1848
    MIXING:  cpu time    0.0029: real time    0.1447
    --------------------------------------------
      LOOP:  cpu time   65.5739: real time   66.2213

 eigenvalue-minimisations  : 12288
 total energy-change (2. order) :-0.2255623E+02  (-0.2258817E+02)
 number of electron     688.0000446 magnetization      -0.0000000
 augmentation part      281.7145644 magnetization      -0.0000000

 Broyden mixing:
  rms(total) = 0.12627E+01    rms(broyden)= 0.12627E+01
  rms(prec ) = 0.12687E+01
  weight for this iteration     100.00

 eigenvalues of (default mixing * dielectric matrix)
  average eigenvalue GAMMA=   0.7020
  0.7020

 Free energy of the ion-electron system (eV)
  ---------------------------------------------------
  alpha Z        PSCENC =      2355.18967658
  Ewald energy   TEWEN  =    -62458.87380768
  -Hartree energ DENC   =    -42973.93006464
  -exchange      EXHF   =         0.00000000
  -V(xc)+E(xc)   XCENC  =      3287.11773490
  PAW double counting   =    114932.33797059  -118639.00288888
  entropy T*S    EENTRO =         0.00000000
  eigenvalues    EBANDS =    -10850.73642148
  atomic energy  EATOM  =    114020.06510763
  Solvation  Ediel_sol  =         0.00000000
  ---------------------------------------------------
  free energy    TOTEN  =      -327.83269298 eV

  energy without entropy =     -327.83269298  energy(sigma->0) =     -327.83269298


--------------------------------------------------------------------------------------------------------




--------------------------------------- Iteration      1(   3)  ---------------------------------------


    POTLOK:  cpu time    0.1201: real time    0.1211
    SETDIJ:  cpu time    0.0126: real time    0.0126
     EDDAV:  cpu time  129.2416: real time  130.1150
 BZINTS: Fermi energy:  4.920375;688.000000 electrons
         Band energy:***********;  BLOECHL correction:  0.000000
       DOS:  cpu time    0.0030: real time    0.0030
    CHARGE:  cpu time    1.1921: real time    1.1991
    MIXING:  cpu time    0.0014: real time    0.0227
    --------------------------------------------
      LOOP:  cpu time  130.5709: real time  131.4736

 eigenvalue-minimisations  : 18176
 total energy-change (2. order) :-0.2814048E+00  (-0.3465997E+00)
 number of electron     688.0000447 magnetization      -0.0000000
 augmentation part      282.2764286 magnetization      -0.0000000

 Broyden mixing:
  rms(total) = 0.92507E+00    rms(broyden)= 0.92507E+00
  rms(prec ) = 0.92901E+00
  weight for this iteration     100.00

 eigenvalues of (default mixing * dielectric matrix)
  average eigenvalue GAMMA=   0.5181
  0.5181  0.5181

 Free energy of the ion-electron system (eV)
  ---------------------------------------------------
  alpha Z        PSCENC =      2355.18967658
  Ewald energy   TEWEN  =    -62458.87380768
  -Hartree energ DENC   =    -42946.97042812
  -exchange      EXHF   =         0.00000000
  -V(xc)+E(xc)   XCENC  =      3286.47783266
  PAW double counting   =    114204.24169288  -117904.00242448
  entropy T*S    EENTRO =         0.00000000
  eigenvalues    EBANDS =    -10884.24174721
  atomic energy  EATOM  =    114020.06510763
  Solvation  Ediel_sol  =         0.00000000
  ---------------------------------------------------
  free energy    TOTEN  =      -328.11409776 eV

  energy without entropy =     -328.11409776  energy(sigma->0) =     -328.11409776


--------------------------------------------------------------------------------------------------------




--------------------------------------- Iteration      1(   4)  ---------------------------------------


    POTLOK:  cpu time    0.1217: real time    0.1226
    SETDIJ:  cpu time    0.0127: real time    0.0128
     EDDAV:  cpu time   92.7629: real time   93.4182
 BZINTS: Fermi energy:  4.837224;688.000000 electrons
         Band energy:***********;  BLOECHL correction:  0.000000
       DOS:  cpu time    0.0027: real time    0.0027
    CHARGE:  cpu time    1.1910: real time    1.1979
    MIXING:  cpu time    0.0016: real time    0.0347
    --------------------------------------------
      LOOP:  cpu time   94.0925: real time   94.7888

 eigenvalue-minimisations  : 14848
 total energy-change (2. order) :-0.6008577E-02  (-0.2066485E-01)
 number of electron     688.0000446 magnetization       0.0000000
 augmentation part      282.1742237 magnetization       0.0000000

 Broyden mixing:
  rms(total) = 0.79944E+00    rms(broyden)= 0.79944E+00
  rms(prec ) = 0.79984E+00
  weight for this iteration     100.00

 eigenvalues of (default mixing * dielectric matrix)
  average eigenvalue GAMMA=   0.5409
  0.6319  0.6319  0.3589

 Free energy of the ion-electron system (eV)
  ---------------------------------------------------
  alpha Z        PSCENC =      2355.18967658
  Ewald energy   TEWEN  =    -62458.87380768
  -Hartree energ DENC   =    -42950.31357302
  -exchange      EXHF   =         0.00000000
  -V(xc)+E(xc)   XCENC  =      3286.37968812
  PAW double counting   =    113969.24522388  -117669.28500069
  entropy T*S    EENTRO =         0.00000000
  eigenvalues    EBANDS =    -10880.52742116
  atomic energy  EATOM  =    114020.06510763
  Solvation  Ediel_sol  =         0.00000000
  ---------------------------------------------------
  free energy    TOTEN  =      -328.12010634 eV

  energy without entropy =     -328.12010634  energy(sigma->0) =     -328.12010634


--------------------------------------------------------------------------------------------------------




--------------------------------------- Iteration      1(   5)  ---------------------------------------


    POTLOK:  cpu time    0.1191: real time    0.1219
    SETDIJ:  cpu time    0.0126: real time    0.0126
     EDDAV:  cpu time  110.2859: real time  111.0432
 BZINTS: Fermi energy:  4.840042;688.000000 electrons
         Band energy:***********;  BLOECHL correction:  0.000000
       DOS:  cpu time    0.0027: real time    0.0027
    CHARGE:  cpu time    1.1918: real time    1.1990
    MIXING:  cpu time    0.0015: real time    0.0015
    --------------------------------------------
      LOOP:  cpu time  111.6135: real time  112.3810

 eigenvalue-minimisations  : 16384
 total energy-change (2. order) :-0.3505624E-03  (-0.1604832E-02)
 number of electron     688.0000446 magnetization       0.0000000
 augmentation part      282.1468857 magnetization       0.0000000

 Broyden mixing:
  rms(total) = 0.69493E+00    rms(broyden)= 0.69493E+00
  rms(prec ) = 0.69509E+00
  weight for this iteration     100.00

 eigenvalues of (default mixing * dielectric matrix)
  average eigenvalue GAMMA=   0.4339
  0.6404  0.6404  0.3554  0.0995

 Free energy of the ion-electron system (eV)
  ---------------------------------------------------
  alpha Z        PSCENC =      2355.18967658
  Ewald energy   TEWEN  =    -62458.87380768
  -Hartree energ DENC   =    -42954.81032865
  -exchange      EXHF   =         0.00000000
  -V(xc)+E(xc)   XCENC  =      3286.49049015
  PAW double counting   =    113731.36326540  -117430.86148927
  entropy T*S    EENTRO =         0.00000000
  eigenvalues    EBANDS =    -10876.68337105
  atomic energy  EATOM  =    114020.06510763
  Solvation  Ediel_sol  =         0.00000000
  ---------------------------------------------------
  free energy    TOTEN  =      -328.12045690 eV

  energy without entropy =     -328.12045690  energy(sigma->0) =     -328.12045690


--------------------------------------------------------------------------------------------------------




--------------------------------------- Iteration      1(   6)  ---------------------------------------


    POTLOK:  cpu time    0.1202: real time    0.1232
    SETDIJ:  cpu time    0.0128: real time    0.0129
     EDDAV:  cpu time  110.2045: real time  110.9580
 BZINTS: Fermi energy:  4.839563;688.000000 electrons
         Band energy:***********;  BLOECHL correction:  0.000000
       DOS:  cpu time    0.0026: real time    0.0027
    CHARGE:  cpu time    1.1942: real time    1.2013
    MIXING:  cpu time    0.0015: real time    0.0015
    --------------------------------------------
      LOOP:  cpu time  111.5358: real time  112.2995

 eigenvalue-minimisations  : 16128
 total energy-change (2. order) : 0.2282410E-03  (-0.6073942E-04)
 number of electron     688.0000446 magnetization       0.0000000
 augmentation part      282.1459641 magnetization       0.0000000

 Broyden mixing:
  rms(total) = 0.64392E+00    rms(broyden)= 0.64392E+00
  rms(prec ) = 0.64408E+00
  weight for this iteration     100.00

 eigenvalues of (default mixing * dielectric matrix)
  average eigenvalue GAMMA=   0.5786
  0.7695  0.7695  0.5075  0.5075  0.3391

 Free energy of the ion-electron system (eV)
  ---------------------------------------------------
  alpha Z        PSCENC =      2355.18967658
  Ewald energy   TEWEN  =    -62458.87380768
  -Hartree energ DENC   =    -42955.23190384
  -exchange      EXHF   =         0.00000000
  -V(xc)+E(xc)   XCENC  =      3286.48443798
  PAW double counting   =    113618.21388438  -117317.25307278
  entropy T*S    EENTRO =         0.00000000
  eigenvalues    EBANDS =    -10876.71455092
  atomic energy  EATOM  =    114020.06510763
  Solvation  Ediel_sol  =         0.00000000
  ---------------------------------------------------
  free energy    TOTEN  =      -328.12022866 eV

  energy without entropy =     -328.12022866  energy(sigma->0) =     -328.12022866


--------------------------------------------------------------------------------------------------------




--------------------------------------- Iteration      1(   7)  ---------------------------------------


    POTLOK:  cpu time    0.1223: real time    0.1241
    SETDIJ:  cpu time    0.0127: real time    0.0127
     EDDAV:  cpu time  119.1381: real time  119.9526
 BZINTS: Fermi energy:  4.839261;688.000000 electrons
         Band energy:***********;  BLOECHL correction:  0.000000
       DOS:  cpu time    0.0027: real time    0.0027
    CHARGE:  cpu time    1.1918: real time    1.1993
    MIXING:  cpu time    0.0015: real time    0.0015
    --------------------------------------------
      LOOP:  cpu time  120.4690: real time  121.2929

 eigenvalue-minimisations  : 16896
 total energy-change (2. order) : 0.7327512E-03  (-0.5027189E-04)
 number of electron     688.0000446 magnetization       0.0000000
 augmentation part      282.1717972 magnetization       0.0000000

 Broyden mixing:
  rms(total) = 0.50325E+00    rms(broyden)= 0.50325E+00
  rms(prec ) = 0.50335E+00
  weight for this iteration     100.00

 eigenvalues of (default mixing * dielectric matrix)
  average eigenvalue GAMMA=   0.7226
  1.1890  1.1890  0.5792  0.5792  0.4615  0.3375

 Free energy of the ion-electron system (eV)
  ---------------------------------------------------
  alpha Z        PSCENC =      2355.18967658
  Ewald energy   TEWEN  =    -62458.87380768
  -Hartree energ DENC   =    -42955.82800344
  -exchange      EXHF   =         0.00000000
  -V(xc)+E(xc)   XCENC  =      3286.47328848
  PAW double counting   =    113304.67566795  -117002.41241921
  entropy T*S    EENTRO =         0.00000000
  eigenvalues    EBANDS =    -10877.40900620
  atomic energy  EATOM  =    114020.06510763
  Solvation  Ediel_sol  =         0.00000000
  ---------------------------------------------------
  free energy    TOTEN  =      -328.11949591 eV

  energy without entropy =     -328.11949591  energy(sigma->0) =     -328.11949591


--------------------------------------------------------------------------------------------------------




--------------------------------------- Iteration      1(   8)  ---------------------------------------


    POTLOK:  cpu time    0.1205: real time    0.1225
    SETDIJ:  cpu time    0.0129: real time    0.0129
     EDDAV:  cpu time   77.0295: real time   77.5930
 BZINTS: Fermi energy:  4.839140;688.000000 electrons
         Band energy:***********;  BLOECHL correction:  0.000000
       DOS:  cpu time    0.0027: real time    0.0027
    CHARGE:  cpu time    1.3494: real time    1.3571
    MIXING:  cpu time    0.0018: real time    0.0018
    --------------------------------------------
      LOOP:  cpu time   78.5167: real time   79.0900

 eigenvalue-minimisations  : 13056
 total energy-change (2. order) : 0.4700820E-03  (-0.4701082E-04)
 number of electron     688.0000446 magnetization       0.0000000
 augmentation part      282.1847819 magnetization       0.0000000

 Broyden mixing:
  rms(total) = 0.31024E+00    rms(broyden)= 0.31024E+00
  rms(prec ) = 0.31034E+00
  weight for this iteration     100.00

 eigenvalues of (default mixing * dielectric matrix)
  average eigenvalue GAMMA=   0.7376
  1.3205  1.3205  0.6395  0.6395  0.4561  0.4561  0.3310

 Free energy of the ion-electron system (eV)
  ---------------------------------------------------
  alpha Z        PSCENC =      2355.18967658
  Ewald energy   TEWEN  =    -62458.87380768
  -Hartree energ DENC   =    -42957.56725912
  -exchange      EXHF   =         0.00000000
  -V(xc)+E(xc)   XCENC  =      3286.48268682
  PAW double counting   =    112887.29617181  -116583.43788974
  entropy T*S    EENTRO =         0.00000000
  eigenvalues    EBANDS =    -10877.27371212
  atomic energy  EATOM  =    114020.06510763
  Solvation  Ediel_sol  =         0.00000000
  ---------------------------------------------------
  free energy    TOTEN  =      -328.11902582 eV

  energy without entropy =     -328.11902582  energy(sigma->0) =     -328.11902582


--------------------------------------------------------------------------------------------------------




--------------------------------------- Iteration      1(   9)  ---------------------------------------


    POTLOK:  cpu time    0.1303: real time    0.1357
    SETDIJ:  cpu time    0.0146: real time    0.0147
     EDDAV:  cpu time  128.1297: real time  128.9806
 BZINTS: Fermi energy:  4.839151;688.000000 electrons
         Band energy:***********;  BLOECHL correction:  0.000000
       DOS:  cpu time    0.0027: real time    0.0027
    CHARGE:  cpu time    1.3577: real time    1.3657
    MIXING:  cpu time    0.0017: real time    0.0017
    --------------------------------------------
      LOOP:  cpu time  129.6367: real time  130.5011

 eigenvalue-minimisations  : 17152
 total energy-change (2. order) : 0.1298434E-03  (-0.8758142E-05)
 number of electron     688.0000446 magnetization       0.0000000
 augmentation part      282.1930868 magnetization       0.0000000

 Broyden mixing:
  rms(total) = 0.24475E+00    rms(broyden)= 0.24475E+00
  rms(prec ) = 0.24483E+00
  weight for this iteration     100.00

 eigenvalues of (default mixing * dielectric matrix)
  average eigenvalue GAMMA=   0.7482
  1.4313  1.4313  0.6978  0.6978  0.4839  0.4839  0.4236  0.3360

 Free energy of the ion-electron system (eV)
  ---------------------------------------------------
  alpha Z        PSCENC =      2355.18967658
  Ewald energy   TEWEN  =    -62458.87380768
  -Hartree energ DENC   =    -42957.92428654
  -exchange      EXHF   =         0.00000000
  -V(xc)+E(xc)   XCENC  =      3286.48598634
  PAW double counting   =    112755.75002595  -116451.39595999
  entropy T*S    EENTRO =         0.00000000
  eigenvalues    EBANDS =    -10877.41563826
  atomic energy  EATOM  =    114020.06510763
  Solvation  Ediel_sol  =         0.00000000
  ---------------------------------------------------
  free energy    TOTEN  =      -328.11889598 eV

  energy without entropy =     -328.11889598  energy(sigma->0) =     -328.11889598


--------------------------------------------------------------------------------------------------------




--------------------------------------- Iteration      1(  10)  ---------------------------------------


    POTLOK:  cpu time    0.1327: real time    0.1365
    SETDIJ:  cpu time    0.0146: real time    0.0147
     EDDAV:  cpu time   82.4552: real time   83.0444
 BZINTS: Fermi energy:  4.839150;688.000000 electrons
         Band energy:***********;  BLOECHL correction:  0.000000
       DOS:  cpu time    0.0026: real time    0.0027
    CHARGE:  cpu time    1.1839: real time    1.1911
    MIXING:  cpu time    0.0018: real time    0.0018
    --------------------------------------------
      LOOP:  cpu time   83.7908: real time   84.3912

 eigenvalue-minimisations  : 13568
 total energy-change (2. order) : 0.1536915E-03  (-0.1788077E-04)
 number of electron     688.0000446 magnetization       0.0000000
 augmentation part      282.2076068 magnetization       0.0000000

 Broyden mixing:
  rms(total) = 0.12093E+00    rms(broyden)= 0.12093E+00
  rms(prec ) = 0.12097E+00
  weight for this iteration     100.00

 eigenvalues of (default mixing * dielectric matrix)
  average eigenvalue GAMMA=   0.8561
  1.7100  1.7100  0.8959  0.8959  0.5898  0.5898  0.4902  0.4902  0.3332

 Free energy of the ion-electron system (eV)
  ---------------------------------------------------
  alpha Z        PSCENC =      2355.18967658
  Ewald energy   TEWEN  =    -62458.87380768
  -Hartree energ DENC   =    -42958.57213252
  -exchange      EXHF   =         0.00000000
  -V(xc)+E(xc)   XCENC  =      3286.48931795
  PAW double counting   =    112509.02861779  -116203.77421852
  entropy T*S    EENTRO =         0.00000000
  eigenvalues    EBANDS =    -10877.67130350
  atomic energy  EATOM  =    114020.06510763
  Solvation  Ediel_sol  =         0.00000000
  ---------------------------------------------------
  free energy    TOTEN  =      -328.11874229 eV

  energy without entropy =     -328.11874229  energy(sigma->0) =     -328.11874229


--------------------------------------------------------------------------------------------------------




--------------------------------------- Iteration      1(  11)  ---------------------------------------


    POTLOK:  cpu time    0.1218: real time    0.1229
    SETDIJ:  cpu time    0.0126: real time    0.0126
     EDDAV:  cpu time  142.9290: real time  143.8895
 BZINTS: Fermi energy:  4.839154;688.000000 electrons
         Band energy:***********;  BLOECHL correction:  0.000000
       DOS:  cpu time    0.0027: real time    0.0027
    CHARGE:  cpu time    1.1953: real time    1.2026
    MIXING:  cpu time    0.0018: real time    0.0018
    --------------------------------------------
      LOOP:  cpu time  144.2632: real time  145.2320

 eigenvalue-minimisations  : 19456
 total energy-change (2. order) : 0.3051574E-04  (-0.3147880E-05)
 number of electron     688.0000446 magnetization      -0.0000000
 augmentation part      282.2131716 magnetization      -0.0000000

 Broyden mixing:
  rms(total) = 0.69604E-01    rms(broyden)= 0.69604E-01
  rms(prec ) = 0.69627E-01
  weight for this iteration     100.00

 eigenvalues of (default mixing * dielectric matrix)
  average eigenvalue GAMMA=   0.8915
  1.9443  1.9443  0.9683  0.9683  0.6372  0.6372  0.3338  0.5046  0.5046  0.4725

 Free energy of the ion-electron system (eV)
  ---------------------------------------------------
  alpha Z        PSCENC =      2355.18967658
  Ewald energy   TEWEN  =    -62458.87380768
  -Hartree energ DENC   =    -42958.80567505
  -exchange      EXHF   =         0.00000000
  -V(xc)+E(xc)   XCENC  =      3286.49135265
  PAW double counting   =    112411.03246402  -116105.46919457
  entropy T*S    EENTRO =         0.00000000
  eigenvalues    EBANDS =    -10877.74863534
  atomic energy  EATOM  =    114020.06510763
  Solvation  Ediel_sol  =         0.00000000
  ---------------------------------------------------
  free energy    TOTEN  =      -328.11871177 eV

  energy without entropy =     -328.11871177  energy(sigma->0) =     -328.11871177


--------------------------------------------------------------------------------------------------------




--------------------------------------- Iteration      1(  12)  ---------------------------------------


    POTLOK:  cpu time    0.1214: real time    0.1225
    SETDIJ:  cpu time    0.0124: real time    0.0125
     EDDAV:  cpu time   84.0243: real time   84.6313
 BZINTS: Fermi energy:  4.839210;688.000000 electrons
         Band energy:***********;  BLOECHL correction:  0.000000
       DOS:  cpu time    0.0026: real time    0.0027
    CHARGE:  cpu time    1.1960: real time    1.2029
    MIXING:  cpu time    0.0020: real time    0.0158
    --------------------------------------------
      LOOP:  cpu time   85.3587: real time   85.9876

 eigenvalue-minimisations  : 13824
 total energy-change (2. order) : 0.1574872E-04  (-0.1383359E-05)
 number of electron     688.0000446 magnetization      -0.0000000
 augmentation part      282.2160360 magnetization      -0.0000000

 Broyden mixing:
  rms(total) = 0.30862E-01    rms(broyden)= 0.30862E-01
  rms(prec ) = 0.30873E-01
  weight for this iteration     100.00

 eigenvalues of (default mixing * dielectric matrix)
  average eigenvalue GAMMA=   0.9376
  2.1949  2.1949  1.0699  1.0699  0.7113  0.7113  0.5360  0.5360  0.3335  0.4779
  0.4779

 Free energy of the ion-electron system (eV)
  ---------------------------------------------------
  alpha Z        PSCENC =      2355.18967658
  Ewald energy   TEWEN  =    -62458.87380768
  -Hartree energ DENC   =    -42959.00894168
  -exchange      EXHF   =         0.00000000
  -V(xc)+E(xc)   XCENC  =      3286.49502722
  PAW double counting   =    112338.72255028  -116032.95230431
  entropy T*S    EENTRO =         0.00000000
  eigenvalues    EBANDS =    -10877.75600405
  atomic energy  EATOM  =    114020.06510763
  Solvation  Ediel_sol  =         0.00000000
  ---------------------------------------------------
  free energy    TOTEN  =      -328.11869603 eV

  energy without entropy =     -328.11869603  energy(sigma->0) =     -328.11869603


--------------------------------------------------------------------------------------------------------




--------------------------------------- Iteration      1(  13)  ---------------------------------------


    POTLOK:  cpu time    0.1197: real time    0.1207
    SETDIJ:  cpu time    0.0126: real time    0.0126
     EDDAV:  cpu time  112.5979: real time  113.3636
 BZINTS: Fermi energy:  4.839215;688.000000 electrons
         Band energy:***********;  BLOECHL correction:  0.000000
       DOS:  cpu time    0.0027: real time    0.0027
    CHARGE:  cpu time    1.1966: real time    1.2040
    MIXING:  cpu time    0.0019: real time    0.0019
    --------------------------------------------
      LOOP:  cpu time  113.9314: real time  114.7056

 eigenvalue-minimisations  : 16128
 total energy-change (2. order) : 0.6380520E-05  (-0.6209848E-06)
 number of electron     688.0000446 magnetization      -0.0000000
 augmentation part      282.2186187 magnetization      -0.0000000

 Broyden mixing:
  rms(total) = 0.83363E-02    rms(broyden)= 0.83363E-02
  rms(prec ) = 0.83416E-02
  weight for this iteration     100.00

 eigenvalues of (default mixing * dielectric matrix)
  average eigenvalue GAMMA=   1.1546
  3.0717  3.0717  1.3766  1.3766  0.8792  0.8792  0.3336  0.6231  0.6231  0.5433
  0.5433  0.5339

 Free energy of the ion-electron system (eV)
  ---------------------------------------------------
  alpha Z        PSCENC =      2355.18967658
  Ewald energy   TEWEN  =    -62458.87380768
  -Hartree energ DENC   =    -42959.13617360
  -exchange      EXHF   =         0.00000000
  -V(xc)+E(xc)   XCENC  =      3286.49566384
  PAW double counting   =    112292.63776671  -115986.71023346
  entropy T*S    EENTRO =         0.00000000
  eigenvalues    EBANDS =    -10877.78668965
  atomic energy  EATOM  =    114020.06510763
  Solvation  Ediel_sol  =         0.00000000
  ---------------------------------------------------
  free energy    TOTEN  =      -328.11868964 eV

  energy without entropy =     -328.11868964  energy(sigma->0) =     -328.11868964


--------------------------------------------------------------------------------------------------------




--------------------------------------- Iteration      1(  14)  ---------------------------------------


    POTLOK:  cpu time    0.1218: real time    0.1227
    SETDIJ:  cpu time    0.0125: real time    0.0126
     EDDAV:  cpu time  114.4462: real time  115.2369
 BZINTS: Fermi energy:  4.839216;688.000000 electrons
         Band energy:***********;  BLOECHL correction:  0.000000
       DOS:  cpu time    0.0027: real time    0.0027
    CHARGE:  cpu time    1.1969: real time    1.2043
    MIXING:  cpu time    0.0019: real time    0.0019
    --------------------------------------------
      LOOP:  cpu time  115.7821: real time  116.5812

 eigenvalue-minimisations  : 17152
 total energy-change (2. order) : 0.1331864E-05  (-0.1367609E-06)
 number of electron     688.0000446 magnetization      -0.0000000
 augmentation part      282.2198420 magnetization      -0.0000000

 Broyden mixing:
  rms(total) = 0.10300E-02    rms(broyden)= 0.10300E-02
  rms(prec ) = 0.10306E-02
  weight for this iteration     100.00

 eigenvalues of (default mixing * dielectric matrix)
  average eigenvalue GAMMA=   1.2060
  3.3509  3.3509  1.5275  1.5275  0.9722  0.9722  0.6971  0.6971  0.3336  0.5678
  0.5678  0.5568  0.5568

 Free energy of the ion-electron system (eV)
  ---------------------------------------------------
  alpha Z        PSCENC =      2355.18967658
  Ewald energy   TEWEN  =    -62458.87380768
  -Hartree energ DENC   =    -42959.16584444
  -exchange      EXHF   =         0.00000000
  -V(xc)+E(xc)   XCENC  =      3286.49546487
  PAW double counting   =    112277.05417033  -115971.07541616
  entropy T*S    EENTRO =         0.00000000
  eigenvalues    EBANDS =    -10877.80803944
  atomic energy  EATOM  =    114020.06510763
  Solvation  Ediel_sol  =         0.00000000
  ---------------------------------------------------
  free energy    TOTEN  =      -328.11868831 eV

  energy without entropy =     -328.11868831  energy(sigma->0) =     -328.11868831


--------------------------------------------------------------------------------------------------------




--------------------------------------- Iteration      1(  15)  ---------------------------------------


    POTLOK:  cpu time    0.1209: real time    0.1239
    SETDIJ:  cpu time    0.0126: real time    0.0126
     EDDAV:  cpu time  105.3091: real time  106.0302
 BZINTS: Fermi energy:  4.839217;688.000000 electrons
         Band energy:***********;  BLOECHL correction:  0.000000
       DOS:  cpu time    0.0027: real time    0.0027
    CHARGE:  cpu time    1.1840: real time    1.1916
    MIXING:  cpu time    0.0020: real time    0.0020
    --------------------------------------------
      LOOP:  cpu time  106.6312: real time  107.3630

 eigenvalue-minimisations  : 15360
 total energy-change (2. order) : 0.1665321E-06  (-0.9144151E-08)
 number of electron     688.0000446 magnetization      -0.0000000
 augmentation part      282.2200470 magnetization      -0.0000000

 Broyden mixing:
  rms(total) = 0.20719E-03    rms(broyden)= 0.20719E-03
  rms(prec ) = 0.21184E-03
  weight for this iteration     100.00

 eigenvalues of (default mixing * dielectric matrix)
  average eigenvalue GAMMA=   1.1842
  3.2685  3.2685  1.5961  1.5961  1.0086  1.0086  0.7671  0.7671  0.3336  0.6146
  0.6146  0.5830  0.5830  0.5696

 Free energy of the ion-electron system (eV)
  ---------------------------------------------------
  alpha Z        PSCENC =      2355.18967658
  Ewald energy   TEWEN  =    -62458.87380768
  -Hartree energ DENC   =    -42959.16948378
  -exchange      EXHF   =         0.00000000
  -V(xc)+E(xc)   XCENC  =      3286.49520975
  PAW double counting   =    112274.30551885  -115968.32059187
  entropy T*S    EENTRO =         0.00000000
  eigenvalues    EBANDS =    -10877.81031762
  atomic energy  EATOM  =    114020.06510763
  Solvation  Ediel_sol  =         0.00000000
  ---------------------------------------------------
  free energy    TOTEN  =      -328.11868815 eV

  energy without entropy =     -328.11868815  energy(sigma->0) =     -328.11868815


--------------------------------------------------------------------------------------------------------




--------------------------------------- Iteration      1(  16)  ---------------------------------------


    POTLOK:  cpu time    0.1207: real time    0.1217
    SETDIJ:  cpu time    0.0125: real time    0.0126
     EDDAV:  cpu time   65.0974: real time   65.5659
 BZINTS: Fermi energy:  4.839215;688.000000 electrons
         Band energy:***********;  BLOECHL correction:  0.000000
       DOS:  cpu time    0.0026: real time    0.0027
    CHARGE:  cpu time    1.1949: real time    1.2018
    MIXING:  cpu time    0.0022: real time    0.0022
    --------------------------------------------
      LOOP:  cpu time   66.4304: real time   66.9068

 eigenvalue-minimisations  :  9728
 total energy-change (2. order) : 0.1545413E-07  (-0.9990030E-09)
 number of electron     688.0000446 magnetization       0.0000000
 augmentation part      282.2199833 magnetization       0.0000000

 Broyden mixing:
  rms(total) = 0.51998E-04    rms(broyden)= 0.51997E-04
  rms(prec ) = 0.53785E-04
  weight for this iteration     100.00

 eigenvalues of (default mixing * dielectric matrix)
  average eigenvalue GAMMA=   1.2045
  3.0263  3.0263  1.8255  1.8255  1.2066  1.2066  0.9165  0.9165  0.3336  0.5777
  0.5777  0.7087  0.7087  0.6054  0.6054

 Free energy of the ion-electron system (eV)
  ---------------------------------------------------
  alpha Z        PSCENC =      2355.18967658
  Ewald energy   TEWEN  =    -62458.87380768
  -Hartree energ DENC   =    -42959.16798894
  -exchange      EXHF   =         0.00000000
  -V(xc)+E(xc)   XCENC  =      3286.49512486
  PAW double counting   =    112274.76846135  -115968.78478007
  entropy T*S    EENTRO =         0.00000000
  eigenvalues    EBANDS =    -10877.81048185
  atomic energy  EATOM  =    114020.06510763
  Solvation  Ediel_sol  =         0.00000000
  ---------------------------------------------------
  free energy    TOTEN  =      -328.11868813 eV

  energy without entropy =     -328.11868813  energy(sigma->0) =     -328.11868813


--------------------------------------------------------------------------------------------------------




--------------------------------------- Iteration      1(  17)  ---------------------------------------


    POTLOK:  cpu time    0.1203: real time    0.1214
    SETDIJ:  cpu time    0.0125: real time    0.0125
     EDDAV:  cpu time   90.6249: real time   91.2312
 BZINTS: Fermi energy:  4.839213;688.000000 electrons
         Band energy:***********;  BLOECHL correction:  0.000000
       DOS:  cpu time    0.0027: real time    0.0027
    CHARGE:  cpu time    1.1966: real time    1.2038
    MIXING:  cpu time    0.0023: real time    0.0023
    --------------------------------------------
      LOOP:  cpu time   91.9593: real time   92.5740

 eigenvalue-minimisations  : 11776
 total energy-change (2. order) : 0.2575689E-07  (-0.6598283E-10)
 number of electron     688.0000446 magnetization       0.0000000
 augmentation part      282.2199674 magnetization       0.0000000

 Broyden mixing:
  rms(total) = 0.85277E-04    rms(broyden)= 0.85277E-04
  rms(prec ) = 0.85621E-04
  weight for this iteration     100.00

 eigenvalues of (default mixing * dielectric matrix)
  average eigenvalue GAMMA=   1.2244
  3.5299  2.4699  2.4699  1.5730  1.5730  1.1054  1.1054  0.8515  0.8515  0.3336
  0.5784  0.5784  0.6860  0.6860  0.5990  0.5990

 Free energy of the ion-electron system (eV)
  ---------------------------------------------------
  alpha Z        PSCENC =      2355.18967658
  Ewald energy   TEWEN  =    -62458.87380768
  -Hartree energ DENC   =    -42959.16846144
  -exchange      EXHF   =         0.00000000
  -V(xc)+E(xc)   XCENC  =      3286.49512670
  PAW double counting   =    112274.91115033  -115968.92702200
  entropy T*S    EENTRO =         0.00000000
  eigenvalues    EBANDS =    -10877.81045822
  atomic energy  EATOM  =    114020.06510763
  Solvation  Ediel_sol  =         0.00000000
  ---------------------------------------------------
  free energy    TOTEN  =      -328.11868811 eV

  energy without entropy =     -328.11868811  energy(sigma->0) =     -328.11868811


--------------------------------------------------------------------------------------------------------




--------------------------------------- Iteration      1(  18)  ---------------------------------------


    POTLOK:  cpu time    0.1216: real time    0.1226
    SETDIJ:  cpu time    0.0126: real time    0.0126
     EDDAV:  cpu time   76.9384: real time   77.4677
 BZINTS: Fermi energy:  4.839212;688.000000 electrons
         Band energy:***********;  BLOECHL correction:  0.000000
       DOS:  cpu time    0.0027: real time    0.0027
    CHARGE:  cpu time    1.3468: real time    1.3549
    MIXING:  cpu time    0.0025: real time    0.0025
    --------------------------------------------
[...]
   -.422E+02 0.755E-01 0.216E+01   0.430E+02 -.731E-01 -.218E+01   -.862E+00 -.250E-02 0.214E-01   0.902E-06 -.325E-07 0.238E-06
   -.422E+02 0.755E-01 0.216E+01   0.430E+02 -.731E-01 -.218E+01   -.862E+00 -.250E-02 0.214E-01   0.902E-06 -.325E-07 0.238E-06
   -.422E+02 0.755E-01 0.216E+01   0.430E+02 -.731E-01 -.218E+01   -.862E+00 -.250E-02 0.214E-01   0.902E-06 -.325E-07 0.238E-06
   -.422E+02 0.755E-01 0.216E+01   0.430E+02 -.731E-01 -.218E+01   -.862E+00 -.250E-02 0.214E-01   0.902E-06 -.325E-07 0.238E-06
   0.422E+02 -.755E-01 0.216E+01   -.430E+02 0.731E-01 -.218E+01   0.862E+00 0.250E-02 0.214E-01   -.902E-06 0.325E-07 0.238E-06
   0.422E+02 -.755E-01 0.216E+01   -.430E+02 0.731E-01 -.218E+01   0.862E+00 0.250E-02 0.214E-01   -.902E-06 0.325E-07 0.238E-06
   0.422E+02 -.755E-01 0.216E+01   -.430E+02 0.731E-01 -.218E+01   0.862E+00 0.250E-02 0.214E-01   -.902E-06 0.325E-07 0.238E-06
   0.422E+02 -.755E-01 0.216E+01   -.430E+02 0.731E-01 -.218E+01   0.862E+00 0.250E-02 0.214E-01   -.902E-06 0.325E-07 0.238E-06
   0.755E-01 -.422E+02 0.216E+01   -.731E-01 0.430E+02 -.218E+01   -.250E-02 -.862E+00 0.214E-01   -.325E-07 0.902E-06 0.238E-06
   0.755E-01 -.422E+02 0.216E+01   -.731E-01 0.430E+02 -.218E+01   -.250E-02 -.862E+00 0.214E-01   -.325E-07 0.902E-06 0.238E-06
   0.755E-01 -.422E+02 0.216E+01   -.731E-01 0.430E+02 -.218E+01   -.250E-02 -.862E+00 0.214E-01   -.325E-07 0.902E-06 0.238E-06
   0.755E-01 -.422E+02 0.216E+01   -.731E-01 0.430E+02 -.218E+01   -.250E-02 -.862E+00 0.214E-01   -.325E-07 0.902E-06 0.238E-06
   -.755E-01 0.422E+02 0.216E+01   0.731E-01 -.430E+02 -.218E+01   0.250E-02 0.862E+00 0.214E-01   0.325E-07 -.902E-06 0.238E-06
   -.755E-01 0.422E+02 0.216E+01   0.731E-01 -.430E+02 -.218E+01   0.250E-02 0.862E+00 0.214E-01   0.325E-07 -.902E-06 0.238E-06
   -.755E-01 0.422E+02 0.216E+01   0.731E-01 -.430E+02 -.218E+01   0.250E-02 0.862E+00 0.214E-01   0.325E-07 -.902E-06 0.238E-06
   -.755E-01 0.422E+02 0.216E+01   0.731E-01 -.430E+02 -.218E+01   0.250E-02 0.862E+00 0.214E-01   0.325E-07 -.902E-06 0.238E-06
   -.507E-07 0.239E-07 -.254E+01   -.123E-12 -.107E-12 0.244E+01   0.444E-25 -.129E-25 0.104E+00   0.109E-11 -.273E-12 -.643E-06
   -.507E-07 0.239E-07 -.254E+01   -.918E-13 -.171E-12 0.244E+01   -.318E-25 -.145E-25 0.104E+00   -.136E-11 -.116E-12 -.643E-06
   -.507E-07 0.240E-07 -.254E+01   -.123E-12 -.121E-12 0.244E+01   -.263E-25 0.194E-25 0.104E+00   0.116E-11 0.187E-12 -.643E-06
   -.507E-07 0.240E-07 -.254E+01   -.120E-12 -.114E-12 0.244E+01   0.113E-25 -.129E-25 0.104E+00   -.147E-11 -.268E-13 -.643E-06
   0.239E-07 -.507E-07 -.254E+01   -.114E-12 -.227E-12 0.244E+01   0.321E-25 0.129E-25 0.104E+00   -.784E-12 -.320E-12 -.643E-06
   0.240E-07 -.507E-07 -.254E+01   -.114E-12 -.227E-12 0.244E+01   -.225E-25 0.129E-25 0.104E+00   0.417E-12 -.323E-12 -.643E-06
   0.239E-07 -.507E-07 -.254E+01   -.114E-12 -.171E-12 0.244E+01   -.961E-26 0.129E-25 0.104E+00   -.891E-12 0.102E-12 -.643E-06
   0.240E-07 -.506E-07 -.254E+01   -.853E-13 -.171E-12 0.244E+01   0.162E-25 -.436E-25 0.104E+00   0.455E-12 0.285E-12 -.643E-06
   -.507E-07 0.240E-07 -.254E+01   -.121E-12 -.131E-12 0.244E+01   0.443E-26 -.194E-25 0.104E+00   -.122E-11 0.450E-12 -.643E-06
   -.507E-07 0.239E-07 -.254E+01   -.639E-13 -.124E-12 0.244E+01   -.345E-25 0.420E-25 0.104E+00   0.810E-12 0.585E-12 -.643E-06
   -.507E-07 0.240E-07 -.254E+01   -.114E-12 -.547E-13 0.244E+01   -.167E-25 0.485E-26 0.104E+00   -.129E-11 -.548E-12 -.643E-06
   -.507E-07 0.240E-07 -.254E+01   -.142E-12 -.119E-12 0.244E+01   0.364E-26 -.258E-25 0.104E+00   0.869E-12 -.663E-12 -.643E-06
   0.239E-07 -.507E-07 -.254E+01   -.130E-12 -.242E-12 0.244E+01   -.714E-26 0.129E-25 0.104E+00   0.797E-13 0.477E-12 -.643E-06
   0.240E-07 -.506E-07 -.254E+01   -.994E-13 -.185E-12 0.244E+01   0.512E-26 -.969E-26 0.104E+00   -.269E-12 0.420E-12 -.643E-06
   0.239E-07 -.507E-07 -.254E+01   -.664E-13 -.237E-12 0.244E+01   0.511E-25 -.388E-25 0.104E+00   0.463E-13 -.748E-12 -.643E-06
   0.240E-07 -.507E-07 -.254E+01   -.923E-13 -.180E-12 0.244E+01   -.123E-25 0.355E-25 0.104E+00   -.285E-12 -.686E-12 -.643E-06
   -.164E-08 -.806E-08 -.204E+01   0.339E-12 0.320E-13 0.191E+01   0.154E-24 0.000E+00 0.123E+00   -.417E-12 -.849E-13 -.279E-06
   -.164E-08 -.806E-08 -.204E+01   0.356E-12 0.284E-13 0.191E+01   -.118E-24 -.323E-25 0.123E+00   0.285E-12 -.436E-13 -.279E-06
   -.164E-08 -.806E-08 -.204E+01   0.386E-12 0.533E-13 0.191E+01   -.254E-25 0.129E-25 0.123E+00   -.503E-12 0.170E-12 -.279E-06
   -.164E-08 -.804E-08 -.204E+01   0.359E-12 0.568E-13 0.191E+01   0.237E-25 -.388E-25 0.123E+00   0.374E-12 0.157E-12 -.279E-06
   -.806E-08 -.164E-08 -.204E+01   0.114E-12 0.533E-13 0.191E+01   -.314E-25 0.105E-25 0.123E+00   -.609E-12 0.702E-13 -.279E-06
   -.806E-08 -.164E-08 -.204E+01   0.782E-13 0.110E-12 0.191E+01   -.856E-25 0.452E-25 0.123E+00   0.364E-12 0.423E-13 -.279E-06
   -.806E-08 -.165E-08 -.204E+01   0.110E-12 0.142E-12 0.191E+01   0.736E-25 0.129E-25 0.123E+00   -.655E-12 0.933E-13 -.279E-06
   -.806E-08 -.164E-08 -.204E+01   0.131E-12 0.135E-12 0.191E+01   -.370E-25 0.129E-25 0.123E+00   0.437E-12 0.184E-12 -.279E-06
   -.164E-08 -.807E-08 -.204E+01   0.295E-12 0.109E-13 0.191E+01   -.207E-26 0.646E-25 0.123E+00   -.236E-12 0.501E-12 -.279E-06
   -.164E-08 -.810E-08 -.204E+01   0.323E-12 0.109E-13 0.191E+01   -.687E-25 0.258E-25 0.123E+00   0.642E-13 0.537E-12 -.279E-06
   -.164E-08 -.805E-08 -.204E+01   0.313E-12 -.927E-14 0.191E+01   -.439E-25 0.258E-25 0.123E+00   -.423E-12 -.451E-12 -.279E-06
   -.164E-08 -.804E-08 -.204E+01   0.341E-12 -.572E-14 0.191E+01   0.200E-25 0.646E-25 0.123E+00   0.219E-12 -.309E-12 -.279E-06
   -.806E-08 -.164E-08 -.204E+01   0.641E-13 0.875E-13 0.191E+01   0.396E-25 0.679E-25 0.123E+00   0.423E-12 0.548E-12 -.279E-06
   -.806E-08 -.164E-08 -.204E+01   0.570E-13 0.946E-13 0.191E+01   -.313E-25 0.808E-26 0.123E+00   -.625E-12 0.488E-12 -.279E-06
   -.806E-08 -.164E-08 -.204E+01   0.599E-13 0.110E-12 0.191E+01   -.259E-25 0.646E-25 0.123E+00   0.448E-12 -.370E-12 -.279E-06
   -.806E-08 -.163E-08 -.204E+01   0.528E-13 0.531E-13 0.191E+01   0.685E-25 0.258E-25 0.123E+00   -.576E-12 -.342E-12 -.279E-06
 -----------------------------------------------------------------------------------------------
   0.315E-06 0.315E-06 -.431E+01   0.613E-12 -.266E-12 0.649E-12   -.113E-15 -.111E-15 0.431E+01   -.574E-11 -.141E-12 -.713E-05
 
 
 POSITION                                       TOTAL-FORCE (eV/Angst)
 -----------------------------------------------------------------------------------
      1.33103      1.31937      1.29754        -0.000077      0.000074     -0.000084
      6.58820      1.33770      1.29754        -0.000077      0.000074     -0.000084
      1.34936      6.57654      1.29754        -0.000077      0.000074     -0.000084
      6.60653      6.59487      1.29754        -0.000077      0.000074     -0.000084
      3.94447      3.95613      1.29754         0.000077     -0.000074     -0.000084
      9.20163      3.97446      1.29754         0.000077     -0.000074     -0.000084
      3.96280      9.21330      1.29754         0.000077     -0.000074     -0.000084
      9.21996      9.23163      1.29754         0.000077     -0.000074     -0.000084
      1.32755      3.93530      9.10718        -0.000074      0.000077     -0.000084
      6.58471      3.95363      9.10718        -0.000074      0.000077     -0.000084
      1.34588      9.19247      9.10718        -0.000074      0.000077     -0.000084
      6.60304      9.21080      9.10718        -0.000074      0.000077     -0.000084
      3.94795      1.34020      9.10718         0.000074     -0.000077     -0.000084
      9.20512      1.35853      9.10718         0.000074     -0.000077     -0.000084
      3.96628      6.59736      9.10718         0.000074     -0.000077     -0.000084
      9.22345      6.61569      9.10718         0.000074     -0.000077     -0.000084
      1.30672      1.31838      6.50397         0.000077     -0.000074     -0.000084
      6.56389      1.33671      6.50397         0.000077     -0.000074     -0.000084
      1.32505      6.57555      6.50397         0.000077     -0.000074     -0.000084
      6.58222      6.59388      6.50397         0.000077     -0.000074     -0.000084
      3.96878      3.95712      6.50397        -0.000077      0.000074     -0.000084
      9.22595      3.97545      6.50397        -0.000077      0.000074     -0.000084
      3.98711      9.21428      6.50397        -0.000077      0.000074     -0.000084
      9.24428      9.23262      6.50397        -0.000077      0.000074     -0.000084
      3.94696      1.31588      3.90076        -0.000074      0.000077     -0.000084
      9.20413      1.33421      3.90076        -0.000074      0.000077     -0.000084
      3.96529      6.57305      3.90076        -0.000074      0.000077     -0.000084
      9.22246      6.59138      3.90076        -0.000074      0.000077     -0.000084
      1.32853      3.95961      3.90076         0.000074     -0.000077     -0.000084
      6.58570      3.97794      3.90076         0.000074     -0.000077     -0.000084
      1.34686      9.21678      3.90076         0.000074     -0.000077     -0.000084
      6.60403      9.23511      3.90076         0.000074     -0.000077     -0.000084
      0.00000      0.00000      5.20988        -0.000000      0.000000      0.000044
      5.25717      0.01833      5.20988        -0.000000      0.000000      0.000044
      0.01833      5.25717      5.20988        -0.000000      0.000000      0.000044
      5.27550      5.27550      5.20988        -0.000000      0.000000      0.000044
      2.62858      0.00917      2.60667        -0.000000      0.000000      0.000044
      7.88575      0.02750      2.60667        -0.000000      0.000000      0.000044
      2.64691      5.26633      2.60667        -0.000000      0.000000      0.000044
      7.90408      5.28466      2.60667        -0.000000      0.000000      0.000044
      2.63775      2.63775      0.00346        -0.000000      0.000000      0.000044
      7.89492      2.65608      0.00346        -0.000000      0.000000      0.000044
      2.65608      7.89492      0.00346        -0.000000      0.000000      0.000044
      7.91325      7.91325      0.00346        -0.000000      0.000000      0.000044
      0.00917      2.62858      7.81309        -0.000000      0.000000      0.000044
      5.26633      2.64691      7.81309        -0.000000      0.000000      0.000044
      0.02750      7.88575      7.81309        -0.000000      0.000000      0.000044
      5.28466      7.90408      7.81309        -0.000000      0.000000      0.000044
      0.00000      0.00000      0.00465        -0.000000      0.000000      0.000125
      5.25717      0.01833      0.00465        -0.000000      0.000000      0.000125
      0.01833      5.25717      0.00465        -0.000000      0.000000      0.000125
      5.27550      5.27550      0.00465        -0.000000      0.000000      0.000125
      2.62858      0.00917      7.81429        -0.000000      0.000000      0.000125
      7.88575      0.02750      7.81429        -0.000000      0.000000      0.000125
      2.64691      5.26633      7.81429        -0.000000      0.000000      0.000125
      7.90408      5.28466      7.81429        -0.000000      0.000000      0.000125
      2.63775      2.63775      5.21108        -0.000000      0.000000      0.000125
      7.89492      2.65608      5.21108        -0.000000      0.000000      0.000125
      2.65608      7.89492      5.21108        -0.000000      0.000000      0.000125
      7.91325      7.91325      5.21108        -0.000000      0.000000      0.000125
      0.00917      2.62858      2.60787        -0.000000      0.000000      0.000125
      5.26633      2.64691      2.60787        -0.000000      0.000000      0.000125
      0.02750      7.88575      2.60787        -0.000000      0.000000      0.000125
      5.28466      7.90408      2.60787        -0.000000      0.000000      0.000125
 -----------------------------------------------------------------------------------
    total drift:                                0.000000      0.000000     -0.004573


--------------------------------------------------------------------------------------------------------



  FREE ENERGIE OF THE ION-ELECTRON SYSTEM (eV)
  ---------------------------------------------------
  free  energy   TOTEN  =      -328.11868808 eV

  energy  without entropy=     -328.11868808  energy(sigma->0) =     -328.11868808
 


--------------------------------------------------------------------------------------------------------


    POTLOK:  cpu time    0.1316: real time    0.1324


--------------------------------------------------------------------------------------------------------


 writing wavefunctions
     LOOP+:  cpu time 2083.8350: real time 2349.5488
    4ORBIT:  cpu time    0.0000: real time    0.0000
 


 total charge     
 
# of ion       s       p       d       tot
------------------------------------------
    1        1.313   2.410   0.000   3.724
    2        1.313   2.410   0.000   3.724
    3        1.313   2.410   0.000   3.724
    4        1.313   2.410   0.000   3.724
    5        1.313   2.410   0.000   3.724
    6        1.313   2.410   0.000   3.724
    7        1.313   2.410   0.000   3.724
    8        1.313   2.410   0.000   3.724
    9        1.313   2.410   0.000   3.724
   10        1.313   2.410   0.000   3.724
   11        1.313   2.410   0.000   3.724
   12        1.313   2.410   0.000   3.724
   13        1.313   2.410   0.000   3.724
   14        1.313   2.410   0.000   3.724
   15        1.313   2.410   0.000   3.724
   16        1.313   2.410   0.000   3.724
   17        1.313   2.410   0.000   3.724
   18        1.313   2.410   0.000   3.724
   19        1.313   2.410   0.000   3.724
   20        1.313   2.410   0.000   3.724
   21        1.313   2.410   0.000   3.724
   22        1.313   2.410   0.000   3.724
   23        1.313   2.410   0.000   3.724
   24        1.313   2.410   0.000   3.724
   25        1.313   2.410   0.000   3.724
   26        1.313   2.410   0.000   3.724
   27        1.313   2.410   0.000   3.724
   28        1.313   2.410   0.000   3.724
   29        1.313   2.410   0.000   3.724
   30        1.313   2.410   0.000   3.724
   31        1.313   2.410   0.000   3.724
   32        1.313   2.410   0.000   3.724
   33        0.260   6.202   8.917  15.378
   34        0.260   6.202   8.917  15.378
   35        0.260   6.202   8.917  15.378
   36        0.260   6.202   8.917  15.378
   37        0.260   6.202   8.917  15.378
   38        0.260   6.202   8.917  15.378
   39        0.260   6.202   8.917  15.378
   40        0.260   6.202   8.917  15.378
   41        0.260   6.202   8.917  15.378
   42        0.260   6.202   8.917  15.378
   43        0.260   6.202   8.917  15.378
   44        0.260   6.202   8.917  15.378
   45        0.260   6.202   8.917  15.378
   46        0.260   6.202   8.917  15.378
   47        0.260   6.202   8.917  15.378
   48        0.260   6.202   8.917  15.378
   49        0.350   6.351   5.820  12.521
   50        0.350   6.351   5.820  12.521
   51        0.350   6.351   5.820  12.521
   52        0.350   6.351   5.820  12.521
   53        0.350   6.351   5.820  12.521
   54        0.350   6.351   5.820  12.521
   55        0.350   6.351   5.820  12.521
   56        0.350   6.351   5.820  12.521
   57        0.350   6.351   5.820  12.521
   58        0.350   6.351   5.820  12.521
   59        0.350   6.351   5.820  12.521
   60        0.350   6.351   5.820  12.521
   61        0.350   6.351   5.820  12.521
   62        0.350   6.351   5.820  12.521
   63        0.350   6.351   5.820  12.521
   64        0.350   6.351   5.820  12.521
--------------------------------------------------
tot         51.789 277.979 235.779 565.546
 


 magnetization (x)
 
# of ion       s       p       d       tot
------------------------------------------
    1       -0.000  -0.002   0.000  -0.002
    2       -0.000  -0.002   0.000  -0.002
    3       -0.000  -0.002   0.000  -0.002
    4       -0.000  -0.002   0.000  -0.002
    5       -0.000  -0.002   0.000  -0.002
    6       -0.000  -0.002   0.000  -0.002
    7       -0.000  -0.002   0.000  -0.002
    8       -0.000  -0.002   0.000  -0.002
    9        0.000   0.002   0.000   0.002
   10        0.000   0.002   0.000   0.002
   11        0.000   0.002   0.000   0.002
   12        0.000   0.002   0.000   0.002
   13        0.000   0.002   0.000   0.002
   14        0.000   0.002   0.000   0.002
   15        0.000   0.002   0.000   0.002
   16        0.000   0.002   0.000   0.002
   17       -0.000  -0.002   0.000  -0.002
   18       -0.000  -0.002   0.000  -0.002
   19       -0.000  -0.002   0.000  -0.002
   20       -0.000  -0.002   0.000  -0.002
   21       -0.000  -0.002   0.000  -0.002
   22       -0.000  -0.002   0.000  -0.002
   23       -0.000  -0.002   0.000  -0.002
   24       -0.000  -0.002   0.000  -0.002
   25        0.000   0.002   0.000   0.002
   26        0.000   0.002   0.000   0.002
   27        0.000   0.002   0.000   0.002
   28        0.000   0.002   0.000   0.002
   29        0.000   0.002   0.000   0.002
   30        0.000   0.002   0.000   0.002
   31        0.000   0.002   0.000   0.002
   32        0.000   0.002   0.000   0.002
   33        0.000   0.000  -0.001   0.000
   34        0.000   0.000  -0.001   0.000
   35        0.000   0.000  -0.001   0.000
   36        0.000   0.000  -0.001   0.000
   37       -0.000  -0.000   0.001  -0.000
   38       -0.000  -0.000   0.001  -0.000
   39       -0.000  -0.000   0.001  -0.000
   40       -0.000  -0.000   0.001  -0.000
   41        0.000   0.000  -0.001   0.000
   42        0.000   0.000  -0.001   0.000
   43        0.000   0.000  -0.001   0.000
   44        0.000   0.000  -0.001   0.000
   45       -0.000  -0.000   0.001  -0.000
   46       -0.000  -0.000   0.001  -0.000
   47       -0.000  -0.000   0.001  -0.000
   48       -0.000  -0.000   0.001  -0.000
   49        0.020   0.054   3.671   3.744
   50        0.020   0.054   3.671   3.744
   51        0.020   0.054   3.671   3.744
   52        0.020   0.054   3.671   3.744
   53       -0.020  -0.054  -3.671  -3.744
   54       -0.020  -0.054  -3.671  -3.744
   55       -0.020  -0.054  -3.671  -3.744
   56       -0.020  -0.054  -3.671  -3.744
   57        0.020   0.054   3.671   3.744
   58        0.020   0.054   3.671   3.744
   59        0.020   0.054   3.671   3.744
   60        0.020   0.054   3.671   3.744
   61       -0.020  -0.054  -3.671  -3.744
   62       -0.020  -0.054  -3.671  -3.744
   63       -0.020  -0.054  -3.671  -3.744
   64       -0.020  -0.054  -3.671  -3.744
--------------------------------------------------
tot         -0.000   0.000  -0.000  -0.000
 
 BZINTS: Fermi energy:  4.839208;688.000000 electrons
         Band energy:***********;  BLOECHL correction:  0.000000

 total amount of memory used by VASP MPI-rank0   301249. kBytes
=======================================================================

   base      :      30000. kBytes
   nonl-proj :     175882. kBytes
   fftplans  :       4588. kBytes
   grid      :      69719. kBytes
   one-center:       1990. kBytes
   wavefun   :      19070. kBytes
 
  
  
 General timing and accounting informations for this job:
 ========================================================
  
                  Total CPU time used (sec):     2133.926
                            User time (sec):     2121.444
                          System time (sec):       12.481
                         Elapsed time (sec):     2401.683
  
                   Maximum memory used (kb):      658212.
                   Average memory used (kb):           0.
  
                          Minor page faults:       461278
                          Major page faults:         5637
                 Voluntary context switches:         7985
