 vasp.5.4.4.18Apr17-6-g9f103f2a35 (build Oct 30 2023 17:30:16) complex          
  
 executed on             LinuxIFC date 2024.06.21  00:25:35
 running on  256 total cores
 distrk:  each k-point on  256 cores,    1 groups
 distr:  one band on NCORES_PER_BAND=   1 cores,  256 groups


--------------------------------------------------------------------------------------------------------


 INCAR:
 POTCAR:    PAW_PBE S 06Sep2000                   
 POTCAR:     PAW_PBE Cu_pv 06Sep2000              
 POTCAR:     PAW_PBE Fe_pv 02Aug2007              

 ----------------------------------------------------------------------------- 
|                                                                             |
|           W    W    AA    RRRRR   N    N  II  N    N   GGGG   !!!           |
|           W    W   A  A   R    R  NN   N  II  NN   N  G    G  !!!           |
|           W    W  A    A  R    R  N N  N  II  N N  N  G       !!!           |
|           W WW W  AAAAAA  RRRRR   N  N N  II  N  N N  G  GGG   !            |
|           WW  WW  A    A  R   R   N   NN  II  N   NN  G    G                |
|           W    W  A    A  R    R  N    N  II  N    N   GGGG   !!!           |
|                                                                             |
|      For optimal performance we recommend to set                            |
|        NCORE= 4 - approx SQRT( number of cores)                             |
|      NCORE specifies how many cores store one orbital (NPAR=cpu/NCORE).     |
|      This setting can  greatly improve the performance of VASP for DFT.     |
|      The default,   NCORE=1            might be grossly inefficient         |
|      on modern multi-core architectures or massively parallel machines.     |
|      Do your own testing !!!!                                               |
|      Unfortunately you need to use the default for GW and RPA calculations. |
|      (for HF NCORE is supported but not extensively tested yet)             |
|                                                                             |
 ----------------------------------------------------------------------------- 

 POTCAR:    PAW_PBE S 06Sep2000                   
   SHA256 =  0fc7481fb0695f01bdc6462160264c5c84044ae9ec85a907d398b887a2bc3132 S/
   COPYR  = (c) Copyright 06Sep2000 Georg Kresse                                
   COPYR  = This file is part of the software VASP. Any use, copying, and all ot
   COPYR  = If you do not have a valid VASP license, you may not use, copy or di
   VRHFIN =S : s2p4                                                             
   LEXCH  = PE                                                                  
   EATOM  =   276.8230 eV,   20.3459 Ry                                         
                                                                                
   TITEL  = PAW_PBE S 06Sep2000                                                 
   LULTRA =        F    use ultrasoft PP ?                                      
   IUNSCR =        1    unscreen: 0-lin 1-nonlin 2-no                           
   RPACOR =    1.500    partial core radius                                     
   POMASS =   32.066; ZVAL   =    6.000    mass and valenz                      
   RCORE  =    1.900    outmost cutoff radius                                   
   RWIGS  =    2.200; RWIGS  =    1.164    wigner-seitz radius (au A)           
   ENMAX  =  258.689; ENMIN  =  194.016 eV                                      
   ICORE  =        2    local potential                                         
   LCOR   =        T    correct aug charges                                     
   LPAW   =        T    paw PP                                                  
   EAUG   =  335.092                                                            
   DEXC   =    0.000                                                            
   RMAX   =    1.942    core radius for proj-oper                               
   RAUG   =    1.300    factor for augmentation sphere                          
   RDEP   =    1.954    radius for radial grids                                 
   RDEPT  =    1.744    core radius for aug-charge                              
                                                                                
   Atomic configuration                                                         
    6 entries                                                                   
     n  l   j            E        occ.                                          
     1  0  0.50     -2405.8406   2.0000                                         
     2  0  0.50      -211.7007   2.0000                                         
     2  1  1.50      -156.4958   6.0000                                         
     3  0  0.50       -17.2562   2.0000                                         
     3  1  0.50        -7.0085   4.0000                                         
     3  2  1.50        -6.8029   0.0000                                         
   Description                                                                  
     l       E           TYP  RCUT    TYP  RCUT                                 
     0    -17.2561641     23  1.900                                             
     0    -15.8743224     23  1.900                                             
     1     -7.0085400     23  1.900                                             
     1     -2.7779785     23  1.900                                             
     2     -6.8029130     23  1.900                                             
  local pseudopotential read in
  partial core-charges read in
  partial kinetic energy density read in
  atomic valenz-charges read in
  non local Contribution for L=           0  read in
    real space projection operators read in
  non local Contribution for L=           0  read in
    real space projection operators read in
  non local Contribution for L=           1  read in
    real space projection operators read in
  non local Contribution for L=           1  read in
    real space projection operators read in
    PAW grid and wavefunctions read in
 
   number of l-projection  operators is LMAX  =           4
   number of lm-projection operators is LMMAX =           8
 
 POTCAR:     PAW_PBE Cu_pv 06Sep2000              
   SHA256 =  cb7b504e2ea725fe1f25c85a9ac77d4012ce94cd394135b722c4e25ec297f1cb Cu
   COPYR  = (c) Copyright 06Sep2000 Georg Kresse                                
   COPYR  = This file is part of the software VASP. Any use, copying, and all ot
   COPYR  = If you do not have a valid VASP license, you may not use, copy or di
   VRHFIN =Cu: d10 p1                                                           
   LEXCH  = PE                                                                  
   EATOM  =  4120.1201 eV,  302.8203 Ry                                         
                                                                                
   TITEL  = PAW_PBE Cu_pv 06Sep2000                                             
   LULTRA =        F    use ultrasoft PP ?                                      
   IUNSCR =        1    unscreen: 0-lin 1-nonlin 2-no                           
   RPACOR =    1.500    partial core radius                                     
   POMASS =   63.546; ZVAL   =   17.000    mass and valenz                      
   RCORE  =    2.000    outmost cutoff radius                                   
   RWIGS  =    2.000; RWIGS  =    1.058    wigner-seitz radius (au A)           
   ENMAX  =  368.648; ENMIN  =  276.486 eV                                      
   RCLOC  =    1.304    cutoff for local pot                                    
   LCOR   =        T    correct aug charges                                     
   LPAW   =        T    paw PP                                                  
   EAUG   =  758.233                                                            
   DEXC   =    0.000                                                            
   RMAX   =    2.046    core radius for proj-oper                               
   RAUG   =    1.300    factor for augmentation sphere                          
   RDEP   =    2.025    radius for radial grids                                 
   RDEPT  =    1.558    core radius for aug-charge                              
                                                                                
   Atomic configuration                                                         
    8 entries                                                                   
     n  l   j            E        occ.                                          
     1  0  0.50     -8850.2467   2.0000                                         
     2  0  0.50     -1062.3498   2.0000                                         
     2  1  1.50      -916.8226   6.0000                                         
     3  0  0.50      -114.6929   2.0000                                         
     3  1  1.50       -72.1325   6.0000                                         
     3  2  2.50        -5.0394  10.0000                                         
     4  0  0.50        -4.6097   1.0000                                         
     4  3  2.50        -1.3606   0.0000                                         
   Description                                                                  
     l       E           TYP  RCUT    TYP  RCUT                                 
     1    -72.1324777     23  1.700                                             
     1     -1.3605826     23  1.700                                             
     2     -5.0393776     23  2.000                                             
     2     -6.3999602     23  2.000                                             
     0     -4.6097062     23  1.800                                             
     0     14.1620818     23  1.800                                             
  local pseudopotential read in
  partial core-charges read in
  partial kinetic energy density read in
  atomic valenz-charges read in
  non local Contribution for L=           1  read in
    real space projection operators read in
  non local Contribution for L=           1  read in
    real space projection operators read in
  non local Contribution for L=           2  read in
    real space projection operators read in
  non local Contribution for L=           2  read in
    real space projection operators read in
  non local Contribution for L=           0  read in
    real space projection operators read in
  non local Contribution for L=           0  read in
    real space projection operators read in
    PAW grid and wavefunctions read in
 
   number of l-projection  operators is LMAX  =           6
   number of lm-projection operators is LMMAX =          18
 
 POTCAR:     PAW_PBE Fe_pv 02Aug2007              
   SHA256 =  5d22e414b1f82158bf2c7ecb8b97b28fd0923e48cadc1c3bf74d524558f5dd32 Fe
   COPYR  = (c) Copyright 02Aug2007 Georg Kresse                                
   COPYR  = This file is part of the software VASP. Any use, copying, and all ot
   COPYR  = If you do not have a valid VASP license, you may not use, copy or di
   VRHFIN =Fe:  3pd7s1                                                          
   LEXCH  = PE                                                                  
   EATOM  =  2457.4239 eV,  180.6156 Ry                                         
                                                                                
   TITEL  = PAW_PBE Fe_pv 02Aug2007                                             
   LULTRA =        F    use ultrasoft PP ?                                      
   IUNSCR =        1    unscreen: 0-lin 1-nonlin 2-no                           
   RPACOR =    1.750    partial core radius                                     
   POMASS =   55.847; ZVAL   =   14.000    mass and valenz                      
   RCORE  =    2.200    outmost cutoff radius                                   
   RWIGS  =    2.200; RWIGS  =    1.164    wigner-seitz radius (au A)           
   ENMAX  =  293.238; ENMIN  =  219.928 eV                                      
   ICORE  =        3    local potential                                         
   LCOR   =        T    correct aug charges                                     
   LPAW   =        T    paw PP                                                  
   EAUG   =  578.342                                                            
   DEXC   =    0.000                                                            
   RMAX   =    2.249    core radius for proj-oper                               
   RAUG   =    1.300    factor for augmentation sphere                          
   RDEP   =    2.296    radius for radial grids                                 
   RDEPT  =    1.766    core radius for aug-charge                              
                                                                                
   Atomic configuration                                                         
    8 entries                                                                   
     n  l   j            E        occ.                                          
     1  0  0.50     -6993.8440   2.0000                                         
     2  0  0.50      -814.6047   2.0000                                         
     2  1  1.50      -693.3689   6.0000                                         
     3  0  0.50       -89.4732   2.0000                                         
     3  1  1.50       -55.6373   6.0000                                         
     3  2  2.50        -3.8151   7.0000                                         
     4  0  0.50        -4.2551   1.0000                                         
     4  3  2.50        -1.3606   0.0000                                         
   Description                                                                  
     l       E           TYP  RCUT    TYP  RCUT                                 
     1    -55.6372668     23  2.000                                             
     1     -5.4423304     23  2.000                                             
     2     -3.8151096     23  2.200                                             
     2     -5.1756922     23  2.200                                             
     0     -4.2550951     23  2.200                                             
     0     27.2116520     23  2.200                                             
     3     -1.3605826     23  2.200                                             
  local pseudopotential read in
  partial core-charges read in
  partial kinetic energy density read in
  atomic valenz-charges read in
  non local Contribution for L=           1  read in
    real space projection operators read in
  non local Contribution for L=           1  read in
    real space projection operators read in
  non local Contribution for L=           2  read in
    real space projection operators read in
  non local Contribution for L=           2  read in
    real space projection operators read in
  non local Contribution for L=           0  read in
    real space projection operators read in
  non local Contribution for L=           0  read in
    real space projection operators read in
    PAW grid and wavefunctions read in
 
   number of l-projection  operators is LMAX  =           6
   number of lm-projection operators is LMMAX =          18
 

 ----------------------------------------------------------------------------- 
|                                                                             |
|  ADVICE TO THIS USER RUNNING 'VASP/VAMP'   (HEAR YOUR MASTER'S VOICE ...):  |
|                                                                             |
|      You have a (more or less) 'large supercell' and for larger cells       |
|      it might be more efficient to use real space projection opertators     |
|      So try LREAL= Auto  in the INCAR   file.                               |
|      Mind:          For very  accurate calculation you might also keep the  |
|      reciprocal projection scheme          (i.e. LREAL=.FALSE.)             |
|                                                                             |
 ----------------------------------------------------------------------------- 


 ----------------------------------------------------------------------------- 
|                                                                             |
|  ADVICE TO THIS USER RUNNING 'VASP/VAMP'   (HEAR YOUR MASTER'S VOICE ...):  |
|                                                                             |
|      You enforced a specific xc-type in the INCAR file,                     |
|      a different type was found on the POTCAR file                          |
|          I HOPE YOU KNOW, WHAT YOU ARE  DOING                               |
|                                                                             |
 ----------------------------------------------------------------------------- 

  PAW_PBE S 06Sep2000                   :
 energy of atom  1       EATOM= -276.8230
 kinetic energy error for atom=    0.0007 (will be added to EATOM!!)
   PAW_PBE Cu_pv 06Sep2000              :
 energy of atom  2       EATOM=-4120.1201
 kinetic energy error for atom=    0.0094 (will be added to EATOM!!)
   PAW_PBE Fe_pv 02Aug2007              :
 energy of atom  3       EATOM=-2457.4239
 kinetic energy error for atom=    0.0025 (will be added to EATOM!!)
 
 
 POSCAR: Fe16 Cu16 S32                           
  positions in direct lattice
  velocities in cartesian coordinates
 exchange correlation table for  LEXCH =       14
   RHO(1)=    0.500       N(1)  =     2000
   RHO(2)=  100.500       N(2)  =     4000
 


--------------------------------------------------------------------------------------------------------


 ion  position               nearest neighbor table
   1  0.126  0.126  0.119-  37 2.26  61 2.27  41 2.28  49 2.29
   2  0.626  0.126  0.119-  38 2.26  62 2.27  42 2.28  50 2.29
   3  0.126  0.626  0.119-  39 2.26  63 2.27  43 2.28  51 2.29
   4  0.626  0.626  0.119-  40 2.26  64 2.27  44 2.28  52 2.29
   5  0.374  0.374  0.119-  39 2.26  62 2.27  41 2.28  52 2.29
   6  0.874  0.374  0.119-  40 2.26  61 2.27  42 2.28  51 2.29
   7  0.374  0.874  0.119-  37 2.26  64 2.27  43 2.28  50 2.29
   8  0.874  0.874  0.119-  38 2.26  63 2.27  44 2.28  49 2.29
   9  0.124  0.374  0.869-  41 2.26  51 2.27  45 2.28  55 2.29
  10  0.624  0.374  0.869-  42 2.26  52 2.27  46 2.28  56 2.29
  11  0.124  0.874  0.869-  43 2.26  49 2.27  47 2.28  53 2.29
  12  0.624  0.874  0.869-  44 2.26  50 2.27  48 2.28  54 2.29
  13  0.376  0.126  0.869-  41 2.26  50 2.27  46 2.28  53 2.29
  14  0.876  0.126  0.869-  42 2.26  49 2.27  45 2.28  54 2.29
  15  0.376  0.626  0.869-  43 2.26  52 2.27  48 2.28  55 2.29
  16  0.876  0.626  0.869-  44 2.26  51 2.27  47 2.28  56 2.29
  17  0.124  0.124  0.619-  45 2.26  53 2.27  33 2.28  57 2.29
  18  0.624  0.124  0.619-  46 2.26  54 2.27  34 2.28  58 2.29
  19  0.124  0.624  0.619-  47 2.26  55 2.27  35 2.28  59 2.29
  20  0.624  0.624  0.619-  48 2.26  56 2.27  36 2.28  60 2.29
  21  0.376  0.376  0.619-  46 2.26  55 2.27  36 2.28  57 2.29
  22  0.876  0.376  0.619-  45 2.26  56 2.27  35 2.28  58 2.29
  23  0.376  0.876  0.619-  48 2.26  53 2.27  34 2.28  59 2.29
  24  0.876  0.876  0.619-  47 2.26  54 2.27  33 2.28  60 2.29
  25  0.374  0.124  0.369-  34 2.26  57 2.27  37 2.28  62 2.29
  26  0.874  0.124  0.369-  33 2.26  58 2.27  38 2.28  61 2.29
  27  0.374  0.624  0.369-  36 2.26  59 2.27  39 2.28  64 2.29
  28  0.874  0.624  0.369-  35 2.26  60 2.27  40 2.28  63 2.29
  29  0.126  0.376  0.369-  35 2.26  57 2.27  39 2.28  61 2.29
  30  0.626  0.376  0.369-  36 2.26  58 2.27  40 2.28  62 2.29
  31  0.126  0.876  0.369-  33 2.26  59 2.27  37 2.28  63 2.29
  32  0.626  0.876  0.369-  34 2.26  60 2.27  38 2.28  64 2.29
  33  0.000  0.000  0.505-  26 2.26  31 2.26  17 2.28  24 2.28
  34  0.500  0.000  0.505-  25 2.26  32 2.26  18 2.28  23 2.28
  35  0.000  0.500  0.505-  28 2.26  29 2.26  19 2.28  22 2.28
  36  0.500  0.500  0.505-  27 2.26  30 2.26  20 2.28  21 2.28
  37  0.250  0.000  0.255-   1 2.26   7 2.26  25 2.28  31 2.28
  38  0.750  0.000  0.255-   2 2.26   8 2.26  26 2.28  32 2.28
  39  0.250  0.500  0.255-   3 2.26   5 2.26  27 2.28  29 2.28
  40  0.750  0.500  0.255-   4 2.26   6 2.26  28 2.28  30 2.28
  41  0.250  0.250  0.005-  13 2.26   9 2.26   1 2.28   5 2.28
  42  0.750  0.250  0.005-  14 2.26  10 2.26   2 2.28   6 2.28
  43  0.250  0.750  0.005-  11 2.26  15 2.26   3 2.28   7 2.28
  44  0.750  0.750  0.005-  12 2.26  16 2.26   4 2.28   8 2.28
  45  0.000  0.250  0.755-  17 2.26  22 2.26  14 2.28   9 2.28
  46  0.500  0.250  0.755-  18 2.26  21 2.26  13 2.28  10 2.28
  47  0.000  0.750  0.755-  19 2.26  24 2.26  11 2.28  16 2.28
  48  0.500  0.750  0.755-  20 2.26  23 2.26  12 2.28  15 2.28
  49  0.000  0.000  0.007-  11 2.27  14 2.27   8 2.29   1 2.29
  50  0.500  0.000  0.007-  12 2.27  13 2.27   2 2.29   7 2.29
  51  0.000  0.500  0.007-   9 2.27  16 2.27   6 2.29   3 2.29
  52  0.500  0.500  0.007-  10 2.27  15 2.27   4 2.29   5 2.29
  53  0.250  0.000  0.757-  23 2.27  17 2.27  11 2.29  13 2.29
  54  0.750  0.000  0.757-  18 2.27  24 2.27  12 2.29  14 2.29
  55  0.250  0.500  0.757-  21 2.27  19 2.27   9 2.29  15 2.29
  56  0.750  0.500  0.757-  20 2.27  22 2.27  10 2.29  16 2.29
  57  0.250  0.250  0.507-  29 2.27  25 2.27  21 2.29  17 2.29
  58  0.750  0.250  0.507-  30 2.27  26 2.27  18 2.29  22 2.29
  59  0.250  0.750  0.507-  27 2.27  31 2.27  23 2.29  19 2.29
  60  0.750  0.750  0.507-  28 2.27  32 2.27  20 2.29  24 2.29
  61  0.000  0.250  0.257-   6 2.27   1 2.27  29 2.29  26 2.29
  62  0.500  0.250  0.257-   2 2.27   5 2.27  30 2.29  25 2.29
  63  0.000  0.750  0.257-   8 2.27   3 2.27  28 2.29  31 2.29
  64  0.500  0.750  0.257-   4 2.27   7 2.27  27 2.29  32 2.29
 
  LATTYP: Found a base centered orthorhombic cell.
 ALAT       =    14.0601267935
 B/A-ratio  =     1.1106242992
 C/A-ratio  =     0.7423939355
  
  Lattice vectors:
  
 A1 = (  10.4919250000,   0.5499140000,   0.0000000000)
 A2 = (  -0.5499140000, -10.4919250000,   0.0000000000)
 A3 = (   0.0000000000,   0.0000000000, -10.4381528640)


Analysis of symmetry for initial positions (statically):
=====================================================================
 Subroutine PRICEL returns following result:
 
  LATTYP: Found a face centered orthorhombic cell.
 ALAT       =     7.0300633967
 B/A-ratio  =     1.1106242992
 C/A-ratio  =     1.4847878710
  
  Lattice vectors:
  
 A1 = (  -2.7604597500,  -2.7604597500,   5.2190764320)
 A2 = (  -2.4855027500,   2.4855027500,   5.2190764320)
 A3 = (  -5.2459625000,  -0.2749570000,   0.0000000000)
 
   8 primitive cells build up your supercell.
 

 Routine SETGRP: Setting up the symmetry group for a 
 base centered orthorhombic supercell.


 Subroutine GETGRP returns: Found  4 space group operations
 (whereof  2 operations were pure point group operations)
 out of a pool of  8 trial point group operations.


The static configuration has the point symmetry C_2 .
 The point group associated with its full space group is C_2v.


Analysis of symmetry for dynamics (positions and initial velocities):
=====================================================================
 Subroutine PRICEL returns following result:
 
  LATTYP: Found a face centered orthorhombic cell.
 ALAT       =     7.0300633967
 B/A-ratio  =     1.1106242992
 C/A-ratio  =     1.4847878710
  
  Lattice vectors:
  
 A1 = (  -2.7604597500,  -2.7604597500,   5.2190764320)
 A2 = (  -2.4855027500,   2.4855027500,   5.2190764320)
 A3 = (  -5.2459625000,  -0.2749570000,   0.0000000000)
 
   8 primitive cells build up your supercell.
 

 Routine SETGRP: Setting up the symmetry group for a 
 base centered orthorhombic supercell.


 Subroutine GETGRP returns: Found  4 space group operations
 (whereof  2 operations were pure point group operations)
 out of a pool of  8 trial point group operations.


The dynamic configuration has the point symmetry C_2 .
 The point group associated with its full space group is C_2v.


Analysis of structural, dynamic, and magnetic symmetry:
=====================================================================
 Subroutine PRICEL returns following result:
 
  LATTYP: Found a face centered orthorhombic cell.
 ALAT       =     7.0300633967
 B/A-ratio  =     1.1106242992
 C/A-ratio  =     1.4847878710
  
  Lattice vectors:
  
 A1 = (  -2.7604597500,  -2.7604597500,   5.2190764320)
 A2 = (  -2.4855027500,   2.4855027500,   5.2190764320)
 A3 = (  -5.2459625000,  -0.2749570000,   0.0000000000)
 
   8 primitive cells build up your supercell.
 

 Routine SETGRP: Setting up the symmetry group for a 
 base centered orthorhombic supercell.


 Subroutine GETGRP returns: Found  4 space group operations
 (whereof  2 operations were pure point group operations)
 out of a pool of  8 trial point group operations.


The magnetic configuration has the point symmetry C_2 .
 The point group associated with its full space group is C_2v.


 Subroutine INISYM returns: Found  4 space group operations
 (whereof  2 operations are pure point group operations),
 and found     8 'primitive' translations

 
 
 KPOINTS: Automatic mesh                          

Automatic generation of k-mesh.
Space group operators:
 irot       det(A)        alpha          n_x          n_y          n_z        tau_x        tau_y        tau_z
    1     1.000000     0.000001     1.000000     0.000000     0.000000     0.000000     0.000000     0.000000
    2     1.000000   179.999999     0.000000     0.000000     1.000000     0.000000     0.000000     0.000000
    3    -1.000000   180.000000     0.707107     0.707107     0.000000    -0.750000     0.000000     0.750000
    4    -1.000000   180.000000     0.707107    -0.707107     0.000000    -0.750000     0.000000     0.750000
 
 Subroutine IBZKPT returns following result:
 ===========================================
 
 Found     21 irreducible k-points:
 
 Following reciprocal coordinates:
            Coordinates               Weight
  0.000000  0.000000  0.000000      1.000000
  0.250000 -0.000000  0.000000      4.000000
  0.500000 -0.000000  0.000000      2.000000
  0.250000  0.250000  0.000000      2.000000
  0.500000  0.250000  0.000000      4.000000
 -0.250000  0.250000  0.000000      2.000000
  0.500000  0.500000  0.000000      1.000000
  0.000000  0.000000  0.250000      2.000000
  0.250000 -0.000000  0.250000      8.000000
  0.500000 -0.000000  0.250000      4.000000
  0.250000  0.250000  0.250000      4.000000
  0.500000  0.250000  0.250000      8.000000
 -0.250000  0.250000  0.250000      4.000000
  0.500000  0.500000  0.250000      2.000000
  0.000000  0.000000  0.500000      1.000000
  0.250000 -0.000000  0.500000      4.000000
  0.500000 -0.000000  0.500000      2.000000
  0.250000  0.250000  0.500000      2.000000
  0.500000  0.250000  0.500000      4.000000
 -0.250000  0.250000  0.500000      2.000000
  0.500000  0.500000  0.500000      1.000000
 
 Following cartesian coordinates:
            Coordinates               Weight
  0.000000  0.000000  0.000000      1.000000
  0.023893 -0.001252  0.000000      4.000000
  0.047787 -0.002505  0.000000      2.000000
  0.022641  0.022641  0.000000      2.000000
  0.046535  0.021389  0.000000      4.000000
 -0.025146  0.025146  0.000000      2.000000
  0.045282  0.045282  0.000000      1.000000
  0.000000  0.000000  0.023951      2.000000
  0.023893 -0.001252  0.023951      8.000000
  0.047787 -0.002505  0.023951      4.000000
  0.022641  0.022641  0.023951      4.000000
  0.046535  0.021389  0.023951      8.000000
 -0.025146  0.025146  0.023951      4.000000
  0.045282  0.045282  0.023951      2.000000
  0.000000  0.000000  0.047901      1.000000
  0.023893 -0.001252  0.047901      4.000000
  0.047787 -0.002505  0.047901      2.000000
  0.022641  0.022641  0.047901      2.000000
  0.046535  0.021389  0.047901      4.000000
 -0.025146  0.025146  0.047901      2.000000
  0.045282  0.045282  0.047901      1.000000
 
 TETIRR: Found     96 inequivalent tetrahedra from      384
 
 Subroutine IBZKPT_HF returns following result:
 ==============================================
 
 Found     64 k-points in 1st BZ
 the following     64 k-points will be used (e.g. in the exchange kernel)
 Following reciprocal coordinates:   # in IRBZ
  0.000000  0.000000  0.000000    0.01562500   1 t-inv F
  0.250000 -0.000000  0.000000    0.01562500   2 t-inv F
  0.500000 -0.000000  0.000000    0.01562500   3 t-inv F
  0.250000  0.250000  0.000000    0.01562500   4 t-inv F
  0.500000  0.250000  0.000000    0.01562500   5 t-inv F
 -0.250000  0.250000  0.000000    0.01562500   6 t-inv F
  0.500000  0.500000  0.000000    0.01562500   7 t-inv F
  0.000000  0.000000  0.250000    0.01562500   8 t-inv F
  0.250000 -0.000000  0.250000    0.01562500   9 t-inv F
  0.500000 -0.000000  0.250000    0.01562500  10 t-inv F
  0.250000  0.250000  0.250000    0.01562500  11 t-inv F
  0.500000  0.250000  0.250000    0.01562500  12 t-inv F
 -0.250000  0.250000  0.250000    0.01562500  13 t-inv F
  0.500000  0.500000  0.250000    0.01562500  14 t-inv F
  0.000000  0.000000  0.500000    0.01562500  15 t-inv F
  0.250000 -0.000000  0.500000    0.01562500  16 t-inv F
  0.500000 -0.000000  0.500000    0.01562500  17 t-inv F
  0.250000  0.250000  0.500000    0.01562500  18 t-inv F
  0.500000  0.250000  0.500000    0.01562500  19 t-inv F
 -0.250000  0.250000  0.500000    0.01562500  20 t-inv F
  0.500000  0.500000  0.500000    0.01562500  21 t-inv F
 -0.250000  0.000000  0.000000    0.01562500   2 t-inv F
  0.000000 -0.250000  0.000000    0.01562500   2 t-inv F spinflp
 -0.000000  0.250000  0.000000    0.01562500   2 t-inv F spinflp
  0.000000 -0.500000  0.000000    0.01562500   3 t-inv F spinflp
 -0.250000 -0.250000  0.000000    0.01562500   4 t-inv F
 -0.500000 -0.250000  0.000000    0.01562500   5 t-inv F
 -0.250000 -0.500000  0.000000    0.01562500   5 t-inv F spinflp
  0.250000  0.500000  0.000000    0.01562500   5 t-inv F spinflp
  0.250000 -0.250000  0.000000    0.01562500   6 t-inv F
 -0.250000  0.000000  0.250000    0.01562500   9 t-inv F
  0.000000 -0.250000  0.250000    0.01562500   9 t-inv F spinflp
 -0.000000  0.250000  0.250000    0.01562500   9 t-inv F spinflp
  0.000000 -0.500000  0.250000    0.01562500  10 t-inv F spinflp
 -0.250000 -0.250000  0.250000    0.01562500  11 t-inv F
 -0.500000 -0.250000  0.250000    0.01562500  12 t-inv F
 -0.250000 -0.500000  0.250000    0.01562500  12 t-inv F spinflp
  0.250000  0.500000  0.250000    0.01562500  12 t-inv F spinflp
  0.250000 -0.250000  0.250000    0.01562500  13 t-inv F
 -0.250000  0.000000  0.500000    0.01562500  16 t-inv F
  0.000000 -0.250000  0.500000    0.01562500  16 t-inv F spinflp
 -0.000000  0.250000  0.500000    0.01562500  16 t-inv F spinflp
  0.000000 -0.500000  0.500000    0.01562500  17 t-inv F spinflp
 -0.250000 -0.250000  0.500000    0.01562500  18 t-inv F
 -0.500000 -0.250000  0.500000    0.01562500  19 t-inv F
 -0.250000 -0.500000  0.500000    0.01562500  19 t-inv F spinflp
  0.250000  0.500000  0.500000    0.01562500  19 t-inv F spinflp
  0.250000 -0.250000  0.500000    0.01562500  20 t-inv F
  0.000000  0.000000 -0.250000    0.01562500   8 t-inv T
 -0.250000  0.000000 -0.250000    0.01562500   9 t-inv T
  0.250000 -0.000000 -0.250000    0.01562500   9 t-inv T
 -0.000000  0.250000 -0.250000    0.01562500   9 t-inv T spinflp
  0.000000 -0.250000 -0.250000    0.01562500   9 t-inv T spinflp
 -0.500000  0.000000 -0.250000    0.01562500  10 t-inv T
 -0.000000  0.500000 -0.250000    0.01562500  10 t-inv T spinflp
 -0.250000 -0.250000 -0.250000    0.01562500  11 t-inv T
  0.250000  0.250000 -0.250000    0.01562500  11 t-inv T
 -0.500000 -0.250000 -0.250000    0.01562500  12 t-inv T
  0.500000  0.250000 -0.250000    0.01562500  12 t-inv T
  0.250000  0.500000 -0.250000    0.01562500  12 t-inv T spinflp
 -0.250000 -0.500000 -0.250000    0.01562500  12 t-inv T spinflp
  0.250000 -0.250000 -0.250000    0.01562500  13 t-inv T
 -0.250000  0.250000 -0.250000    0.01562500  13 t-inv T
 -0.500000 -0.500000 -0.250000    0.01562500  14 t-inv T


--------------------------------------------------------------------------------------------------------




 Dimension of arrays:
   k-points           NKPTS =     21   k-points in BZ     NKDIM =     21   number of bands    NBANDS=    512
   number of dos      NEDOS =    301   number of ions     NIONS =     64
   non local maximal  LDIM  =      6   non local SUM 2l+1 LMDIM =     18
   total plane-waves  NPLWV = 829440
   max r-space proj   IRMAX =      1   max aug-charges    IRDMAX=  23002
   dimension x,y,z NGX =    96 NGY =   96 NGZ =   90
   dimension x,y,z NGXF=   192 NGYF=  192 NGZF=  180
   support grid    NGXF=   192 NGYF=  192 NGZF=  180
   ions per type =              32  16  16
   NGX,Y,Z   is equivalent  to a cutoff of  15.19, 15.19, 14.33 a.u.
   NGXF,Y,Z  is equivalent  to a cutoff of  30.38, 30.38, 28.67 a.u.

 SYSTEM =  CuFeS2                                  
 POSCAR =  Fe16 Cu16 S32                           

 Startparameter for this run:
   NWRITE =      2    write-flag & timer
   PREC   = accura    normal or accurate (medium, high low for compatibility)
   ISTART =      1    job   : 0-new  1-cont  2-samecut
   ICHARG =      1    charge: 1-file 2-atom 10-const
   ISPIN  =      2    spin polarized calculation?
   LNONCOLLINEAR =      F non collinear calculations
   LSORBIT =      F    spin-orbit coupling
   INIWAV =      1    electr: 0-lowe 1-rand  2-diag
   LASPH  =      F    aspherical Exc in radial PAW
   METAGGA=      F    non-selfconsistent MetaGGA calc.

 Electronic Relaxation 1
   ENCUT  =  700.0 eV  51.45 Ry    7.17 a.u.  22.67 22.67 22.52*2*pi/ulx,y,z
   ENINI  =  700.0     initial cutoff
   ENAUG  =  758.2 eV  augmentation charge cutoff
   NELM   =    500;   NELMIN=  2; NELMDL=  0     # of ELM steps 
   EDIFF  = 0.1E-07   stopping-criterion for ELM
   LREAL  =      F    real-space projection
   NLSPLINE    = F    spline interpolate recip. space projectors
   LCOMPAT=      F    compatible to vasp.4.4
   GGA_COMPAT  = T    GGA compatible to vasp.4.4-vasp.4.6
   LMAXPAW     = -100 max onsite density
   LMAXMIX     =    4 max onsite mixed and CHGCAR
   VOSKOWN=      0    Vosko Wilk Nusair interpolation
   ROPT   =    0.00000   0.00000   0.00000
 Ionic relaxation
   EDIFFG = -.1E-04   stopping-criterion for IOM
   NSW    =      0    number of steps for IOM
   NBLOCK =      1;   KBLOCK =      1    inner block; outer block 
   IBRION =     -1    ionic relax: 0-MD 1-quasi-New 2-CG
   NFREE  =      0    steps in history (QN), initial steepest desc. (CG)
   ISIF   =      2    stress and relaxation
   IWAVPR =     10    prediction:  0-non 1-charg 2-wave 3-comb
   ISYM   =      2    0-nonsym 1-usesym 2-fastsym
   LCORR  =      T    Harris-Foulkes like correction to forces

   POTIM  = 0.5000    time-step for ionic-motion
   TEIN   =    0.0    initial temperature
   TEBEG  =    0.0;   TEEND  =   0.0 temperature during run
   SMASS  =  -3.00    Nose mass-parameter (am)
   estimated Nose-frequenzy (Omega)   =  0.10E-29 period in steps =****** mass=  -0.252E-26a.u.
   SCALEE = 1.0000    scale energy and forces
   NPACO  =    256;   APACO  = 16.0  distance and # of slots for P.C.
   PSTRESS=    0.0 pullay stress

  Mass of Ions in am
   POMASS =  32.07 63.55 55.85
  Ionic Valenz
   ZVAL   =   6.00 17.00 14.00
  Atomic Wigner-Seitz radii
   RWIGS  =  -1.00 -1.00 -1.00
  virtual crystal weights 
   VCA    =   1.00  1.00  1.00
   NELECT =     688.0000    total number of electrons
   NUPDOWN=      -1.0000    fix difference up-down

 DOS related values:
   EMIN   =  10.00;   EMAX   =-10.00  energy-range for DOS
   EFERMI =   0.00
   ISMEAR =    -5;   SIGMA  =   0.03  broadening in eV -4-tet -1-fermi 0-gaus

 Electronic relaxation 2 (details)
   IALGO  =     38    algorithm
   LDIAG  =      T    sub-space diagonalisation (order eigenvalues)
   LSUBROT=      F    optimize rotation matrix (better conditioning)
   TURBO    =      0    0=normal 1=particle mesh
   IRESTART =      0    0=no restart 2=restart with 2 vectors
   NREBOOT  =      0    no. of reboots
   NMIN     =      0    reboot dimension
   EREF     =   0.00    reference energy to select bands
   IMIX   =      4    mixing-type and parameters
     AMIX     =   0.40;   BMIX     =  1.00
     AMIX_MAG =   1.60;   BMIX_MAG =  1.00
     AMIN     =   0.10
     WC   =   100.;   INIMIX=   1;  MIXPRE=   1;  MAXMIX= -45

 Intra band minimization:
   WEIMIN = 0.0000     energy-eigenvalue tresh-hold
   EBREAK =  0.49E-11  absolut break condition
   DEPER  =   0.30     relativ break condition  

   TIME   =   0.40     timestep for ELM

  volume/ion in A,a.u.               =      17.90       120.82
  Fermi-wavevector in a.u.,A,eV,Ry     =   1.381098  2.609897 25.952189  1.907432
  Thomas-Fermi vector in A             =   2.505914
 
 Write flags
   LWAVE        =      T    write WAVECAR
   LDOWNSAMPLE  =      F    k-point downsampling of WAVECAR
   LCHARG       =      T    write CHGCAR
   LVTOT        =      F    write LOCPOT, total local potential
   LVHAR        =      F    write LOCPOT, Hartree potential only
   LELF         =      F    write electronic localiz. function (ELF)
   LORBIT       =     11    0 simple, 1 ext, 2 COOP (PROOUT), +10 PAW based schemes


 Dipole corrections
   LMONO  =      F    monopole corrections only (constant potential shift)
   LDIPOL =      F    correct potential (dipole corrections)
   IDIPOL =      0    1-x, 2-y, 3-z, 4-all directions 
   EPSILON=  1.0000000 bulk dielectric constant

 LDA+U is selected, type is set to LDAUTYPE =  2
   angular momentum for each species LDAUL =     2    2    2
   U (eV)           for each species LDAUU =   0.0  0.1  4.7
   J (eV)           for each species LDAUJ =   0.0  0.0  0.0
 Exchange correlation treatment:
   GGA     =    PS    GGA type
   LEXCH   =    14    internal setting for exchange type
   VOSKOWN=      0    Vosko Wilk Nusair interpolation
   LHFCALC =     F    Hartree Fock is set to
   LHFONE  =     F    Hartree Fock one center treatment
   AEXX    =    0.0000 exact exchange contribution

 Linear response parameters
   LEPSILON=     F    determine dielectric tensor
   LRPA    =     F    only Hartree local field effects (RPA)
   LNABLA  =     F    use nabla operator in PAW spheres
   LVEL    =     F    velocity operator in full k-point grid
   LINTERFAST=   F  fast interpolation
   KINTER  =     0    interpolate to denser k-point grid
   CSHIFT  =0.1000    complex shift for real part using Kramers Kronig
   OMEGAMAX=  -1.0    maximum frequency
   DEG_THRESHOLD= 0.2000000E-02 threshold for treating states as degnerate
   RTIME   =   -0.100 relaxation time in fs
  (WPLASMAI=    0.000 imaginary part of plasma frequency in eV, 0.658/RTIME)
   DFIELD  = 0.0000000 0.0000000 0.0000000 field for delta impulse in time
 
 Orbital magnetization related:
   ORBITALMAG=     F  switch on orbital magnetization
   LCHIMAG   =     F  perturbation theory with respect to B field
   DQ        =  0.001000  dq finite difference perturbation B field
   LLRAUG    =     F  two centre corrections for induced B field

 PEAD related settings:
   LPEAD      =     T    switch on PEAD
   IPEAD      =     4    finite difference order for dpsi/dk
   LCALCPOL   =     T    calculate macroscopic polarization
   LCALCEPS   =     F    calculate dielectric tensor
   EFIELD_PEAD=    0.0000    0.0000    0.0000
   SKIP_EDOTP =     F
   LRPA       =     F
   SKIP_SCF   =     F


--------------------------------------------------------------------------------------------------------


 Static calculation
 charge density and potential will be updated during run
 spin polarized calculation
 Variant of blocked Davidson
 Davidson routine will perform the subspace rotation
 perform sub-space diagonalisation
    after iterative eigenvector-optimisation
 modified Broyden-mixing scheme, WC =      100.0
 initial mixing is a Kerker type mixing with AMIX =  0.4000 and BMIX =      1.0000
 Hartree-type preconditioning will be used
 using additional bands          168
 reciprocal scheme for non local part
 use partial core corrections
 calculate Harris-corrections to forces 
   (improved forces if not selfconsistent)
 use gradient corrections 
 use of overlap-Matrix (Vanderbilt PP)
 Fermi weights with tetrahedron method with Bloechl corrections


--------------------------------------------------------------------------------------------------------


  energy-cutoff  :      700.00
  volume of cell :     1145.88
      direct lattice vectors                 reciprocal lattice vectors
    10.491925000  0.549914000  0.000000000     0.095573948 -0.005009324  0.000000000
     0.549914000 10.491925000  0.000000000    -0.005009324  0.095573948  0.000000000
     0.000000000  0.000000000 10.438152864     0.000000000  0.000000000  0.095802391

  length of vectors
    10.506326457 10.506326457 10.438152864     0.095705135  0.095705135  0.095802391


 
 old parameters found on file WAVECAR:
  energy-cutoff  :      700.00
  volume of cell :     1145.87
      direct lattice vectors                 reciprocal lattice vectors
    10.491925000  0.549914000  0.000000000     0.095573948 -0.005009324  0.000000000
     0.549914000 10.491925000  0.000000000    -0.005009324  0.095573948  0.000000000
     0.000000000  0.000000000 10.438069158     0.000000000  0.000000000  0.095803159

  length of vectors

 
 k-points in units of 2pi/SCALE and weight: Automatic mesh                          
   0.00000000  0.00000000  0.00000000       0.016
   0.02389349 -0.00125233  0.00000000       0.062
   0.04778697 -0.00250466  0.00000000       0.031
   0.02264116  0.02264116  0.00000000       0.031
   0.04653464  0.02138883  0.00000000       0.062
  -0.02514582  0.02514582  0.00000000       0.031
   0.04528231  0.04528231  0.00000000       0.016
   0.00000000  0.00000000  0.02395060       0.031
   0.02389349 -0.00125233  0.02395060       0.125
   0.04778697 -0.00250466  0.02395060       0.062
   0.02264116  0.02264116  0.02395060       0.062
   0.04653464  0.02138883  0.02395060       0.125
  -0.02514582  0.02514582  0.02395060       0.062
   0.04528231  0.04528231  0.02395060       0.031
   0.00000000  0.00000000  0.04790120       0.016
   0.02389349 -0.00125233  0.04790120       0.062
   0.04778697 -0.00250466  0.04790120       0.031
   0.02264116  0.02264116  0.04790120       0.031
   0.04653464  0.02138883  0.04790120       0.062
  -0.02514582  0.02514582  0.04790120       0.031
   0.04528231  0.04528231  0.04790120       0.016
 
 k-points in reciprocal lattice and weights: Automatic mesh                          
   0.00000000  0.00000000  0.00000000       0.016
   0.25000000 -0.00000000  0.00000000       0.062
   0.50000000 -0.00000000  0.00000000       0.031
   0.25000000  0.25000000  0.00000000       0.031
   0.50000000  0.25000000  0.00000000       0.062
  -0.25000000  0.25000000  0.00000000       0.031
   0.50000000  0.50000000  0.00000000       0.016
   0.00000000  0.00000000  0.25000000       0.031
   0.25000000 -0.00000000  0.25000000       0.125
   0.50000000 -0.00000000  0.25000000       0.062
   0.25000000  0.25000000  0.25000000       0.062
   0.50000000  0.25000000  0.25000000       0.125
  -0.25000000  0.25000000  0.25000000       0.062
   0.50000000  0.50000000  0.25000000       0.031
   0.00000000  0.00000000  0.50000000       0.016
   0.25000000 -0.00000000  0.50000000       0.062
   0.50000000 -0.00000000  0.50000000       0.031
   0.25000000  0.25000000  0.50000000       0.031
   0.50000000  0.25000000  0.50000000       0.062
  -0.25000000  0.25000000  0.50000000       0.031
   0.50000000  0.50000000  0.50000000       0.016
 
 position of ions in fractional coordinates (direct lattice) 
   0.12608028  0.12558834  0.11922967
   0.62608028  0.12558834  0.11922967
   0.12608028  0.62558834  0.11922967
   0.62608028  0.62558834  0.11922967
   0.37391972  0.37441166  0.11922967
   0.87391972  0.37441166  0.11922967
   0.37391972  0.87441166  0.11922967
   0.87391972  0.87441166  0.11922967
   0.12441166  0.37391972  0.86922967
   0.62441166  0.37391972  0.86922967
   0.12441166  0.87391972  0.86922967
   0.62441166  0.87391972  0.86922967
   0.37558834  0.12608028  0.86922967
   0.87558834  0.12608028  0.86922967
   0.37558834  0.62608028  0.86922967
   0.87558834  0.62608028  0.86922967
   0.12391972  0.12441166  0.61922967
   0.62391972  0.12441166  0.61922967
   0.12391972  0.62441166  0.61922967
   0.62391972  0.62441166  0.61922967
   0.37608028  0.37558834  0.61922967
   0.87608028  0.37558834  0.61922967
   0.37608028  0.87558834  0.61922967
   0.87608028  0.87558834  0.61922967
   0.37441166  0.12391972  0.36922967
   0.87441166  0.12391972  0.36922967
   0.37441166  0.62391972  0.36922967
   0.87441166  0.62391972  0.36922967
   0.12558834  0.37608028  0.36922967
   0.62558834  0.37608028  0.36922967
   0.12558834  0.87608028  0.36922967
   0.62558834  0.87608028  0.36922967
   0.00000000  0.00000000  0.50502528
   0.50000000  0.00000000  0.50502528
   0.00000000  0.50000000  0.50502528
   0.50000000  0.50000000  0.50502528
   0.25000000  0.00000000  0.25502528
   0.75000000  0.00000000  0.25502528
   0.25000000  0.50000000  0.25502528
   0.75000000  0.50000000  0.25502528
   0.25000000  0.25000000  0.00502528
   0.75000000  0.25000000  0.00502528
   0.25000000  0.75000000  0.00502528
   0.75000000  0.75000000  0.00502528
   0.00000000  0.25000000  0.75502528
   0.50000000  0.25000000  0.75502528
   0.00000000  0.75000000  0.75502528
   0.50000000  0.75000000  0.75502528
   0.00000000  0.00000000  0.00651538
   0.50000000  0.00000000  0.00651538
   0.00000000  0.50000000  0.00651538
   0.50000000  0.50000000  0.00651538
   0.25000000  0.00000000  0.75651538
   0.75000000  0.00000000  0.75651538
   0.25000000  0.50000000  0.75651538
   0.75000000  0.50000000  0.75651538
   0.25000000  0.25000000  0.50651538
   0.75000000  0.25000000  0.50651538
   0.25000000  0.75000000  0.50651538
   0.75000000  0.75000000  0.50651538
   0.00000000  0.25000000  0.25651538
   0.50000000  0.25000000  0.25651538
   0.00000000  0.75000000  0.25651538
   0.50000000  0.75000000  0.25651538
 
 position of ions in cartesian coordinates  (Angst):
   1.39188765  1.38699680  1.24453755
   6.63785015  1.66195380  1.24453755
   1.66684465  6.63295930  1.24453755
   6.91280715  6.90791630  1.24453755
   4.12903185  4.13392270  1.24453755
   9.37499435  4.40887970  1.24453755
   4.40398885  9.37988520  1.24453755
   9.64995135  9.65484220  1.24453755
   1.51094145  3.99155335  9.07315220
   6.75690395  4.26651035  9.07315220
   1.78589845  9.23751585  9.07315220
   7.03186095  9.51247285  9.07315220
   4.00997805  1.52936615  9.07315220
   9.25594055  1.80432315  9.07315220
   4.28493505  6.77532865  9.07315220
   9.53089755  7.05028565  9.07315220
   1.36857210  1.37346295  6.46361398
   6.61453460  1.64841995  6.46361398
   1.64352910  6.61942545  6.46361398
   6.88949160  6.89438245  6.46361398
   4.15234740  4.14745655  6.46361398
   9.39830990  4.42241355  6.46361398
   4.42730440  9.39341905  6.46361398
   9.67326690  9.66837605  6.46361398
   3.99644420  1.50605060  3.85407576
   9.24240670  1.78100760  3.85407576
   4.27140120  6.75201310  3.85407576
   9.51736370  7.02697010  3.85407576
   1.52447530  4.01486890  3.85407576
   6.77043780  4.28982590  3.85407576
   1.79943230  9.26083140  3.85407576
   7.04539480  9.53578840  3.85407576
   0.00000000  0.00000000  5.27153105
   5.24596250  0.27495700  5.27153105
   0.27495700  5.24596250  5.27153105
   5.52091950  5.52091950  5.27153105
   2.62298125  0.13747850  2.66199283
   7.86894375  0.41243550  2.66199283
   2.89793825  5.38344100  2.66199283
   8.14390075  5.65839800  2.66199283
   2.76045975  2.76045975  0.05245462
   8.00642225  3.03541675  0.05245462
   3.03541675  8.00642225  0.05245462
   8.28137925  8.28137925  0.05245462
   0.13747850  2.62298125  7.88106927
   5.38344100  2.89793825  7.88106927
   0.41243550  7.86894375  7.88106927
   5.65839800  8.14390075  7.88106927
   0.00000000  0.00000000  0.06800850
   5.24596250  0.27495700  0.06800850
   0.27495700  5.24596250  0.06800850
   5.52091950  5.52091950  0.06800850
   2.62298125  0.13747850  7.89662315
   7.86894375  0.41243550  7.89662315
   2.89793825  5.38344100  7.89662315
   8.14390075  5.65839800  7.89662315
   2.76045975  2.76045975  5.28708493
   8.00642225  3.03541675  5.28708493
   3.03541675  8.00642225  5.28708493
   8.28137925  8.28137925  5.28708493
   0.13747850  2.62298125  2.67754672
   5.38344100  2.89793825  2.67754672
   0.41243550  7.86894375  2.67754672
   5.65839800  8.14390075  2.67754672
 


--------------------------------------------------------------------------------------------------------


 k-point  1 :   0.0000 0.0000 0.0000  plane waves:   48235
 k-point  2 :   0.2500-0.0000 0.0000  plane waves:   48188
 k-point  3 :   0.5000-0.0000 0.0000  plane waves:   48220
 k-point  4 :   0.2500 0.2500 0.0000  plane waves:   48196
 k-point  5 :   0.5000 0.2500 0.0000  plane waves:   48211
 k-point  6 :  -0.2500 0.2500 0.0000  plane waves:   48222
 k-point  7 :   0.5000 0.5000 0.0000  plane waves:   48168
 k-point  8 :   0.0000 0.0000 0.2500  plane waves:   48207
 k-point  9 :   0.2500-0.0000 0.2500  plane waves:   48176
 k-point 10 :   0.5000-0.0000 0.2500  plane waves:   48212
 k-point 11 :   0.2500 0.2500 0.2500  plane waves:   48194
 k-point 12 :   0.5000 0.2500 0.2500  plane waves:   48197
 k-point 13 :  -0.2500 0.2500 0.2500  plane waves:   48196
 k-point 14 :   0.5000 0.5000 0.2500  plane waves:   48176
 k-point 15 :   0.0000 0.0000 0.5000  plane waves:   48218
 k-point 16 :   0.2500-0.0000 0.5000  plane waves:   48176
 k-point 17 :   0.5000-0.0000 0.5000  plane waves:   48152
 k-point 18 :   0.2500 0.2500 0.5000  plane waves:   48182
 k-point 19 :   0.5000 0.2500 0.5000  plane waves:   48142
 k-point 20 :  -0.2500 0.2500 0.5000  plane waves:   48166
 k-point 21 :   0.5000 0.5000 0.5000  plane waves:   48120

 maximum and minimum number of plane-waves per node :     48235    48120

 maximum number of plane-waves:     48235
 maximum index in each direction: 
   IXMAX=   22   IYMAX=   22   IZMAX=   22
   IXMIN=  -23   IYMIN=  -23   IZMIN=  -23


 serial   3D FFT for wavefunctions
 parallel 3D FFT for charge:
    minimum data exchange during FFTs selected (reduces bandwidth)


 total amount of memory used by VASP MPI-rank0   661185. kBytes
=======================================================================

   base      :      30000. kBytes
   nonl-proj :     488484. kBytes
   fftplans  :       4588. kBytes
   grid      :      69719. kBytes
   one-center:       1990. kBytes
   wavefun   :      66404. kBytes
 
     INWAV:  cpu time   41.7394: real time   41.9808
 Broyden mixing: mesh for mixing (old mesh)
   NGX = 45   NGY = 45   NGZ = 45
  (NGX  =192   NGY  =192   NGZ  =180)
  gives a total of  91125 points

 initial charge density was supplied:
 number of electron     688.0000482 magnetization       0.0000000
 keeping initial charge density in first step


--------------------------------------------------------------------------------------------------------


 Maximum index for augmentation-charges          899 (set IRDMAX)


--------------------------------------------------------------------------------------------------------


 First call to EWALD:  gamma=   0.169
 Maximum number of real-space cells 3x 3x 3
 Maximum number of reciprocal cells 3x 3x 3

    FEWALD:  cpu time    0.0026: real time    0.0026


--------------------------------------- Iteration      1(   1)  ---------------------------------------


    POTLOK:  cpu time    0.3426: real time    0.3909
    SETDIJ:  cpu time    0.0152: real time    0.0152
     EDDAV:  cpu time  446.2384: real time  449.3491
 BZINTS: Fermi energy:  5.228355;688.000000 electrons
         Band energy:***********;  BLOECHL correction:  0.000000
       DOS:  cpu time    0.0245: real time    0.0246
    CHARGE:  cpu time    2.9448: real time    2.9671
    MIXING:  cpu time    0.0025: real time    0.0025
    --------------------------------------------
      LOOP:  cpu time  449.5679: real time  452.7496

 eigenvalue-minimisations  : 61440
 total energy-change (2. order) :-0.3269525E+03  (-0.4079343E-05)
 number of electron     688.0000482 magnetization       0.0000000
 augmentation part      282.2434126 magnetization       0.0000000

 Broyden mixing:
  rms(total) = 0.75843E-03    rms(broyden)= 0.75839E-03
  rms(prec ) = 0.93672E-03
  weight for this iteration     100.00

 Free energy of the ion-electron system (eV)
  ---------------------------------------------------
  alpha Z        PSCENC =      2365.99777196
  Ewald energy   TEWEN  =    -62605.58744649
  -Hartree energ DENC   =    -42864.15906282
  -exchange      EXHF   =         0.00000000
  -V(xc)+E(xc)   XCENC  =      3286.43483154
  PAW double counting   =    112179.71658425  -115872.14914384
  entropy T*S    EENTRO =         0.00000000
  eigenvalues    EBANDS =    -10837.27118368
  atomic energy  EATOM  =    114020.06510763
  Solvation  Ediel_sol  =         0.00000000
  ---------------------------------------------------
  free energy    TOTEN  =      -326.95254145 eV

  energy without entropy =     -326.95254145  energy(sigma->0) =     -326.95254145


--------------------------------------------------------------------------------------------------------




--------------------------------------- Iteration      1(   2)  ---------------------------------------


    POTLOK:  cpu time    0.1541: real time    0.1563
    SETDIJ:  cpu time    0.0132: real time    0.0133
     EDDAV:  cpu time  328.0215: real time  330.3811
 BZINTS: Fermi energy:  5.014566;688.000000 electrons
         Band energy:***********;  BLOECHL correction:  0.000000
       DOS:  cpu time    0.0240: real time    0.0241
    CHARGE:  cpu time    2.9480: real time    2.9700
    MIXING:  cpu time    0.0019: real time    0.0096
    --------------------------------------------
      LOOP:  cpu time  331.1628: real time  333.5544

 eigenvalue-minimisations  : 53504
 total energy-change (2. order) : 0.1500826E-05  (-0.4044770E-06)
 number of electron     688.0000482 magnetization       0.0000000
 augmentation part      282.2430468 magnetization       0.0000000

 Broyden mixing:
  rms(total) = 0.70196E-03    rms(broyden)= 0.70194E-03
  rms(prec ) = 0.83195E-03
  weight for this iteration     100.00

 eigenvalues of (default mixing * dielectric matrix)
  average eigenvalue GAMMA=   0.4061
  0.4061

 Free energy of the ion-electron system (eV)
  ---------------------------------------------------
  alpha Z        PSCENC =      2365.99777196
  Ewald energy   TEWEN  =    -62605.58744649
  -Hartree energ DENC   =    -42864.16014467
  -exchange      EXHF   =         0.00000000
  -V(xc)+E(xc)   XCENC  =      3286.43451503
  PAW double counting   =    112179.72613191  -115872.15883874
  entropy T*S    EENTRO =         0.00000000
  eigenvalues    EBANDS =    -10837.26963657
  atomic energy  EATOM  =    114020.06510763
  Solvation  Ediel_sol  =         0.00000000
  ---------------------------------------------------
  free energy    TOTEN  =      -326.95253995 eV

  energy without entropy =     -326.95253995  energy(sigma->0) =     -326.95253995


--------------------------------------------------------------------------------------------------------




--------------------------------------- Iteration      1(   3)  ---------------------------------------


    POTLOK:  cpu time    0.1538: real time    0.1551
    SETDIJ:  cpu time    0.0130: real time    0.0131
     EDDAV:  cpu time  478.0325: real time  481.2058
 BZINTS: Fermi energy:  5.019148;688.000000 electrons
         Band energy:***********;  BLOECHL correction:  0.000000
       DOS:  cpu time    0.0250: real time    0.0251
    CHARGE:  cpu time    2.9399: real time    2.9627
    MIXING:  cpu time    0.0014: real time    0.0014
    --------------------------------------------
      LOOP:  cpu time  481.1657: real time  484.3632

 eigenvalue-minimisations  : 63488
 total energy-change (2. order) : 0.2804009E-06  (-0.3720041E-06)
 number of electron     688.0000482 magnetization      -0.0000000
 augmentation part      282.2432628 magnetization      -0.0000000

 Broyden mixing:
  rms(total) = 0.51346E-03    rms(broyden)= 0.51344E-03
  rms(prec ) = 0.60095E-03
  weight for this iteration     100.00

 eigenvalues of (default mixing * dielectric matrix)
  average eigenvalue GAMMA=   0.9254
  1.5328  0.3180

 Free energy of the ion-electron system (eV)
  ---------------------------------------------------
  alpha Z        PSCENC =      2365.99777196
  Ewald energy   TEWEN  =    -62605.58744649
  -Hartree energ DENC   =    -42864.17400132
  -exchange      EXHF   =         0.00000000
  -V(xc)+E(xc)   XCENC  =      3286.43579283
  PAW double counting   =    112179.71522911  -115872.14706744
  entropy T*S    EENTRO =         0.00000000
  eigenvalues    EBANDS =    -10837.25792595
  atomic energy  EATOM  =    114020.06510763
  Solvation  Ediel_sol  =         0.00000000
  ---------------------------------------------------
  free energy    TOTEN  =      -326.95253967 eV

  energy without entropy =     -326.95253967  energy(sigma->0) =     -326.95253967


--------------------------------------------------------------------------------------------------------




--------------------------------------- Iteration      1(   4)  ---------------------------------------


    POTLOK:  cpu time    0.1552: real time    0.1561
    SETDIJ:  cpu time    0.0130: real time    0.0131
     EDDAV:  cpu time  504.5111: real time  507.8360
 BZINTS: Fermi energy:  5.183715;688.000000 electrons
         Band energy:***********;  BLOECHL correction:  0.000000
       DOS:  cpu time    0.0238: real time    0.0239
    CHARGE:  cpu time    2.9404: real time    2.9624
    MIXING:  cpu time    0.0013: real time    0.0013
    --------------------------------------------
      LOOP:  cpu time  507.6449: real time  510.9928

 eigenvalue-minimisations  : 66304
 total energy-change (2. order) : 0.2962188E-06  (-0.1117265E-06)
 number of electron     688.0000482 magnetization       0.0000000
 augmentation part      282.2434308 magnetization       0.0000000

 Broyden mixing:
  rms(total) = 0.15405E-03    rms(broyden)= 0.15404E-03
  rms(prec ) = 0.17485E-03
  weight for this iteration     100.00

 eigenvalues of (default mixing * dielectric matrix)
  average eigenvalue GAMMA=   0.9464
  1.8338  0.6579  0.3476

 Free energy of the ion-electron system (eV)
  ---------------------------------------------------
  alpha Z        PSCENC =      2365.99777196
  Ewald energy   TEWEN  =    -62605.58744649
  -Hartree energ DENC   =    -42864.15959650
  -exchange      EXHF   =         0.00000000
  -V(xc)+E(xc)   XCENC  =      3286.43523828
  PAW double counting   =    112179.64686636  -115872.07780507
  entropy T*S    EENTRO =         0.00000000
  eigenvalues    EBANDS =    -10837.27267554
  atomic energy  EATOM  =    114020.06510763
  Solvation  Ediel_sol  =         0.00000000
  ---------------------------------------------------
  free energy    TOTEN  =      -326.95253938 eV

  energy without entropy =     -326.95253938  energy(sigma->0) =     -326.95253938


--------------------------------------------------------------------------------------------------------




--------------------------------------- Iteration      1(   5)  ---------------------------------------


    POTLOK:  cpu time    0.1511: real time    0.1522
    SETDIJ:  cpu time    0.0129: real time    0.0130
     EDDAV:  cpu time  479.5641: real time  482.7254
 BZINTS: Fermi energy:  5.170676;688.000000 electrons
         Band energy:***********;  BLOECHL correction:  0.000000
       DOS:  cpu time    0.0257: real time    0.0259
    CHARGE:  cpu time    2.9363: real time    2.9597
    MIXING:  cpu time    0.0017: real time    0.0017
    --------------------------------------------
      LOOP:  cpu time  482.6919: real time  485.8779

 eigenvalue-minimisations  : 63488
 total energy-change (2. order) : 0.3371679E-07  (-0.2423280E-07)
 number of electron     688.0000482 magnetization       0.0000000
 augmentation part      282.2432333 magnetization       0.0000000

 Broyden mixing:
  rms(total) = 0.68159E-04    rms(broyden)= 0.68153E-04
  rms(prec ) = 0.73052E-04
  weight for this iteration     100.00

 eigenvalues of (default mixing * dielectric matrix)
  average eigenvalue GAMMA=   0.9823
  1.7986  0.3480  1.0508  0.7319

 Free energy of the ion-electron system (eV)
  ---------------------------------------------------
  alpha Z        PSCENC =      2365.99777196
  Ewald energy   TEWEN  =    -62605.58744649
  -Hartree energ DENC   =    -42864.16879495
  -exchange      EXHF   =         0.00000000
  -V(xc)+E(xc)   XCENC  =      3286.43531163
  PAW double counting   =    112179.65701416  -115872.08940747
  entropy T*S    EENTRO =         0.00000000
  eigenvalues    EBANDS =    -10837.26209580
  atomic energy  EATOM  =    114020.06510763
  Solvation  Ediel_sol  =         0.00000000
  ---------------------------------------------------
  free energy    TOTEN  =      -326.95253934 eV

  energy without entropy =     -326.95253934  energy(sigma->0) =     -326.95253934


--------------------------------------------------------------------------------------------------------




--------------------------------------- Iteration      1(   6)  ---------------------------------------


    POTLOK:  cpu time    0.1538: real time    0.1547
    SETDIJ:  cpu time    0.0130: real time    0.0130
     EDDAV:  cpu time  250.1201: real time  252.0028
 BZINTS: Fermi energy:  5.168846;688.000000 electrons
         Band energy:***********;  BLOECHL correction:  0.000000
       DOS:  cpu time    0.0238: real time    0.0239
    --------------------------------------------
      LOOP:  cpu time  250.3107: real time  252.1944

 eigenvalue-minimisations  : 44544
 total energy-change (2. order) : 0.9749783E-08  (-0.1263498E-08)
 number of electron     688.0000482 magnetization       0.0000000
 augmentation part      282.2432333 magnetization       0.0000000

 Free energy of the ion-electron system (eV)
  ---------------------------------------------------
  alpha Z        PSCENC =      2365.99777196
  Ewald energy   TEWEN  =    -62605.58744649
  -Hartree energ DENC   =    -42864.16543706
  -exchange      EXHF   =         0.00000000
  -V(xc)+E(xc)   XCENC  =      3286.43521013
  PAW double counting   =    112179.67320781  -115872.10488589
  entropy T*S    EENTRO =         0.00000000
  eigenvalues    EBANDS =    -10837.26606741
  atomic energy  EATOM  =    114020.06510763
  Solvation  Ediel_sol  =         0.00000000
  ---------------------------------------------------
  free energy    TOTEN  =      -326.95253933 eV

  energy without entropy =     -326.95253933  energy(sigma->0) =     -326.95253933


--------------------------------------------------------------------------------------------------------




 average (electrostatic) potential at core
  the test charge radii are     0.9698  0.8297  0.9500
  (the norm of the test charge is              1.0000)
       1 -86.5687       2 -86.5687       3 -86.5687       4 -86.5687       5 -86.5687
       6 -86.5687       7 -86.5687       8 -86.5687       9 -86.5687      10 -86.5687
      11 -86.5687      12 -86.5687      13 -86.5687      14 -86.5687      15 -86.5687
      16 -86.5687      17 -86.5687      18 -86.5687      19 -86.5687      20 -86.5687
      21 -86.5687      22 -86.5687      23 -86.5687      24 -86.5687      25 -86.5687
      26 -86.5687      27 -86.5687      28 -86.5687      29 -86.5687      30 -86.5687
      31 -86.5687      32 -86.5687      33 -80.6590      34 -80.6590      35 -80.6590
      36 -80.6590      37 -80.6590      38 -80.6590      39 -80.6590      40 -80.6590
      41 -80.6590      42 -80.6590      43 -80.6590      44 -80.6590      45 -80.6590
      46 -80.6590      47 -80.6590      48 -80.6590      49 -80.1607      50 -80.1607
      51 -80.1607      52 -80.1607      53 -80.1607      54 -80.1607      55 -80.1607
      56 -80.1607      57 -80.1607      58 -80.1607      59 -80.1607      60 -80.1607
      61 -80.1607      62 -80.1607      63 -80.1607      64 -80.1607
 
 
 
 E-fermi :   5.1688     XC(G=0): -10.4958     alpha+bet :-10.5904


 spin component 1

 k-point     1 :       0.0000    0.0000    0.0000
  band No.  band energies     occupation 
      1     -64.2725      1.00000
      2     -64.2725      1.00000
      3     -64.2725      1.00000
      4     -64.2725      1.00000
      5     -64.2725      1.00000
      6     -64.2725      1.00000
      7     -64.2725      1.00000
      8     -64.2725      1.00000
      9     -64.2441      1.00000
     10     -64.2441      1.00000
     11     -64.2441      1.00000
     12     -64.2441      1.00000
     13     -64.2441      1.00000
     14     -64.2441      1.00000
     15     -64.2441      1.00000
     16     -64.2441      1.00000
     17     -64.2421      1.00000
     18     -64.2421      1.00000
     19     -64.2421      1.00000
     20     -64.2421      1.00000
     21     -64.2421      1.00000
     22     -64.2421      1.00000
     23     -64.2421      1.00000
     24     -64.2421      1.00000
     25     -64.2365      1.00000
     26     -64.2365      1.00000
     27     -64.2365      1.00000
     28     -64.2365      1.00000
     29     -64.2365      1.00000
     30     -64.2365      1.00000
     31     -64.2365      1.00000
     32     -64.2365      1.00000
     33     -64.2231      1.00000
     34     -64.2231      1.00000
     35     -64.2231      1.00000
     36     -64.2231      1.00000
     37     -64.2231      1.00000
     38     -64.2231      1.00000
     39     -64.2231      1.00000
     40     -64.2231      1.00000
     41     -64.1980      1.00000
     42     -64.1980      1.00000
     43     -64.1980      1.00000
     44     -64.1980      1.00000
     45     -64.1980      1.00000
     46     -64.1980      1.00000
     47     -64.1980      1.00000
     48     -64.1980      1.00000
     49     -51.8334      1.00000
     50     -51.8334      1.00000
     51     -51.8334      1.00000
     52     -51.8334      1.00000
     53     -51.8334      1.00000
     54     -51.8334      1.00000
     55     -51.8334      1.00000
     56     -51.8334      1.00000
     57     -51.7783      1.00000
     58     -51.7783      1.00000
     59     -51.7783      1.00000
     60     -51.7783      1.00000
     61     -51.7783      1.00000
     62     -51.7783      1.00000
     63     -51.7783      1.00000
     64     -51.7783      1.00000
     65     -51.7599      1.00000
     66     -51.7599      1.00000
     67     -51.7599      1.00000
     68     -51.7599      1.00000
     69     -51.7599      1.00000
     70     -51.7599      1.00000
     71     -51.7599      1.00000
     72     -51.7599      1.00000
     73     -47.6780      1.00000
     74     -47.6780      1.00000
     75     -47.6780      1.00000
     76     -47.6780      1.00000
     77     -47.6780      1.00000
     78     -47.6780      1.00000
     79     -47.6780      1.00000
     80     -47.6780      1.00000
     81     -47.6553      1.00000
     82     -47.6553      1.00000
     83     -47.6553      1.00000
     84     -47.6553      1.00000
     85     -47.6553      1.00000
     86     -47.6553      1.00000
     87     -47.6553      1.00000
     88     -47.6553      1.00000
     89     -47.6533      1.00000
     90     -47.6533      1.00000
     91     -47.6533      1.00000
     92     -47.6533      1.00000
     93     -47.6533      1.00000
     94     -47.6533      1.00000
     95     -47.6533      1.00000
     96     -47.6533      1.00000
     97      -9.0763      1.00000
     98      -8.4755      1.00000
     99      -8.4438      1.00000
    100      -8.4438      1.00000
    101      -8.4432      1.00000
    102      -8.4432      1.00000
    103      -8.4386      1.00000
    104      -8.1940      1.00000
    105      -8.1639      1.00000
    106      -8.1519      1.00000
    107      -8.1284      1.00000
    108      -8.0911      1.00000
    109      -8.0911      1.00000
    110      -8.0911      1.00000
    111      -8.0911      1.00000
    112      -8.0503      1.00000
    113      -8.0503      1.00000
    114      -8.0503      1.00000
    115      -8.0503      1.00000
    116      -7.9835      1.00000
    117      -7.9614      1.00000
    118      -7.9372      1.00000
    119      -7.9075      1.00000
    120      -7.7241      1.00000
    121      -7.7031      1.00000
    122      -7.6986      1.00000
    123      -7.6981      1.00000
    124      -7.6981      1.00000
    125      -7.6971      1.00000
    126      -7.6971      1.00000
    127      -7.6568      1.00000
    128      -7.6502      1.00000
    129      -2.0331      1.00000
    130      -1.9817      1.00000
    131      -1.9817      1.00000
    132      -1.9680      1.00000
    133      -1.9663      1.00000
    134      -1.9663      1.00000
    135      -1.9264      1.00000
    136      -1.9101      1.00000
    137      -1.8483      1.00000
    138      -1.8470      1.00000
    139      -1.8354      1.00000
    140      -1.8354      1.00000
    141      -1.8341      1.00000
    142      -1.8303      1.00000
    143      -1.8303      1.00000
    144      -1.8204      1.00000
    145      -1.8119      1.00000
    146      -1.7990      1.00000
    147      -1.7829      1.00000
    148      -1.7777      1.00000
    149      -1.7777      1.00000
    150      -1.7727      1.00000
    151      -1.7727      1.00000
    152      -1.7623      1.00000
    153      -1.7591      1.00000
    154      -1.7383      1.00000
    155      -1.7383      1.00000
    156      -1.7130      1.00000
    157      -1.7130      1.00000
    158      -1.7010      1.00000
    159      -1.6842      1.00000
    160      -1.6842      1.00000
    161      -1.6781      1.00000
    162      -1.6781      1.00000
    163      -1.6771      1.00000
    164      -1.6468      1.00000
    165      -1.6454      1.00000
    166      -1.6426      1.00000
    167      -1.6076      1.00000
    168      -1.5816      1.00000
    169      -1.0444      1.00000
    170      -0.9120      1.00000
    171      -0.7987      1.00000
    172      -0.7222      1.00000
    173      -0.6770      1.00000
    174      -0.4931      1.00000
    175      -0.1848      1.00000
    176      -0.1848      1.00000
    177      -0.1786      1.00000
    178      -0.1786      1.00000
    179      -0.1566      1.00000
    180      -0.1454      1.00000
    181      -0.0741      1.00000
    182       0.0059      1.00000
    183       0.0059      1.00000
    184       0.0224      1.00000
    185       0.0224      1.00000
    186       0.0570      1.00000
    187       0.0711      1.00000
    188       0.1408      1.00000
    189       0.1408      1.00000
    190       0.1446      1.00000
    191       0.1446      1.00000
    192       0.1490      1.00000
    193       0.2400      1.00000
    194       0.3315      1.00000
    195       0.3315      1.00000
    196       0.3323      1.00000
    197       0.3460      1.00000
    198       0.3460      1.00000
    199       0.4116      1.00000
    200       0.6994      1.00000
    201       0.7523      1.00000
    202       0.8036      1.00000
    203       0.8208      1.00000
    204       0.8531      1.00000
    205       0.8531      1.00000
    206       0.8704      1.00000
    207       0.8704      1.00000
    208       0.9076      1.00000
    209       0.9076      1.00000
    210       0.9322      1.00000
    211       0.9322      1.00000
    212       0.9972      1.00000
    213       1.0582      1.00000
    214       1.0709      1.00000
    215       1.0709      1.00000
    216       1.0715      1.00000
    217       1.0715      1.00000
    218       1.1491      1.00000
    219       1.2013      1.00000
    220       1.2154      1.00000
    221       1.2394      1.00000
    222       1.2394      1.00000
    223       1.2428      1.00000
    224       1.2428      1.00000
    225       1.2568      1.00000
    226       1.2741      1.00000
    227       1.2830      1.00000
    228       1.2972      1.00000
    229       1.3007      1.00000
    230       1.3033      1.00000
    231       1.3468      1.00000
    232       1.3468      1.00000
    233       1.3492      1.00000
    234       1.3611      1.00000
    235       1.3611      1.00000
    236       1.4493      1.00000
    237       1.5150      1.00000
    238       1.6553      1.00000
    239       1.6654      1.00000
    240       1.6722      1.00000
    241       1.6794      1.00000
    242       1.6843      1.00000
    243       1.8357      1.00000
    244       1.8357      1.00000
    245       1.8499      1.00000
    246       1.8499      1.00000
    247       1.8683      1.00000
    248       1.8733      1.00000
    249       1.9459      1.00000
    250       1.9459      1.00000
    251       1.9763      1.00000
    252       1.9763      1.00000
    253       1.9946      1.00000
    254       2.0130      1.00000
    255       2.1266      1.00000
    256       2.1729      1.00000
    257       2.1972      1.00000
    258       2.1998      1.00000
    259       2.1998      1.00000
    260       2.2839      1.00000
    261       2.2839      1.00000
    262       2.2852      1.00000
    263       2.4792      1.00000
    264       2.5334      1.00000
    265       2.6725      1.00000
    266       2.7743      1.00000
    267       2.7743      1.00000
    268       2.7816      1.00000
    269       2.8054      1.00000
    270       2.8054      1.00000
    271       2.8067      1.00000
    272       2.8187      1.00000
    273       2.8187      1.00000
    274       2.8238      1.00000
    275       2.8238      1.00000
    276       2.8298      1.00000
    277       2.8391      1.00000
    278       2.8668      1.00000
    279       2.8918      1.00000
    280       2.9081      1.00000
    281       2.9578      1.00000
    282       2.9764      1.00000
    283       2.9764      1.00000
    284       2.9804      1.00000
    285       2.9804      1.00000
    286       3.0019      1.00000
    287       3.0167      1.00000
    288       3.0842      1.00000
    289       3.0873      1.00000
    290       3.1851      1.00000
    291       3.1887      1.00000
    292       3.2046      1.00000
    293       3.2046      1.00000
    294       3.2065      1.00000
    295       3.2428      1.00000
    296       3.2428      1.00000
    297       3.3229      1.00000
    298       3.3505      1.00000
    299       3.3834      1.00000
    300       3.3834      1.00000
    301       3.4066      1.00000
    302       3.4509      1.00000
    303       3.4900      1.00000
    304       3.4900      1.00000
    305       3.5567      1.00000
    306       3.6070      1.00000
    307       3.6078      1.00000
    308       3.6078      1.00000
    309       3.6117      1.00000
    310       3.6117      1.00000
    311       3.7121      1.00000
    312       3.7121      1.00000
    313       3.7160      1.00000
    314       3.7160      1.00000
    315       3.7508      1.00000
    316       3.8076      1.00000
    317       3.8695      1.00000
    318       3.9248      1.00000
    319       4.0544      1.00000
    320       4.0604      1.00000
    321       4.0818      1.00000
    322       4.0818      1.00000
    323       4.0997      1.00000
    324       4.0997      1.00000
    325       4.1335      1.00000
    326       4.1335      1.00000
    327       4.1620      1.00000
    328       4.1630      1.00000
    329       4.1773      1.00000
    330       4.2297      1.00000
    331       4.2297      1.00000
    332       4.2641      1.00000
    333       4.2683      1.00000
    334       4.3274      1.00000
    335       4.3890      1.00000
    336       4.6531      1.00000
    337       4.6718      1.00000
    338       4.6816      1.00000
    339       4.6816      1.00000
    340       4.6945      1.00000
    341       4.7214      1.00000
    342       4.7214      1.00000
    343       4.8623      1.00000
    344       4.9901      1.00000
    345       5.7113      0.00000
    346       5.7113      0.00000
    347       5.7640      0.00000
    348       5.7640      0.00000
    349       5.7989      0.00000
    350       5.8096      0.00000
    351       5.8446      0.00000
    352       5.9434      0.00000
    353       5.9712      0.00000
    354       5.9768      0.00000
    355       5.9768      0.00000
    356       6.0035      0.00000
    357       6.0638      0.00000
    358       6.0652      0.00000
    359       6.0652      0.00000
    360       6.0996      0.00000
    361       6.0996      0.00000
    362       6.1176      0.00000
    363       6.1484      0.00000
    364       6.1484      0.00000
    365       6.2289      0.00000
    366       6.2291      0.00000
    367       6.2464      0.00000
    368       6.2464      0.00000
    369       6.2552      0.00000
    370       6.2552      0.00000
    371       6.2737      0.00000
    372       6.3144      0.00000
    373       6.3276      0.00000
    374       6.3864      0.00000
    375       6.4139      0.00000
    376       6.4550      0.00000
    377       6.4931      0.00000
    378       6.5424      0.00000
    379       6.5680      0.00000
    380       6.5680      0.00000
    381       6.5778      0.00000
    382       6.5778      0.00000
    383       6.6546      0.00000
    384       6.8493      0.00000
    385       7.5983      0.00000
    386       8.4615      0.00000
    387       8.7242      0.00000
    388       8.8020      0.00000
    389       8.8171      0.00000
    390       8.9825      0.00000
    391       9.0393      0.00000
    392       9.3760      0.00000
    393       9.4401      0.00000
    394       9.4401      0.00000
    395       9.4411      0.00000
    396       9.4411      0.00000
    397       9.5272      0.00000
    398       9.6492      0.00000
    399      10.0854      0.00000
    400      10.1285      0.00000
    401      10.2226      0.00000
    402      10.5842      0.00000
    403      10.5842      0.00000
    404      10.5873      0.00000
    405      10.5967      0.00000
    406      10.6009      0.00000
    407      10.6009      0.00000
    408      10.6660      0.00000
    409      10.6660      0.00000
    410      10.6765      0.00000
    411      10.6765      0.00000
    412      10.7415      0.00000
    413      10.7415      0.00000
    414      10.7682      0.00000
    415      10.7682      0.00000
    416      10.7686      0.00000
    417      10.7978      0.00000
    418      10.8565      0.00000
    419      10.8565      0.00000
    420      10.9132      0.00000
    421      10.9132      0.00000
    422      10.9346      0.00000
    423      11.1006      0.00000
    424      11.1466      0.00000
    425      11.2651      0.00000
    426      11.4902      0.00000
    427      11.4902      0.00000
    428      11.4994      0.00000
    429      11.4994      0.00000
    430      11.5449      0.00000
    431      11.6181      0.00000
    432      11.6775      0.00000
    433      11.7398      0.00000
    434      11.7398      0.00000
    435      11.7405      0.00000
    436      11.7478      0.00000
    437      11.7478      0.00000
    438      11.9678      0.00000
    439      11.9930      0.00000
    440      12.0152      0.00000
    441      12.0477      0.00000
    442      12.0583      0.00000
    443      12.0985      0.00000
    444      12.2553      0.00000
    445      12.3085      0.00000
    446      12.3592      0.00000
    447      12.3638      0.00000
[...]
   -.417E+02 0.771E+00 0.320E+02   0.426E+02 -.735E+00 -.323E+02   -.835E+00 -.368E-01 0.316E+00   0.595E-04 0.204E-04 0.246E-04
   -.417E+02 0.771E+00 0.320E+02   0.426E+02 -.735E+00 -.323E+02   -.835E+00 -.368E-01 0.316E+00   0.595E-04 0.204E-04 0.246E-04
   -.417E+02 0.771E+00 0.320E+02   0.426E+02 -.735E+00 -.323E+02   -.835E+00 -.368E-01 0.316E+00   0.595E-04 0.204E-04 0.246E-04
   -.417E+02 0.771E+00 0.320E+02   0.426E+02 -.735E+00 -.323E+02   -.835E+00 -.368E-01 0.316E+00   0.595E-04 0.204E-04 0.246E-04
   0.417E+02 -.771E+00 0.320E+02   -.426E+02 0.735E+00 -.323E+02   0.835E+00 0.368E-01 0.316E+00   -.595E-04 -.204E-04 0.246E-04
   0.417E+02 -.771E+00 0.320E+02   -.426E+02 0.735E+00 -.323E+02   0.835E+00 0.368E-01 0.316E+00   -.595E-04 -.204E-04 0.246E-04
   0.417E+02 -.771E+00 0.320E+02   -.426E+02 0.735E+00 -.323E+02   0.835E+00 0.368E-01 0.316E+00   -.595E-04 -.204E-04 0.246E-04
   0.417E+02 -.771E+00 0.320E+02   -.426E+02 0.735E+00 -.323E+02   0.835E+00 0.368E-01 0.316E+00   -.595E-04 -.204E-04 0.246E-04
   0.771E+00 -.417E+02 0.320E+02   -.735E+00 0.426E+02 -.323E+02   -.368E-01 -.835E+00 0.316E+00   0.204E-04 0.595E-04 0.246E-04
   0.771E+00 -.417E+02 0.320E+02   -.735E+00 0.426E+02 -.323E+02   -.368E-01 -.835E+00 0.316E+00   0.204E-04 0.595E-04 0.246E-04
   0.771E+00 -.417E+02 0.320E+02   -.735E+00 0.426E+02 -.323E+02   -.368E-01 -.835E+00 0.316E+00   0.204E-04 0.595E-04 0.246E-04
   0.771E+00 -.417E+02 0.320E+02   -.735E+00 0.426E+02 -.323E+02   -.368E-01 -.835E+00 0.316E+00   0.204E-04 0.595E-04 0.246E-04
   -.771E+00 0.417E+02 0.320E+02   0.735E+00 -.426E+02 -.323E+02   0.368E-01 0.835E+00 0.316E+00   -.204E-04 -.595E-04 0.246E-04
   -.771E+00 0.417E+02 0.320E+02   0.735E+00 -.426E+02 -.323E+02   0.368E-01 0.835E+00 0.316E+00   -.204E-04 -.595E-04 0.246E-04
   -.771E+00 0.417E+02 0.320E+02   0.735E+00 -.426E+02 -.323E+02   0.368E-01 0.835E+00 0.316E+00   -.204E-04 -.595E-04 0.246E-04
   -.771E+00 0.417E+02 0.320E+02   0.735E+00 -.426E+02 -.323E+02   0.368E-01 0.835E+00 0.316E+00   -.204E-04 -.595E-04 0.246E-04
   -.224E-07 0.279E-07 -.375E+02   0.112E-10 -.175E-10 0.360E+02   0.147E-18 -.271E-19 0.151E+01   0.898E-11 -.500E-11 0.244E-03
   -.224E-07 0.279E-07 -.375E+02   0.945E-11 0.205E-11 0.360E+02   -.141E-18 0.352E-18 0.151E+01   -.131E-10 -.648E-11 0.244E-03
   -.224E-07 0.279E-07 -.375E+02   -.414E-11 -.222E-10 0.360E+02   -.457E-19 -.352E-18 0.151E+01   0.386E-12 0.568E-11 0.244E-03
   -.224E-07 0.278E-07 -.375E+02   -.597E-11 -.273E-11 0.360E+02   -.491E-19 0.813E-19 0.151E+01   -.164E-11 0.612E-11 0.244E-03
   0.279E-07 -.224E-07 -.375E+02   -.191E-10 -.183E-10 0.360E+02   0.296E-18 -.254E-19 0.151E+01   0.270E-11 -.310E-11 0.244E-03
   0.279E-07 -.224E-07 -.375E+02   -.143E-10 -.298E-11 0.360E+02   -.206E-18 0.220E-19 0.151E+01   0.496E-11 -.190E-10 0.244E-03
   0.279E-07 -.224E-07 -.375E+02   0.369E-12 -.201E-10 0.360E+02   0.150E-18 -.271E-19 0.151E+01   0.119E-11 0.214E-11 0.244E-03
   0.279E-07 -.224E-07 -.375E+02   0.520E-11 -.475E-11 0.360E+02   -.424E-18 0.144E-18 0.151E+01   -.947E-12 0.139E-10 0.244E-03
   -.224E-07 0.278E-07 -.375E+02   -.115E-10 0.178E-10 0.360E+02   0.136E-19 -.136E-18 0.151E+01   0.262E-11 0.771E-11 0.244E-03
   -.224E-07 0.278E-07 -.375E+02   -.963E-11 -.166E-11 0.360E+02   -.593E-19 0.813E-19 0.151E+01   -.286E-11 0.115E-10 0.244E-03
   -.224E-07 0.279E-07 -.375E+02   0.387E-11 0.226E-10 0.360E+02   0.127E-18 0.163E-18 0.151E+01   0.500E-11 -.661E-11 0.244E-03
   -.224E-07 0.279E-07 -.375E+02   0.571E-11 0.318E-11 0.360E+02   -.130E-18 -.271E-19 0.151E+01   -.875E-11 -.403E-11 0.244E-03
   0.279E-07 -.224E-07 -.375E+02   0.190E-10 0.187E-10 0.360E+02   -.953E-20 0.610E-19 0.151E+01   -.114E-10 -.385E-12 0.244E-03
   0.279E-07 -.224E-07 -.375E+02   0.143E-10 0.331E-11 0.360E+02   -.253E-18 0.508E-19 0.151E+01   0.101E-10 0.148E-11 0.244E-03
   0.279E-07 -.224E-07 -.375E+02   -.486E-12 0.205E-10 0.360E+02   -.193E-18 -.120E-18 0.151E+01   -.111E-11 -.829E-11 0.244E-03
   0.279E-07 -.223E-07 -.375E+02   -.520E-11 0.508E-11 0.360E+02   0.409E-19 0.864E-19 0.151E+01   0.308E-11 0.322E-11 0.244E-03
   -.539E-07 0.558E-07 -.304E+02   -.846E-11 0.147E-10 0.286E+02   -.623E-18 -.759E-18 0.178E+01   -.151E-11 0.184E-11 0.117E-03
   -.539E-07 0.558E-07 -.304E+02   -.733E-11 -.132E-11 0.286E+02   0.146E-17 -.867E-18 0.178E+01   0.822E-11 -.112E-11 0.117E-03
   -.539E-07 0.558E-07 -.304E+02   0.381E-11 0.182E-10 0.286E+02   -.413E-18 0.542E-18 0.178E+01   -.346E-11 -.397E-11 0.117E-03
   -.539E-07 0.558E-07 -.304E+02   0.493E-11 0.226E-11 0.286E+02   -.169E-18 -.434E-18 0.178E+01   0.410E-11 -.877E-12 0.117E-03
   0.558E-07 -.539E-07 -.304E+02   0.153E-10 0.151E-10 0.286E+02   -.745E-19 0.217E-17 0.178E+01   0.154E-11 0.635E-13 0.117E-03
   0.558E-07 -.539E-07 -.304E+02   0.117E-10 0.274E-11 0.286E+02   -.427E-18 -.173E-17 0.178E+01   -.591E-11 0.156E-10 0.117E-03
   0.558E-07 -.539E-07 -.304E+02   -.657E-12 0.161E-10 0.286E+02   -.407E-18 0.108E-18 0.178E+01   0.384E-12 -.265E-11 0.117E-03
   0.558E-07 -.539E-07 -.304E+02   -.424E-11 0.389E-11 0.286E+02   0.240E-17 0.542E-18 0.178E+01   0.296E-12 -.105E-10 0.117E-03
   -.539E-07 0.558E-07 -.304E+02   0.860E-11 -.148E-10 0.286E+02   -.725E-18 -.976E-18 0.178E+01   -.216E-11 -.105E-10 0.117E-03
   -.539E-07 0.558E-07 -.304E+02   0.743E-11 0.112E-11 0.286E+02   0.129E-17 0.173E-17 0.178E+01   0.107E-11 -.319E-12 0.117E-03
   -.539E-07 0.558E-07 -.304E+02   -.369E-11 -.183E-10 0.286E+02   0.732E-18 0.542E-18 0.178E+01   -.628E-12 0.847E-11 0.117E-03
   -.539E-07 0.558E-07 -.304E+02   -.483E-11 -.241E-11 0.286E+02   -.146E-17 0.217E-18 0.178E+01   0.443E-11 0.187E-11 0.117E-03
   0.558E-07 -.539E-07 -.304E+02   -.151E-10 -.154E-10 0.286E+02   -.996E-18 -.867E-18 0.178E+01   0.121E-10 -.123E-11 0.117E-03
   0.558E-07 -.540E-07 -.304E+02   -.116E-10 -.308E-11 0.286E+02   0.200E-17 0.119E-17 0.178E+01   -.145E-10 0.561E-11 0.117E-03
   0.558E-07 -.539E-07 -.304E+02   0.824E-12 -.165E-10 0.286E+02   -.373E-18 0.542E-18 0.178E+01   0.313E-11 0.582E-11 0.117E-03
   0.558E-07 -.539E-07 -.304E+02   0.434E-11 -.433E-11 0.286E+02   -.285E-18 -.542E-18 0.178E+01   -.848E-11 0.464E-12 0.117E-03
 -----------------------------------------------------------------------------------------------
   0.446E-06 0.446E-06 -.629E+02   0.139E-12 0.393E-13 0.853E-13   0.397E-15 -.442E-15 0.629E+02   -.241E-11 0.761E-11 0.657E-02
 
 
 POSITION                                       TOTAL-FORCE (eV/Angst)
 -----------------------------------------------------------------------------------
      1.39189      1.38700      1.24454        -0.000032      0.000253      0.000023
      6.63785      1.66195      1.24454        -0.000032      0.000253      0.000023
      1.66684      6.63296      1.24454        -0.000032      0.000253      0.000023
      6.91281      6.90792      1.24454        -0.000032      0.000253      0.000023
      4.12903      4.13392      1.24454         0.000032     -0.000253      0.000023
      9.37499      4.40888      1.24454         0.000032     -0.000253      0.000023
      4.40399      9.37989      1.24454         0.000032     -0.000253      0.000023
      9.64995      9.65484      1.24454         0.000032     -0.000253      0.000023
      1.51094      3.99155      9.07315        -0.000253      0.000032      0.000023
      6.75690      4.26651      9.07315        -0.000253      0.000032      0.000023
      1.78590      9.23752      9.07315        -0.000253      0.000032      0.000023
      7.03186      9.51247      9.07315        -0.000253      0.000032      0.000023
      4.00998      1.52937      9.07315         0.000253     -0.000032      0.000023
      9.25594      1.80432      9.07315         0.000253     -0.000032      0.000023
      4.28494      6.77533      9.07315         0.000253     -0.000032      0.000023
      9.53090      7.05029      9.07315         0.000253     -0.000032      0.000023
      1.36857      1.37346      6.46361         0.000032     -0.000253      0.000023
      6.61453      1.64842      6.46361         0.000032     -0.000253      0.000023
      1.64353      6.61943      6.46361         0.000032     -0.000253      0.000023
      6.88949      6.89438      6.46361         0.000032     -0.000253      0.000023
      4.15235      4.14746      6.46361        -0.000032      0.000253      0.000023
      9.39831      4.42241      6.46361        -0.000032      0.000253      0.000023
      4.42730      9.39342      6.46361        -0.000032      0.000253      0.000023
      9.67327      9.66838      6.46361        -0.000032      0.000253      0.000023
      3.99644      1.50605      3.85408        -0.000253      0.000032      0.000023
      9.24241      1.78101      3.85408        -0.000253      0.000032      0.000023
      4.27140      6.75201      3.85408        -0.000253      0.000032      0.000023
      9.51736      7.02697      3.85408        -0.000253      0.000032      0.000023
      1.52448      4.01487      3.85408         0.000253     -0.000032      0.000023
      6.77044      4.28983      3.85408         0.000253     -0.000032      0.000023
      1.79943      9.26083      3.85408         0.000253     -0.000032      0.000023
      7.04539      9.53579      3.85408         0.000253     -0.000032      0.000023
      0.00000      0.00000      5.27153         0.000000      0.000000     -0.000612
      5.24596      0.27496      5.27153         0.000000      0.000000     -0.000612
      0.27496      5.24596      5.27153         0.000000      0.000000     -0.000612
      5.52092      5.52092      5.27153         0.000000      0.000000     -0.000612
      2.62298      0.13748      2.66199         0.000000      0.000000     -0.000612
      7.86894      0.41244      2.66199         0.000000      0.000000     -0.000612
      2.89794      5.38344      2.66199         0.000000      0.000000     -0.000612
      8.14390      5.65840      2.66199         0.000000      0.000000     -0.000612
      2.76046      2.76046      0.05245         0.000000      0.000000     -0.000612
      8.00642      3.03542      0.05245         0.000000      0.000000     -0.000612
      3.03542      8.00642      0.05245         0.000000      0.000000     -0.000612
      8.28138      8.28138      0.05245         0.000000      0.000000     -0.000612
      0.13748      2.62298      7.88107         0.000000      0.000000     -0.000612
      5.38344      2.89794      7.88107         0.000000      0.000000     -0.000612
      0.41244      7.86894      7.88107         0.000000      0.000000     -0.000612
      5.65840      8.14390      7.88107         0.000000      0.000000     -0.000612
      0.00000      0.00000      0.06801         0.000000      0.000000      0.000566
      5.24596      0.27496      0.06801         0.000000      0.000000      0.000566
      0.27496      5.24596      0.06801         0.000000      0.000000      0.000566
      5.52092      5.52092      0.06801         0.000000      0.000000      0.000566
      2.62298      0.13748      7.89662         0.000000      0.000000      0.000566
      7.86894      0.41244      7.89662         0.000000      0.000000      0.000566
      2.89794      5.38344      7.89662         0.000000      0.000000      0.000566
      8.14390      5.65840      7.89662         0.000000      0.000000      0.000566
      2.76046      2.76046      5.28708         0.000000      0.000000      0.000566
      8.00642      3.03542      5.28708         0.000000      0.000000      0.000566
      3.03542      8.00642      5.28708         0.000000      0.000000      0.000566
      8.28138      8.28138      5.28708         0.000000      0.000000      0.000566
      0.13748      2.62298      2.67755         0.000000      0.000000      0.000566
      5.38344      2.89794      2.67755         0.000000      0.000000      0.000566
      0.41244      7.86894      2.67755         0.000000      0.000000      0.000566
      5.65840      8.14390      2.67755         0.000000      0.000000      0.000566
 -----------------------------------------------------------------------------------
    total drift:                                0.000000      0.000000      0.007415


--------------------------------------------------------------------------------------------------------



  FREE ENERGIE OF THE ION-ELECTRON SYSTEM (eV)
  ---------------------------------------------------
  free  energy   TOTEN  =      -326.95253933 eV

  energy  without entropy=     -326.95253933  energy(sigma->0) =     -326.95253933
 


--------------------------------------------------------------------------------------------------------


    POTLOK:  cpu time    0.1645: real time    0.1652


--------------------------------------------------------------------------------------------------------


 writing wavefunctions
     LOOP+:  cpu time 3087.0256: real time 3592.2035
    4ORBIT:  cpu time    0.0000: real time    0.0000
 


 total charge     
 
# of ion       s       p       d       tot
------------------------------------------
    1        1.315   2.407   0.000   3.721
    2        1.315   2.407   0.000   3.721
    3        1.315   2.407   0.000   3.721
    4        1.315   2.407   0.000   3.721
    5        1.315   2.407   0.000   3.721
    6        1.315   2.407   0.000   3.721
    7        1.315   2.407   0.000   3.721
    8        1.315   2.407   0.000   3.721
    9        1.315   2.407   0.000   3.722
   10        1.315   2.407   0.000   3.722
   11        1.315   2.407   0.000   3.722
   12        1.315   2.407   0.000   3.722
   13        1.315   2.407   0.000   3.721
   14        1.315   2.407   0.000   3.721
   15        1.315   2.407   0.000   3.721
   16        1.315   2.407   0.000   3.721
   17        1.315   2.407   0.000   3.721
   18        1.315   2.407   0.000   3.721
   19        1.315   2.407   0.000   3.721
   20        1.315   2.407   0.000   3.721
   21        1.315   2.407   0.000   3.721
   22        1.315   2.407   0.000   3.721
   23        1.315   2.407   0.000   3.721
   24        1.315   2.407   0.000   3.721
   25        1.315   2.407   0.000   3.722
   26        1.315   2.407   0.000   3.722
   27        1.315   2.407   0.000   3.722
   28        1.315   2.407   0.000   3.722
   29        1.315   2.407   0.000   3.721
   30        1.315   2.407   0.000   3.721
   31        1.315   2.407   0.000   3.721
   32        1.315   2.407   0.000   3.721
   33        0.259   6.201   8.916  15.376
   34        0.259   6.201   8.916  15.376
   35        0.259   6.201   8.916  15.376
   36        0.259   6.201   8.916  15.376
   37        0.258   6.201   8.916  15.376
   38        0.258   6.201   8.916  15.376
   39        0.258   6.201   8.916  15.376
   40        0.258   6.201   8.916  15.376
   41        0.259   6.201   8.916  15.376
   42        0.259   6.201   8.916  15.376
   43        0.259   6.201   8.916  15.376
   44        0.259   6.201   8.916  15.376
   45        0.258   6.201   8.916  15.376
   46        0.258   6.201   8.916  15.376
   47        0.258   6.201   8.916  15.376
   48        0.258   6.201   8.916  15.376
   49        0.347   6.346   5.822  12.516
   50        0.347   6.346   5.822  12.516
   51        0.347   6.346   5.822  12.516
   52        0.347   6.346   5.822  12.516
   53        0.347   6.346   5.822  12.516
   54        0.347   6.346   5.822  12.516
   55        0.347   6.346   5.822  12.516
   56        0.347   6.346   5.822  12.516
   57        0.347   6.346   5.822  12.516
   58        0.347   6.346   5.822  12.516
   59        0.347   6.346   5.822  12.516
   60        0.347   6.346   5.822  12.516
   61        0.347   6.346   5.822  12.516
   62        0.347   6.346   5.822  12.516
   63        0.347   6.346   5.822  12.516
   64        0.347   6.346   5.822  12.516
--------------------------------------------------
tot         51.763 277.775 235.816 565.354
 


 magnetization (x)
 
# of ion       s       p       d       tot
------------------------------------------
    1       -0.001  -0.025   0.000  -0.027
    2       -0.001  -0.025   0.000  -0.027
    3       -0.001  -0.025   0.000  -0.027
    4       -0.001  -0.025   0.000  -0.027
    5       -0.001  -0.026   0.000  -0.027
    6       -0.001  -0.026   0.000  -0.027
    7       -0.001  -0.026   0.000  -0.027
    8       -0.001  -0.026   0.000  -0.027
    9        0.001   0.026   0.000   0.027
   10        0.001   0.026   0.000   0.027
   11        0.001   0.026   0.000   0.027
   12        0.001   0.026   0.000   0.027
   13        0.001   0.026   0.000   0.027
   14        0.001   0.026   0.000   0.027
   15        0.001   0.026   0.000   0.027
   16        0.001   0.026   0.000   0.027
   17       -0.001  -0.026   0.000  -0.027
   18       -0.001  -0.026   0.000  -0.027
   19       -0.001  -0.026   0.000  -0.027
   20       -0.001  -0.026   0.000  -0.027
   21       -0.001  -0.025   0.000  -0.027
   22       -0.001  -0.025   0.000  -0.027
   23       -0.001  -0.025   0.000  -0.027
   24       -0.001  -0.025   0.000  -0.027
   25        0.001   0.026   0.000   0.027
   26        0.001   0.026   0.000   0.027
   27        0.001   0.026   0.000   0.027
   28        0.001   0.026   0.000   0.027
   29        0.001   0.026   0.000   0.027
   30        0.001   0.026   0.000   0.027
   31        0.001   0.026   0.000   0.027
   32        0.001   0.026   0.000   0.027
   33        0.000  -0.000   0.003   0.003
   34        0.000  -0.000   0.003   0.003
   35        0.000  -0.000   0.003   0.003
   36        0.000  -0.000   0.003   0.003
   37       -0.000   0.000  -0.004  -0.003
   38       -0.000   0.000  -0.004  -0.003
   39       -0.000   0.000  -0.004  -0.003
   40       -0.000   0.000  -0.004  -0.003
   41        0.000  -0.000   0.003   0.003
   42        0.000  -0.000   0.003   0.003
   43        0.000  -0.000   0.003   0.003
   44        0.000  -0.000   0.003   0.003
   45       -0.000   0.000  -0.004  -0.003
   46       -0.000   0.000  -0.004  -0.003
   47       -0.000   0.000  -0.004  -0.003
   48       -0.000   0.000  -0.004  -0.003
   49        0.020   0.053   3.668   3.741
   50        0.020   0.053   3.668   3.741
   51        0.020   0.053   3.668   3.741
   52        0.020   0.053   3.668   3.741
   53       -0.020  -0.053  -3.668  -3.741
   54       -0.020  -0.053  -3.668  -3.741
   55       -0.020  -0.053  -3.668  -3.741
   56       -0.020  -0.053  -3.668  -3.741
   57        0.020   0.053   3.668   3.741
   58        0.020   0.053   3.668   3.741
   59        0.020   0.053   3.668   3.741
   60        0.020   0.053   3.668   3.741
   61       -0.020  -0.053  -3.668  -3.741
   62       -0.020  -0.053  -3.668  -3.741
   63       -0.020  -0.053  -3.668  -3.741
   64       -0.020  -0.053  -3.668  -3.741
--------------------------------------------------
tot         -0.002   0.001  -0.001  -0.001
 
 BZINTS: Fermi energy:  5.168846;688.000000 electrons
         Band energy:***********;  BLOECHL correction:  0.000000

 total amount of memory used by VASP MPI-rank0   661185. kBytes
=======================================================================

   base      :      30000. kBytes
   nonl-proj :     488484. kBytes
   fftplans  :       4588. kBytes
   grid      :      69719. kBytes
   one-center:       1990. kBytes
   wavefun   :      66404. kBytes
 
  
  
 General timing and accounting informations for this job:
 ========================================================
  
                  Total CPU time used (sec):     3197.344
                            User time (sec):     3175.396
                          System time (sec):       21.949
                         Elapsed time (sec):     3704.262
  
                   Maximum memory used (kb):     1184008.
                   Average memory used (kb):           0.
  
                          Minor page faults:       367597
                          Major page faults:         4870
                 Voluntary context switches:         6915
