       N       E                     dE             d eps       ncg     rms          rms(c)
DAV:   1    -0.305308365422E+03   -0.30531E+03   -0.13265E+03 19456   0.200E+02    0.310E+01
DAV:   2    -0.327756184652E+03   -0.22448E+02   -0.22479E+02 12288   0.224E+01    0.126E+01
DAV:   3    -0.328040889038E+03   -0.28470E+00   -0.34855E+00 19712   0.342E+00    0.923E+00
DAV:   4    -0.328042409359E+03   -0.15203E-02   -0.15392E-01 15104   0.104E+00    0.797E+00
DAV:   5    -0.328042424399E+03   -0.15040E-04   -0.12845E-02 14592   0.324E-01    0.694E+00
DAV:   6    -0.328042197924E+03    0.22647E-03   -0.60200E-04 16640   0.636E-02    0.642E+00
DAV:   7    -0.328041473127E+03    0.72480E-03   -0.50659E-04 17408   0.715E-02    0.502E+00
DAV:   8    -0.328041010722E+03    0.46240E-03   -0.46841E-04 13056   0.630E-02    0.309E+00
DAV:   9    -0.328040882081E+03    0.12864E-03   -0.86314E-05 17152   0.223E-02    0.243E+00
DAV:  10    -0.328040727298E+03    0.15478E-03   -0.19334E-04 13824   0.366E-02    0.116E+00
DAV:  11    -0.328040701290E+03    0.26009E-04   -0.27142E-05 17920   0.122E-02    0.698E-01
DAV:  12    -0.328040686422E+03    0.14868E-04   -0.11728E-05 14336   0.685E-03    0.322E-01
DAV:  13    -0.328040679508E+03    0.69138E-05   -0.66289E-06 16896   0.712E-03    0.829E-02
DAV:  14    -0.328040678192E+03    0.13163E-05   -0.14399E-06 16640   0.273E-03    0.113E-02
DAV:  15    -0.328040678008E+03    0.18449E-06   -0.13605E-07 16384   0.501E-04    0.269E-03
DAV:  16    -0.328040678000E+03    0.81636E-08   -0.13733E-08  9728   0.231E-04
   1 F= -.32804068E+03 E0= -.32804068E+03  d E =0.000000E+00  mag=    -0.0000
