 vasp.5.4.4.18Apr17-6-g9f103f2a35 (build Oct 30 2023 17:30:16) complex          
  
 executed on             LinuxIFC date 2024.06.29  19:06:39
 running on  256 total cores
 distrk:  each k-point on  256 cores,    1 groups
 distr:  one band on NCORES_PER_BAND=   1 cores,  256 groups


--------------------------------------------------------------------------------------------------------


 INCAR:
 POTCAR:    PAW_PBE S 06Sep2000                   
 POTCAR:     PAW_PBE Cu_pv 06Sep2000              
 POTCAR:     PAW_PBE Fe_pv 02Aug2007              

 ----------------------------------------------------------------------------- 
|                                                                             |
|           W    W    AA    RRRRR   N    N  II  N    N   GGGG   !!!           |
|           W    W   A  A   R    R  NN   N  II  NN   N  G    G  !!!           |
|           W    W  A    A  R    R  N N  N  II  N N  N  G       !!!           |
|           W WW W  AAAAAA  RRRRR   N  N N  II  N  N N  G  GGG   !            |
|           WW  WW  A    A  R   R   N   NN  II  N   NN  G    G                |
|           W    W  A    A  R    R  N    N  II  N    N   GGGG   !!!           |
|                                                                             |
|      For optimal performance we recommend to set                            |
|        NCORE= 4 - approx SQRT( number of cores)                             |
|      NCORE specifies how many cores store one orbital (NPAR=cpu/NCORE).     |
|      This setting can  greatly improve the performance of VASP for DFT.     |
|      The default,   NCORE=1            might be grossly inefficient         |
|      on modern multi-core architectures or massively parallel machines.     |
|      Do your own testing !!!!                                               |
|      Unfortunately you need to use the default for GW and RPA calculations. |
|      (for HF NCORE is supported but not extensively tested yet)             |
|                                                                             |
 ----------------------------------------------------------------------------- 

 POTCAR:    PAW_PBE S 06Sep2000                   
   SHA256 =  0fc7481fb0695f01bdc6462160264c5c84044ae9ec85a907d398b887a2bc3132 S/
   COPYR  = (c) Copyright 06Sep2000 Georg Kresse                                
   COPYR  = This file is part of the software VASP. Any use, copying, and all ot
   COPYR  = If you do not have a valid VASP license, you may not use, copy or di
   VRHFIN =S : s2p4                                                             
   LEXCH  = PE                                                                  
   EATOM  =   276.8230 eV,   20.3459 Ry                                         
                                                                                
   TITEL  = PAW_PBE S 06Sep2000                                                 
   LULTRA =        F    use ultrasoft PP ?                                      
   IUNSCR =        1    unscreen: 0-lin 1-nonlin 2-no                           
   RPACOR =    1.500    partial core radius                                     
   POMASS =   32.066; ZVAL   =    6.000    mass and valenz                      
   RCORE  =    1.900    outmost cutoff radius                                   
   RWIGS  =    2.200; RWIGS  =    1.164    wigner-seitz radius (au A)           
   ENMAX  =  258.689; ENMIN  =  194.016 eV                                      
   ICORE  =        2    local potential                                         
   LCOR   =        T    correct aug charges                                     
   LPAW   =        T    paw PP                                                  
   EAUG   =  335.092                                                            
   DEXC   =    0.000                                                            
   RMAX   =    1.942    core radius for proj-oper                               
   RAUG   =    1.300    factor for augmentation sphere                          
   RDEP   =    1.954    radius for radial grids                                 
   RDEPT  =    1.744    core radius for aug-charge                              
                                                                                
   Atomic configuration                                                         
    6 entries                                                                   
     n  l   j            E        occ.                                          
     1  0  0.50     -2405.8406   2.0000                                         
     2  0  0.50      -211.7007   2.0000                                         
     2  1  1.50      -156.4958   6.0000                                         
     3  0  0.50       -17.2562   2.0000                                         
     3  1  0.50        -7.0085   4.0000                                         
     3  2  1.50        -6.8029   0.0000                                         
   Description                                                                  
     l       E           TYP  RCUT    TYP  RCUT                                 
     0    -17.2561641     23  1.900                                             
     0    -15.8743224     23  1.900                                             
     1     -7.0085400     23  1.900                                             
     1     -2.7779785     23  1.900                                             
     2     -6.8029130     23  1.900                                             
  local pseudopotential read in
  partial core-charges read in
  partial kinetic energy density read in
  atomic valenz-charges read in
  non local Contribution for L=           0  read in
    real space projection operators read in
  non local Contribution for L=           0  read in
    real space projection operators read in
  non local Contribution for L=           1  read in
    real space projection operators read in
  non local Contribution for L=           1  read in
    real space projection operators read in
    PAW grid and wavefunctions read in
 
   number of l-projection  operators is LMAX  =           4
   number of lm-projection operators is LMMAX =           8
 
 POTCAR:     PAW_PBE Cu_pv 06Sep2000              
   SHA256 =  cb7b504e2ea725fe1f25c85a9ac77d4012ce94cd394135b722c4e25ec297f1cb Cu
   COPYR  = (c) Copyright 06Sep2000 Georg Kresse                                
   COPYR  = This file is part of the software VASP. Any use, copying, and all ot
   COPYR  = If you do not have a valid VASP license, you may not use, copy or di
   VRHFIN =Cu: d10 p1                                                           
   LEXCH  = PE                                                                  
   EATOM  =  4120.1201 eV,  302.8203 Ry                                         
                                                                                
   TITEL  = PAW_PBE Cu_pv 06Sep2000                                             
   LULTRA =        F    use ultrasoft PP ?                                      
   IUNSCR =        1    unscreen: 0-lin 1-nonlin 2-no                           
   RPACOR =    1.500    partial core radius                                     
   POMASS =   63.546; ZVAL   =   17.000    mass and valenz                      
   RCORE  =    2.000    outmost cutoff radius                                   
   RWIGS  =    2.000; RWIGS  =    1.058    wigner-seitz radius (au A)           
   ENMAX  =  368.648; ENMIN  =  276.486 eV                                      
   RCLOC  =    1.304    cutoff for local pot                                    
   LCOR   =        T    correct aug charges                                     
   LPAW   =        T    paw PP                                                  
   EAUG   =  758.233                                                            
   DEXC   =    0.000                                                            
   RMAX   =    2.046    core radius for proj-oper                               
   RAUG   =    1.300    factor for augmentation sphere                          
   RDEP   =    2.025    radius for radial grids                                 
   RDEPT  =    1.558    core radius for aug-charge                              
                                                                                
   Atomic configuration                                                         
    8 entries                                                                   
     n  l   j            E        occ.                                          
     1  0  0.50     -8850.2467   2.0000                                         
     2  0  0.50     -1062.3498   2.0000                                         
     2  1  1.50      -916.8226   6.0000                                         
     3  0  0.50      -114.6929   2.0000                                         
     3  1  1.50       -72.1325   6.0000                                         
     3  2  2.50        -5.0394  10.0000                                         
     4  0  0.50        -4.6097   1.0000                                         
     4  3  2.50        -1.3606   0.0000                                         
   Description                                                                  
     l       E           TYP  RCUT    TYP  RCUT                                 
     1    -72.1324777     23  1.700                                             
     1     -1.3605826     23  1.700                                             
     2     -5.0393776     23  2.000                                             
     2     -6.3999602     23  2.000                                             
     0     -4.6097062     23  1.800                                             
     0     14.1620818     23  1.800                                             
  local pseudopotential read in
  partial core-charges read in
  partial kinetic energy density read in
  atomic valenz-charges read in
  non local Contribution for L=           1  read in
    real space projection operators read in
  non local Contribution for L=           1  read in
    real space projection operators read in
  non local Contribution for L=           2  read in
    real space projection operators read in
  non local Contribution for L=           2  read in
    real space projection operators read in
  non local Contribution for L=           0  read in
    real space projection operators read in
  non local Contribution for L=           0  read in
    real space projection operators read in
    PAW grid and wavefunctions read in
 
   number of l-projection  operators is LMAX  =           6
   number of lm-projection operators is LMMAX =          18
 
 POTCAR:     PAW_PBE Fe_pv 02Aug2007              
   SHA256 =  5d22e414b1f82158bf2c7ecb8b97b28fd0923e48cadc1c3bf74d524558f5dd32 Fe
   COPYR  = (c) Copyright 02Aug2007 Georg Kresse                                
   COPYR  = This file is part of the software VASP. Any use, copying, and all ot
   COPYR  = If you do not have a valid VASP license, you may not use, copy or di
   VRHFIN =Fe:  3pd7s1                                                          
   LEXCH  = PE                                                                  
   EATOM  =  2457.4239 eV,  180.6156 Ry                                         
                                                                                
   TITEL  = PAW_PBE Fe_pv 02Aug2007                                             
   LULTRA =        F    use ultrasoft PP ?                                      
   IUNSCR =        1    unscreen: 0-lin 1-nonlin 2-no                           
   RPACOR =    1.750    partial core radius                                     
   POMASS =   55.847; ZVAL   =   14.000    mass and valenz                      
   RCORE  =    2.200    outmost cutoff radius                                   
   RWIGS  =    2.200; RWIGS  =    1.164    wigner-seitz radius (au A)           
   ENMAX  =  293.238; ENMIN  =  219.928 eV                                      
   ICORE  =        3    local potential                                         
   LCOR   =        T    correct aug charges                                     
   LPAW   =        T    paw PP                                                  
   EAUG   =  578.342                                                            
   DEXC   =    0.000                                                            
   RMAX   =    2.249    core radius for proj-oper                               
   RAUG   =    1.300    factor for augmentation sphere                          
   RDEP   =    2.296    radius for radial grids                                 
   RDEPT  =    1.766    core radius for aug-charge                              
                                                                                
   Atomic configuration                                                         
    8 entries                                                                   
     n  l   j            E        occ.                                          
     1  0  0.50     -6993.8440   2.0000                                         
     2  0  0.50      -814.6047   2.0000                                         
     2  1  1.50      -693.3689   6.0000                                         
     3  0  0.50       -89.4732   2.0000                                         
     3  1  1.50       -55.6373   6.0000                                         
     3  2  2.50        -3.8151   7.0000                                         
     4  0  0.50        -4.2551   1.0000                                         
     4  3  2.50        -1.3606   0.0000                                         
   Description                                                                  
     l       E           TYP  RCUT    TYP  RCUT                                 
     1    -55.6372668     23  2.000                                             
     1     -5.4423304     23  2.000                                             
     2     -3.8151096     23  2.200                                             
     2     -5.1756922     23  2.200                                             
     0     -4.2550951     23  2.200                                             
     0     27.2116520     23  2.200                                             
     3     -1.3605826     23  2.200                                             
  local pseudopotential read in
  partial core-charges read in
  partial kinetic energy density read in
  atomic valenz-charges read in
  non local Contribution for L=           1  read in
    real space projection operators read in
  non local Contribution for L=           1  read in
    real space projection operators read in
  non local Contribution for L=           2  read in
    real space projection operators read in
  non local Contribution for L=           2  read in
    real space projection operators read in
  non local Contribution for L=           0  read in
    real space projection operators read in
  non local Contribution for L=           0  read in
    real space projection operators read in
    PAW grid and wavefunctions read in
 
   number of l-projection  operators is LMAX  =           6
   number of lm-projection operators is LMMAX =          18
 

 ----------------------------------------------------------------------------- 
|                                                                             |
|  ADVICE TO THIS USER RUNNING 'VASP/VAMP'   (HEAR YOUR MASTER'S VOICE ...):  |
|                                                                             |
|      You have a (more or less) 'large supercell' and for larger cells       |
|      it might be more efficient to use real space projection opertators     |
|      So try LREAL= Auto  in the INCAR   file.                               |
|      Mind:          For very  accurate calculation you might also keep the  |
|      reciprocal projection scheme          (i.e. LREAL=.FALSE.)             |
|                                                                             |
 ----------------------------------------------------------------------------- 


 ----------------------------------------------------------------------------- 
|                                                                             |
|  ADVICE TO THIS USER RUNNING 'VASP/VAMP'   (HEAR YOUR MASTER'S VOICE ...):  |
|                                                                             |
|      You enforced a specific xc-type in the INCAR file,                     |
|      a different type was found on the POTCAR file                          |
|          I HOPE YOU KNOW, WHAT YOU ARE  DOING                               |
|                                                                             |
 ----------------------------------------------------------------------------- 

  PAW_PBE S 06Sep2000                   :
 energy of atom  1       EATOM= -276.8230
 kinetic energy error for atom=    0.0007 (will be added to EATOM!!)
   PAW_PBE Cu_pv 06Sep2000              :
 energy of atom  2       EATOM=-4120.1201
 kinetic energy error for atom=    0.0094 (will be added to EATOM!!)
   PAW_PBE Fe_pv 02Aug2007              :
 energy of atom  3       EATOM=-2457.4239
 kinetic energy error for atom=    0.0025 (will be added to EATOM!!)
 
 
 POSCAR: Fe16 Cu16 S32                           
  positions in direct lattice
  No initial velocities read in
 exchange correlation table for  LEXCH =       14
   RHO(1)=    0.500       N(1)  =     2000
   RHO(2)=  100.500       N(2)  =     4000
 


--------------------------------------------------------------------------------------------------------


 ion  position               nearest neighbor table
   1  0.126  0.125  0.123-  37 2.26  41 2.26  61 2.27  49 2.28
   2  0.626  0.125  0.123-  38 2.26  42 2.26  62 2.27  50 2.28
   3  0.126  0.625  0.123-  39 2.26  43 2.26  63 2.27  51 2.28
   4  0.626  0.625  0.123-  40 2.26  44 2.26  64 2.27  52 2.28
   5  0.374  0.375  0.123-  39 2.26  41 2.26  62 2.27  52 2.28
   6  0.874  0.375  0.123-  40 2.26  42 2.26  61 2.27  51 2.28
   7  0.374  0.875  0.123-  37 2.26  43 2.26  64 2.27  50 2.28
   8  0.874  0.875  0.123-  38 2.26  44 2.26  63 2.27  49 2.28
   9  0.125  0.374  0.873-  41 2.26  45 2.26  51 2.27  55 2.28
  10  0.625  0.374  0.873-  42 2.26  46 2.26  52 2.27  56 2.28
  11  0.125  0.874  0.873-  43 2.26  47 2.26  49 2.27  53 2.28
  12  0.625  0.874  0.873-  44 2.26  48 2.26  50 2.27  54 2.28
  13  0.375  0.126  0.873-  41 2.26  46 2.26  50 2.27  53 2.28
  14  0.875  0.126  0.873-  42 2.26  45 2.26  49 2.27  54 2.28
  15  0.375  0.626  0.873-  43 2.26  48 2.26  52 2.27  55 2.28
  16  0.875  0.626  0.873-  44 2.26  47 2.26  51 2.27  56 2.28
  17  0.124  0.125  0.623-  45 2.26  33 2.26  53 2.27  57 2.28
  18  0.624  0.125  0.623-  46 2.26  34 2.26  54 2.27  58 2.28
  19  0.124  0.625  0.623-  47 2.26  35 2.26  55 2.27  59 2.28
  20  0.624  0.625  0.623-  48 2.26  36 2.26  56 2.27  60 2.28
  21  0.376  0.375  0.623-  46 2.26  36 2.26  55 2.27  57 2.28
  22  0.876  0.375  0.623-  45 2.26  35 2.26  56 2.27  58 2.28
  23  0.376  0.875  0.623-  48 2.26  34 2.26  53 2.27  59 2.28
  24  0.876  0.875  0.623-  47 2.26  33 2.26  54 2.27  60 2.28
  25  0.375  0.124  0.373-  34 2.26  37 2.26  57 2.27  62 2.28
  26  0.875  0.124  0.373-  33 2.26  38 2.26  58 2.27  61 2.28
  27  0.375  0.624  0.373-  36 2.26  39 2.26  59 2.27  64 2.28
  28  0.875  0.624  0.373-  35 2.26  40 2.26  60 2.27  63 2.28
  29  0.125  0.376  0.373-  35 2.26  39 2.26  57 2.27  61 2.28
  30  0.625  0.376  0.373-  36 2.26  40 2.26  58 2.27  62 2.28
  31  0.125  0.876  0.373-  33 2.26  37 2.26  59 2.27  63 2.28
  32  0.625  0.876  0.373-  34 2.26  38 2.26  60 2.27  64 2.28
  33  0.000  0.000  0.501-  26 2.26  31 2.26  17 2.26  24 2.26
  34  0.500  0.000  0.501-  25 2.26  32 2.26  18 2.26  23 2.26
  35  0.000  0.500  0.501-  28 2.26  29 2.26  19 2.26  22 2.26
  36  0.500  0.500  0.501-  27 2.26  30 2.26  20 2.26  21 2.26
  37  0.250  0.000  0.251-   1 2.26   7 2.26  25 2.26  31 2.26
  38  0.750  0.000  0.251-   2 2.26   8 2.26  26 2.26  32 2.26
  39  0.250  0.500  0.251-   3 2.26   5 2.26  27 2.26  29 2.26
  40  0.750  0.500  0.251-   4 2.26   6 2.26  28 2.26  30 2.26
  41  0.250  0.250  0.001-   9 2.26  13 2.26   1 2.26   5 2.26
  42  0.750  0.250  0.001-  10 2.26  14 2.26   2 2.26   6 2.26
  43  0.250  0.750  0.001-  11 2.26  15 2.26   3 2.26   7 2.26
  44  0.750  0.750  0.001-  12 2.26  16 2.26   4 2.26   8 2.26
  45  0.000  0.250  0.751-  17 2.26  22 2.26   9 2.26  14 2.26
  46  0.500  0.250  0.751-  18 2.26  21 2.26  10 2.26  13 2.26
  47  0.000  0.750  0.751-  19 2.26  24 2.26  11 2.26  16 2.26
  48  0.500  0.750  0.751-  20 2.26  23 2.26  12 2.26  15 2.26
  49  0.000  0.000  0.002-  11 2.27  14 2.27   1 2.28   8 2.28
  50  0.500  0.000  0.002-  12 2.27  13 2.27   2 2.28   7 2.28
  51  0.000  0.500  0.002-   9 2.27  16 2.27   3 2.28   6 2.28
  52  0.500  0.500  0.002-  10 2.27  15 2.27   4 2.28   5 2.28
  53  0.250  0.000  0.752-  17 2.27  23 2.27  11 2.28  13 2.28
  54  0.750  0.000  0.752-  18 2.27  24 2.27  12 2.28  14 2.28
  55  0.250  0.500  0.752-  19 2.27  21 2.27   9 2.28  15 2.28
  56  0.750  0.500  0.752-  20 2.27  22 2.27  10 2.28  16 2.28
  57  0.250  0.250  0.502-  25 2.27  29 2.27  17 2.28  21 2.28
  58  0.750  0.250  0.502-  26 2.27  30 2.27  18 2.28  22 2.28
  59  0.250  0.750  0.502-  27 2.27  31 2.27  19 2.28  23 2.28
  60  0.750  0.750  0.502-  28 2.27  32 2.27  20 2.28  24 2.28
  61  0.000  0.250  0.252-   1 2.27   6 2.27  26 2.28  29 2.28
  62  0.500  0.250  0.252-   2 2.27   5 2.27  25 2.28  30 2.28
  63  0.000  0.750  0.252-   3 2.27   8 2.27  28 2.28  31 2.28
  64  0.500  0.750  0.252-   4 2.27   7 2.27  27 2.28  32 2.28
 
  LATTYP: Found a base centered orthorhombic cell.
 ALAT       =    14.6553381692
 B/A-ratio  =     1.0283017603
 C/A-ratio  =     0.7109236157
  
  Lattice vectors:
  
 A1 = (  10.5095330000,   0.1466440000,   0.0000000000)
 A2 = (  -0.1466440000, -10.5095330000,   0.0000000000)
 A3 = (   0.0000000000,   0.0000000000, -10.4188260000)


Analysis of symmetry for initial positions (statically):
=====================================================================
 Subroutine PRICEL returns following result:
 
  LATTYP: Found a face centered orthorhombic cell.
 ALAT       =     7.3276690846
 B/A-ratio  =     1.0283017603
 C/A-ratio  =     1.4218472313
  
  Lattice vectors:
  
 A1 = (  -2.6640442500,  -2.6640442500,   5.2094130000)
 A2 = (  -2.5907222500,   2.5907222500,   5.2094130000)
 A3 = (  -5.2547665000,  -0.0733220000,   0.0000000000)
 
   8 primitive cells build up your supercell.
 

 Routine SETGRP: Setting up the symmetry group for a 
 base centered orthorhombic supercell.


 Subroutine GETGRP returns: Found  4 space group operations
 (whereof  2 operations were pure point group operations)
 out of a pool of  8 trial point group operations.


The static configuration has the point symmetry C_2 .
 The point group associated with its full space group is C_2v.


Analysis of symmetry for dynamics (positions and initial velocities):
=====================================================================
 Subroutine PRICEL returns following result:
 
  LATTYP: Found a face centered orthorhombic cell.
 ALAT       =     7.3276690846
 B/A-ratio  =     1.0283017603
 C/A-ratio  =     1.4218472313
  
  Lattice vectors:
  
 A1 = (  -2.6640442500,  -2.6640442500,   5.2094130000)
 A2 = (  -2.5907222500,   2.5907222500,   5.2094130000)
 A3 = (  -5.2547665000,  -0.0733220000,   0.0000000000)
 
   8 primitive cells build up your supercell.
 

 Routine SETGRP: Setting up the symmetry group for a 
 base centered orthorhombic supercell.


 Subroutine GETGRP returns: Found  4 space group operations
 (whereof  2 operations were pure point group operations)
 out of a pool of  8 trial point group operations.


The dynamic configuration has the point symmetry C_2 .
 The point group associated with its full space group is C_2v.


Analysis of structural, dynamic, and magnetic symmetry:
=====================================================================
 Subroutine PRICEL returns following result:
 
  LATTYP: Found a face centered orthorhombic cell.
 ALAT       =     7.3276690846
 B/A-ratio  =     1.0283017603
 C/A-ratio  =     1.4218472313
  
  Lattice vectors:
  
 A1 = (  -2.6640442500,  -2.6640442500,   5.2094130000)
 A2 = (  -2.5907222500,   2.5907222500,   5.2094130000)
 A3 = (  -5.2547665000,  -0.0733220000,   0.0000000000)
 
   8 primitive cells build up your supercell.
 

 Routine SETGRP: Setting up the symmetry group for a 
 base centered orthorhombic supercell.


 Subroutine GETGRP returns: Found  4 space group operations
 (whereof  2 operations were pure point group operations)
 out of a pool of  8 trial point group operations.


The magnetic configuration has the point symmetry C_2 .
 The point group associated with its full space group is C_2v.


 Subroutine INISYM returns: Found  4 space group operations
 (whereof  2 operations are pure point group operations),
 and found     8 'primitive' translations

 
 
 KPOINTS: Automatic mesh                          

Automatic generation of k-mesh.
Space group operators:
 irot       det(A)        alpha          n_x          n_y          n_z        tau_x        tau_y        tau_z
    1     1.000000     0.000000     1.000000     0.000000     0.000000     0.000000     0.000000     0.000000
    2     1.000000   180.000000     0.000000     0.000000     1.000000     0.000000     0.000000     0.000000
    3    -1.000000   180.000000     0.707107     0.707107     0.000000    -0.750000    -0.000000     0.750000
    4    -1.000000   180.000000     0.707107    -0.707107     0.000000    -0.750000    -0.000000     0.750000
 
 Subroutine IBZKPT returns following result:
 ===========================================
 
 Found      6 irreducible k-points:
 
 Following reciprocal coordinates:
            Coordinates               Weight
  0.000000  0.000000  0.000000      1.000000
  0.500000  0.000000  0.000000      2.000000
  0.500000  0.500000  0.000000      1.000000
  0.000000  0.000000  0.500000      1.000000
  0.500000  0.000000  0.500000      2.000000
  0.500000  0.500000  0.500000      1.000000
 
 Following cartesian coordinates:
            Coordinates               Weight
  0.000000  0.000000  0.000000      1.000000
  0.047585 -0.000664  0.000000      2.000000
  0.046921  0.046921  0.000000      1.000000
  0.000000  0.000000  0.047990      1.000000
  0.047585 -0.000664  0.047990      2.000000
  0.046921  0.046921  0.047990      1.000000
 
 TETIRR: Found     12 inequivalent tetrahedra from       48
 
 Subroutine IBZKPT_HF returns following result:
 ==============================================
 
 Found      8 k-points in 1st BZ
 the following      8 k-points will be used (e.g. in the exchange kernel)
 Following reciprocal coordinates:   # in IRBZ
  0.000000  0.000000  0.000000    0.12500000   1 t-inv F
  0.500000  0.000000  0.000000    0.12500000   2 t-inv F
  0.500000  0.500000  0.000000    0.12500000   3 t-inv F
  0.000000  0.000000  0.500000    0.12500000   4 t-inv F
  0.500000  0.000000  0.500000    0.12500000   5 t-inv F
  0.500000  0.500000  0.500000    0.12500000   6 t-inv F
  0.000000 -0.500000  0.000000    0.12500000   2 t-inv F spinflp
  0.000000 -0.500000  0.500000    0.12500000   5 t-inv F spinflp


--------------------------------------------------------------------------------------------------------




 Dimension of arrays:
   k-points           NKPTS =      6   k-points in BZ     NKDIM =      6   number of bands    NBANDS=    512
   number of dos      NEDOS =    301   number of ions     NIONS =     64
   non local maximal  LDIM  =      6   non local SUM 2l+1 LMDIM =     18
   total plane-waves  NPLWV = 829440
   max r-space proj   IRMAX =      1   max aug-charges    IRDMAX=  22909
   dimension x,y,z NGX =    96 NGY =   96 NGZ =   90
   dimension x,y,z NGXF=   192 NGYF=  192 NGZF=  180
   support grid    NGXF=   192 NGYF=  192 NGZF=  180
   ions per type =              32  16  16
   NGX,Y,Z   is equivalent  to a cutoff of  15.18, 15.18, 14.36 a.u.
   NGXF,Y,Z  is equivalent  to a cutoff of  30.37, 30.37, 28.72 a.u.

 SYSTEM =  CuFeS2                                  
 POSCAR =  Fe16 Cu16 S32                           

 Startparameter for this run:
   NWRITE =      2    write-flag & timer
   PREC   = accura    normal or accurate (medium, high low for compatibility)
   ISTART =      1    job   : 0-new  1-cont  2-samecut
   ICHARG =      1    charge: 1-file 2-atom 10-const
   ISPIN  =      2    spin polarized calculation?
   LNONCOLLINEAR =      F non collinear calculations
   LSORBIT =      F    spin-orbit coupling
   INIWAV =      1    electr: 0-lowe 1-rand  2-diag
   LASPH  =      F    aspherical Exc in radial PAW
   METAGGA=      F    non-selfconsistent MetaGGA calc.

 Electronic Relaxation 1
   ENCUT  =  700.0 eV  51.45 Ry    7.17 a.u.  22.67 22.67 22.48*2*pi/ulx,y,z
   ENINI  =  700.0     initial cutoff
   ENAUG  =  758.2 eV  augmentation charge cutoff
   NELM   =    500;   NELMIN=  2; NELMDL=  0     # of ELM steps 
   EDIFF  = 0.1E-07   stopping-criterion for ELM
   LREAL  =      F    real-space projection
   NLSPLINE    = F    spline interpolate recip. space projectors
   LCOMPAT=      F    compatible to vasp.4.4
   GGA_COMPAT  = T    GGA compatible to vasp.4.4-vasp.4.6
   LMAXPAW     = -100 max onsite density
   LMAXMIX     =    4 max onsite mixed and CHGCAR
   VOSKOWN=      0    Vosko Wilk Nusair interpolation
   ROPT   =    0.00000   0.00000   0.00000
 Ionic relaxation
   EDIFFG = -.1E-04   stopping-criterion for IOM
   NSW    =      0    number of steps for IOM
   NBLOCK =      1;   KBLOCK =      1    inner block; outer block 
   IBRION =     -1    ionic relax: 0-MD 1-quasi-New 2-CG
   NFREE  =      0    steps in history (QN), initial steepest desc. (CG)
   ISIF   =      2    stress and relaxation
   IWAVPR =     10    prediction:  0-non 1-charg 2-wave 3-comb
   ISYM   =      2    0-nonsym 1-usesym 2-fastsym
   LCORR  =      T    Harris-Foulkes like correction to forces

   POTIM  = 0.5000    time-step for ionic-motion
   TEIN   =    0.0    initial temperature
   TEBEG  =    0.0;   TEEND  =   0.0 temperature during run
   SMASS  =  -3.00    Nose mass-parameter (am)
   estimated Nose-frequenzy (Omega)   =  0.10E-29 period in steps =****** mass=  -0.252E-26a.u.
   SCALEE = 1.0000    scale energy and forces
   NPACO  =    256;   APACO  = 16.0  distance and # of slots for P.C.
   PSTRESS=    0.0 pullay stress

  Mass of Ions in am
   POMASS =  32.07 63.55 55.85
  Ionic Valenz
   ZVAL   =   6.00 17.00 14.00
  Atomic Wigner-Seitz radii
   RWIGS  =  -1.00 -1.00 -1.00
  virtual crystal weights 
   VCA    =   1.00  1.00  1.00
   NELECT =     688.0000    total number of electrons
   NUPDOWN=      -1.0000    fix difference up-down

 DOS related values:
   EMIN   =  10.00;   EMAX   =-10.00  energy-range for DOS
   EFERMI =   0.00
   ISMEAR =    -5;   SIGMA  =   0.03  broadening in eV -4-tet -1-fermi 0-gaus

 Electronic relaxation 2 (details)
   IALGO  =     38    algorithm
   LDIAG  =      T    sub-space diagonalisation (order eigenvalues)
   LSUBROT=      F    optimize rotation matrix (better conditioning)
   TURBO    =      0    0=normal 1=particle mesh
   IRESTART =      0    0=no restart 2=restart with 2 vectors
   NREBOOT  =      0    no. of reboots
   NMIN     =      0    reboot dimension
   EREF     =   0.00    reference energy to select bands
   IMIX   =      4    mixing-type and parameters
     AMIX     =   0.40;   BMIX     =  1.00
     AMIX_MAG =   1.60;   BMIX_MAG =  1.00
     AMIN     =   0.10
     WC   =   100.;   INIMIX=   1;  MIXPRE=   1;  MAXMIX= -45

 Intra band minimization:
   WEIMIN = 0.0000     energy-eigenvalue tresh-hold
   EBREAK =  0.49E-11  absolut break condition
   DEPER  =   0.30     relativ break condition  

   TIME   =   0.40     timestep for ELM

  volume/ion in A,a.u.               =      17.98       121.32
  Fermi-wavevector in a.u.,A,eV,Ry     =   1.379232  2.606370 25.882099  1.902281
  Thomas-Fermi vector in A             =   2.504220
 
 Write flags
   LWAVE        =      T    write WAVECAR
   LDOWNSAMPLE  =      F    k-point downsampling of WAVECAR
   LCHARG       =      T    write CHGCAR
   LVTOT        =      F    write LOCPOT, total local potential
   LVHAR        =      F    write LOCPOT, Hartree potential only
   LELF         =      F    write electronic localiz. function (ELF)
   LORBIT       =     11    0 simple, 1 ext, 2 COOP (PROOUT), +10 PAW based schemes


 Dipole corrections
   LMONO  =      F    monopole corrections only (constant potential shift)
   LDIPOL =      F    correct potential (dipole corrections)
   IDIPOL =      0    1-x, 2-y, 3-z, 4-all directions 
   EPSILON=  1.0000000 bulk dielectric constant

 LDA+U is selected, type is set to LDAUTYPE =  2
   angular momentum for each species LDAUL =     2    2    2
   U (eV)           for each species LDAUU =   0.0  0.1  4.7
   J (eV)           for each species LDAUJ =   0.0  0.0  0.0
 Exchange correlation treatment:
   GGA     =    PS    GGA type
   LEXCH   =    14    internal setting for exchange type
   VOSKOWN=      0    Vosko Wilk Nusair interpolation
   LHFCALC =     F    Hartree Fock is set to
   LHFONE  =     F    Hartree Fock one center treatment
   AEXX    =    0.0000 exact exchange contribution

 Linear response parameters
   LEPSILON=     F    determine dielectric tensor
   LRPA    =     F    only Hartree local field effects (RPA)
   LNABLA  =     F    use nabla operator in PAW spheres
   LVEL    =     F    velocity operator in full k-point grid
   LINTERFAST=   F  fast interpolation
   KINTER  =     0    interpolate to denser k-point grid
   CSHIFT  =0.1000    complex shift for real part using Kramers Kronig
   OMEGAMAX=  -1.0    maximum frequency
   DEG_THRESHOLD= 0.2000000E-02 threshold for treating states as degnerate
   RTIME   =   -0.100 relaxation time in fs
  (WPLASMAI=    0.000 imaginary part of plasma frequency in eV, 0.658/RTIME)
   DFIELD  = 0.0000000 0.0000000 0.0000000 field for delta impulse in time
 
 Orbital magnetization related:
   ORBITALMAG=     F  switch on orbital magnetization
   LCHIMAG   =     F  perturbation theory with respect to B field
   DQ        =  0.001000  dq finite difference perturbation B field
   LLRAUG    =     F  two centre corrections for induced B field

 PEAD related settings:
   LPEAD      =     T    switch on PEAD
   IPEAD      =     4    finite difference order for dpsi/dk
   LCALCPOL   =     T    calculate macroscopic polarization
   LCALCEPS   =     F    calculate dielectric tensor
   EFIELD_PEAD=    0.0000    0.0000    0.0000
   SKIP_EDOTP =     F
   LRPA       =     F
   SKIP_SCF   =     F


--------------------------------------------------------------------------------------------------------


 Static calculation
 charge density and potential will be updated during run
 spin polarized calculation
 Variant of blocked Davidson
 Davidson routine will perform the subspace rotation
 perform sub-space diagonalisation
    after iterative eigenvector-optimisation
 modified Broyden-mixing scheme, WC =      100.0
 initial mixing is a Kerker type mixing with AMIX =  0.4000 and BMIX =      1.0000
 Hartree-type preconditioning will be used
 using additional bands          168
 reciprocal scheme for non local part
 use partial core corrections
 calculate Harris-corrections to forces 
   (improved forces if not selfconsistent)
 use gradient corrections 
 use of overlap-Matrix (Vanderbilt PP)
 Fermi weights with tetrahedron method with Bloechl corrections


--------------------------------------------------------------------------------------------------------


  energy-cutoff  :      700.00
  volume of cell :     1150.54
      direct lattice vectors                 reciprocal lattice vectors
    10.509533000  0.146644000  0.000000000     0.095170236 -0.001327951  0.000000000
     0.146644000 10.509533000  0.000000000    -0.001327951  0.095170236  0.000000000
     0.000000000  0.000000000 10.418826000     0.000000000  0.000000000  0.095980104

  length of vectors
    10.510556043 10.510556043 10.418826000     0.095179500  0.095179500  0.095980104


 
 old parameters found on file WAVECAR:
  energy-cutoff  :      700.00
  volume of cell :     1150.54
      direct lattice vectors                 reciprocal lattice vectors
    10.509533000  0.146644000  0.000000000     0.095170236 -0.001327951  0.000000000
     0.146644000 10.509533000  0.000000000    -0.001327951  0.095170236  0.000000000
     0.000000000  0.000000000 10.418826000     0.000000000  0.000000000  0.095980104

  length of vectors

 
 k-points in units of 2pi/SCALE and weight: Automatic mesh                          
   0.00000000  0.00000000  0.00000000       0.125
   0.04758512 -0.00066398  0.00000000       0.250
   0.04692114  0.04692114  0.00000000       0.125
   0.00000000  0.00000000  0.04799005       0.125
   0.04758512 -0.00066398  0.04799005       0.250
   0.04692114  0.04692114  0.04799005       0.125
 
 k-points in reciprocal lattice and weights: Automatic mesh                          
   0.00000000  0.00000000  0.00000000       0.125
   0.50000000  0.00000000  0.00000000       0.250
   0.50000000  0.50000000  0.00000000       0.125
   0.00000000  0.00000000  0.50000000       0.125
   0.50000000  0.00000000  0.50000000       0.250
   0.50000000  0.50000000  0.50000000       0.125
 
 position of ions in fractional coordinates (direct lattice) 
   0.12615400  0.12517300  0.12344200
   0.62615400  0.12517300  0.12344200
   0.12615400  0.62517300  0.12344200
   0.62615400  0.62517300  0.12344200
   0.37384600  0.37482700  0.12344200
   0.87384600  0.37482700  0.12344200
   0.37384600  0.87482700  0.12344200
   0.87384600  0.87482700  0.12344200
   0.12482700  0.37384600  0.87344200
   0.62482700  0.37384600  0.87344200
   0.12482700  0.87384600  0.87344200
   0.62482700  0.87384600  0.87344200
   0.37517300  0.12615400  0.87344200
   0.87517300  0.12615400  0.87344200
   0.37517300  0.62615400  0.87344200
   0.87517300  0.62615400  0.87344200
   0.12384600  0.12482700  0.62344200
   0.62384600  0.12482700  0.62344200
   0.12384600  0.62482700  0.62344200
   0.62384600  0.62482700  0.62344200
   0.37615400  0.37517300  0.62344200
   0.87615400  0.37517300  0.62344200
   0.37615400  0.87517300  0.62344200
   0.87615400  0.87517300  0.62344200
   0.37482700  0.12384600  0.37344200
   0.87482700  0.12384600  0.37344200
   0.37482700  0.62384600  0.37344200
   0.87482700  0.62384600  0.37344200
   0.12517300  0.37615400  0.37344200
   0.62517300  0.37615400  0.37344200
   0.12517300  0.87615400  0.37344200
   0.62517300  0.87615400  0.37344200
   0.00000000  0.00000000  0.50132900
   0.50000000  0.00000000  0.50132900
   0.00000000  0.50000000  0.50132900
   0.50000000  0.50000000  0.50132900
   0.25000000  0.00000000  0.25132900
   0.75000000  0.00000000  0.25132900
   0.25000000  0.50000000  0.25132900
   0.75000000  0.50000000  0.25132900
   0.25000000  0.25000000  0.00132900
   0.75000000  0.25000000  0.00132900
   0.25000000  0.75000000  0.00132900
   0.75000000  0.75000000  0.00132900
   0.00000000  0.25000000  0.75132900
   0.50000000  0.25000000  0.75132900
   0.00000000  0.75000000  0.75132900
   0.50000000  0.75000000  0.75132900
   0.00000000  0.00000000  0.00178800
   0.50000000  0.00000000  0.00178800
   0.00000000  0.50000000  0.00178800
   0.50000000  0.50000000  0.00178800
   0.25000000  0.00000000  0.75178800
   0.75000000  0.00000000  0.75178800
   0.25000000  0.50000000  0.75178800
   0.75000000  0.50000000  0.75178800
   0.25000000  0.25000000  0.50178800
   0.75000000  0.25000000  0.50178800
   0.25000000  0.75000000  0.50178800
   0.75000000  0.75000000  0.50178800
   0.00000000  0.25000000  0.25178800
   0.50000000  0.25000000  0.25178800
   0.00000000  0.75000000  0.25178800
   0.50000000  0.75000000  0.25178800
 
 position of ions in cartesian coordinates  (Angst):
   1.34417550  1.33400950  1.28612072
   6.59894200  1.40733150  1.28612072
   1.41749750  6.58877600  1.28612072
   6.67226400  6.66209800  1.28612072
   3.98391300  3.99407900  1.28612072
   9.23867950  4.06740100  1.28612072
   4.05723500  9.24884550  1.28612072
   9.31200150  9.32216750  1.28612072
   1.36669575  3.94725200  9.10024022
   6.62146225  4.02057400  9.10024022
   1.44001775  9.20201850  9.10024022
   6.69478425  9.27534050  9.10024022
   3.96139275  1.38083650  9.10024022
   9.21615925  1.45415850  9.10024022
   4.03471475  6.63560300  9.10024022
   9.28948125  6.70892500  9.10024022
   1.31986875  1.33003475  6.49553372
   6.57463525  1.40335675  6.49553372
   1.39319075  6.58480125  6.49553372
   6.64795725  6.65812325  6.49553372
   4.00821975  3.99805375  6.49553372
   9.26298625  4.07137575  6.49553372
   4.08154175  9.25282025  6.49553372
   9.33630825  9.32614225  6.49553372
   3.95741800  1.35652975  3.89082722
   9.21218450  1.42985175  3.89082722
   4.03074000  6.61129625  3.89082722
   9.28550650  6.68461825  3.89082722
   1.37067050  3.97155875  3.89082722
   6.62543700  4.04488075  3.89082722
   1.44399250  9.22632525  3.89082722
   6.69875900  9.29964725  3.89082722
   0.00000000  0.00000000  5.22325962
   5.25476650  0.07332200  5.22325962
   0.07332200  5.25476650  5.22325962
   5.32808850  5.32808850  5.22325962
   2.62738325  0.03666100  2.61855312
   7.88214975  0.10998300  2.61855312
   2.70070525  5.29142750  2.61855312
   7.95547175  5.36474950  2.61855312
   2.66404425  2.66404425  0.01384662
   7.91881075  2.73736625  0.01384662
   2.73736625  7.91881075  0.01384662
   7.99213275  7.99213275  0.01384662
   0.03666100  2.62738325  7.82796612
   5.29142750  2.70070525  7.82796612
   0.10998300  7.88214975  7.82796612
   5.36474950  7.95547175  7.82796612
   0.00000000  0.00000000  0.01862886
   5.25476650  0.07332200  0.01862886
   0.07332200  5.25476650  0.01862886
   5.32808850  5.32808850  0.01862886
   2.62738325  0.03666100  7.83274836
   7.88214975  0.10998300  7.83274836
   2.70070525  5.29142750  7.83274836
   7.95547175  5.36474950  7.83274836
   2.66404425  2.66404425  5.22804186
   7.91881075  2.73736625  5.22804186
   2.73736625  7.91881075  5.22804186
   7.99213275  7.99213275  5.22804186
   0.03666100  2.62738325  2.62333536
   5.29142750  2.70070525  2.62333536
   0.10998300  7.88214975  2.62333536
   5.36474950  7.95547175  2.62333536
 


--------------------------------------------------------------------------------------------------------


 k-point  1 :   0.0000 0.0000 0.0000  plane waves:   48391
 k-point  2 :   0.5000 0.0000 0.0000  plane waves:   48366
 k-point  3 :   0.5000 0.5000 0.0000  plane waves:   48472
 k-point  4 :   0.0000 0.0000 0.5000  plane waves:   48384
 k-point  5 :   0.5000 0.0000 0.5000  plane waves:   48364
 k-point  6 :   0.5000 0.5000 0.5000  plane waves:   48292

 maximum and minimum number of plane-waves per node :     48472    48292

 maximum number of plane-waves:     48472
 maximum index in each direction: 
   IXMAX=   22   IYMAX=   22   IZMAX=   22
   IXMIN=  -23   IYMIN=  -23   IZMIN=  -22


 serial   3D FFT for wavefunctions
 parallel 3D FFT for charge:
    minimum data exchange during FFTs selected (reduces bandwidth)


 total amount of memory used by VASP MPI-rank0   301249. kBytes
=======================================================================

   base      :      30000. kBytes
   nonl-proj :     175882. kBytes
   fftplans  :       4588. kBytes
   grid      :      69719. kBytes
   one-center:       1990. kBytes
   wavefun   :      19070. kBytes
 
     INWAV:  cpu time   11.6697: real time   11.8354
 Broyden mixing: mesh for mixing (old mesh)
   NGX = 45   NGY = 45   NGZ = 45
  (NGX  =192   NGY  =192   NGZ  =180)
  gives a total of  91125 points

 initial charge density was supplied:
 number of electron     688.0000461 magnetization      -0.0000000
 keeping initial charge density in first step


--------------------------------------------------------------------------------------------------------


 Maximum index for augmentation-charges          899 (set IRDMAX)


--------------------------------------------------------------------------------------------------------


 First call to EWALD:  gamma=   0.169
 Maximum number of real-space cells 3x 3x 3
 Maximum number of reciprocal cells 3x 3x 3

    FEWALD:  cpu time    0.0027: real time    0.0027


--------------------------------------- Iteration      1(   1)  ---------------------------------------


    POTLOK:  cpu time    0.3573: real time    0.4200
    SETDIJ:  cpu time    0.0148: real time    0.0150
     EDDAV:  cpu time  143.8336: real time  144.9937
 BZINTS: Fermi energy:  4.975075;688.000000 electrons
         Band energy:***********;  BLOECHL correction:  0.000000
       DOS:  cpu time    0.0034: real time    0.0034
    CHARGE:  cpu time    1.2390: real time    1.2466
    MIXING:  cpu time    0.0029: real time    0.0030
    --------------------------------------------
      LOOP:  cpu time  145.4511: real time  146.6817

 eigenvalue-minimisations  : 19456
 total energy-change (2. order) :-0.3053084E+03  (-0.1326533E+03)
 number of electron     688.0000462 magnetization      -0.0000000
 augmentation part      282.9103756 magnetization      -0.0000000

 Broyden mixing:
  rms(total) = 0.30956E+01    rms(broyden)= 0.30956E+01
  rms(prec ) = 0.30963E+01
  weight for this iteration     100.00

 Free energy of the ion-electron system (eV)
  ---------------------------------------------------
  alpha Z        PSCENC =      2356.41933059
  Ewald energy   TEWEN  =    -62473.26486964
  -Hartree energ DENC   =    -42949.86304391
  -exchange      EXHF   =         0.00000000
  -V(xc)+E(xc)   XCENC  =      3286.51723211
  PAW double counting   =    112277.65968235  -115971.61613252
  entropy T*S    EENTRO =         0.00000000
  eigenvalues    EBANDS =    -10851.22567204
  atomic energy  EATOM  =    114020.06510763
  Solvation  Ediel_sol  =         0.00000000
  ---------------------------------------------------
  free energy    TOTEN  =      -305.30836542 eV

  energy without entropy =     -305.30836542  energy(sigma->0) =     -305.30836542


--------------------------------------------------------------------------------------------------------




--------------------------------------- Iteration      1(   2)  ---------------------------------------


    POTLOK:  cpu time    0.1459: real time    0.1506
    SETDIJ:  cpu time    0.0132: real time    0.0132
     EDDAV:  cpu time   64.9407: real time   65.4336
 BZINTS: Fermi energy:  4.938649;688.000000 electrons
         Band energy:***********;  BLOECHL correction:  0.000000
       DOS:  cpu time    0.0027: real time    0.0027
    CHARGE:  cpu time    1.2406: real time    1.2478
    MIXING:  cpu time    0.0033: real time    0.0315
    --------------------------------------------
      LOOP:  cpu time   66.3463: real time   66.8795

 eigenvalue-minimisations  : 12288
 total energy-change (2. order) :-0.2244782E+02  (-0.2247942E+02)
 number of electron     688.0000460 magnetization      -0.0000000
 augmentation part      281.7180624 magnetization      -0.0000000

 Broyden mixing:
  rms(total) = 0.12596E+01    rms(broyden)= 0.12596E+01
  rms(prec ) = 0.12655E+01
  weight for this iteration     100.00

 eigenvalues of (default mixing * dielectric matrix)
  average eigenvalue GAMMA=   0.7022
  0.7022

 Free energy of the ion-electron system (eV)
  ---------------------------------------------------
  alpha Z        PSCENC =      2356.41933059
  Ewald energy   TEWEN  =    -62473.26486964
  -Hartree energ DENC   =    -42964.76013992
  -exchange      EXHF   =         0.00000000
  -V(xc)+E(xc)   XCENC  =      3287.15130683
  PAW double counting   =    114927.39255053  -118633.94198473
  entropy T*S    EENTRO =         0.00000000
  eigenvalues    EBANDS =    -10846.81748594
  atomic energy  EATOM  =    114020.06510763
  Solvation  Ediel_sol  =         0.00000000
  ---------------------------------------------------
  free energy    TOTEN  =      -327.75618465 eV

  energy without entropy =     -327.75618465  energy(sigma->0) =     -327.75618465


--------------------------------------------------------------------------------------------------------




--------------------------------------- Iteration      1(   3)  ---------------------------------------


    POTLOK:  cpu time    0.1475: real time    0.1484
    SETDIJ:  cpu time    0.0132: real time    0.0132
     EDDAV:  cpu time  145.0621: real time  146.0276
 BZINTS: Fermi energy:  4.854102;688.000000 electrons
         Band energy:***********;  BLOECHL correction:  0.000000
       DOS:  cpu time    0.0027: real time    0.0027
    CHARGE:  cpu time    1.2367: real time    1.2442
    MIXING:  cpu time    0.0016: real time    0.0026
    --------------------------------------------
      LOOP:  cpu time  146.4638: real time  147.4389

 eigenvalue-minimisations  : 19712
 total energy-change (2. order) :-0.2847044E+00  (-0.3485489E+00)
 number of electron     688.0000461 magnetization      -0.0000000
 augmentation part      282.2702407 magnetization      -0.0000000

 Broyden mixing:
  rms(total) = 0.92326E+00    rms(broyden)= 0.92326E+00
  rms(prec ) = 0.92701E+00
  weight for this iteration     100.00

 eigenvalues of (default mixing * dielectric matrix)
  average eigenvalue GAMMA=   0.5202
  0.5202  0.5202

 Free energy of the ion-electron system (eV)
  ---------------------------------------------------
  alpha Z        PSCENC =      2356.41933059
  Ewald energy   TEWEN  =    -62473.26486964
  -Hartree energ DENC   =    -42937.74698978
  -exchange      EXHF   =         0.00000000
  -V(xc)+E(xc)   XCENC  =      3286.50257277
  PAW double counting   =    114201.04280389  -117900.71345465
  entropy T*S    EENTRO =         0.00000000
  eigenvalues    EBANDS =    -10880.34538985
  atomic energy  EATOM  =    114020.06510763
  Solvation  Ediel_sol  =         0.00000000
  ---------------------------------------------------
  free energy    TOTEN  =      -328.04088904 eV

  energy without entropy =     -328.04088904  energy(sigma->0) =     -328.04088904


--------------------------------------------------------------------------------------------------------




--------------------------------------- Iteration      1(   4)  ---------------------------------------


    POTLOK:  cpu time    0.1486: real time    0.1495
    SETDIJ:  cpu time    0.0131: real time    0.0131
     EDDAV:  cpu time   97.0624: real time   97.7421
 BZINTS: Fermi energy:  4.847203;688.000000 electrons
         Band energy:***********;  BLOECHL correction:  0.000000
       DOS:  cpu time    0.0028: real time    0.0028
    CHARGE:  cpu time    1.2378: real time    1.2452
    MIXING:  cpu time    0.0020: real time    0.0027
    --------------------------------------------
      LOOP:  cpu time   98.4665: real time   99.1553

 eigenvalue-minimisations  : 15104
 total energy-change (2. order) :-0.1520321E-02  (-0.1539195E-01)
 number of electron     688.0000460 magnetization      -0.0000000
 augmentation part      282.1775763 magnetization      -0.0000000

 Broyden mixing:
  rms(total) = 0.79733E+00    rms(broyden)= 0.79733E+00
  rms(prec ) = 0.79773E+00
  weight for this iteration     100.00

 eigenvalues of (default mixing * dielectric matrix)
  average eigenvalue GAMMA=   0.5398
  0.6293  0.6293  0.3610

 Free energy of the ion-electron system (eV)
  ---------------------------------------------------
  alpha Z        PSCENC =      2356.41933059
  Ewald energy   TEWEN  =    -62473.26486964
  -Hartree energ DENC   =    -42941.05198765
  -exchange      EXHF   =         0.00000000
  -V(xc)+E(xc)   XCENC  =      3286.40307547
  PAW double counting   =    113964.48009200  -117664.38860376
  entropy T*S    EENTRO =         0.00000000
  eigenvalues    EBANDS =    -10876.70455400
  atomic energy  EATOM  =    114020.06510763
  Solvation  Ediel_sol  =         0.00000000
  ---------------------------------------------------
  free energy    TOTEN  =      -328.04240936 eV

  energy without entropy =     -328.04240936  energy(sigma->0) =     -328.04240936


--------------------------------------------------------------------------------------------------------




--------------------------------------- Iteration      1(   5)  ---------------------------------------


    POTLOK:  cpu time    0.1488: real time    0.1498
    SETDIJ:  cpu time    0.0131: real time    0.0132
     EDDAV:  cpu time   89.4460: real time   90.0818
 BZINTS: Fermi energy:  4.850079;688.000000 electrons
         Band energy:***********;  BLOECHL correction:  0.000000
       DOS:  cpu time    0.0028: real time    0.0028
    CHARGE:  cpu time    1.2516: real time    1.2593
    MIXING:  cpu time    0.0017: real time    0.0018
    --------------------------------------------
      LOOP:  cpu time   90.8640: real time   91.5086

 eigenvalue-minimisations  : 14592
 total energy-change (2. order) :-0.1503977E-04  (-0.1284483E-02)
 number of electron     688.0000460 magnetization      -0.0000000
 augmentation part      282.1488372 magnetization      -0.0000000

 Broyden mixing:
  rms(total) = 0.69426E+00    rms(broyden)= 0.69426E+00
  rms(prec ) = 0.69443E+00
  weight for this iteration     100.00

 eigenvalues of (default mixing * dielectric matrix)
  average eigenvalue GAMMA=   0.4365
  0.6396  0.6396  0.3572  0.1096

 Free energy of the ion-electron system (eV)
  ---------------------------------------------------
  alpha Z        PSCENC =      2356.41933059
  Ewald energy   TEWEN  =    -62473.26486964
  -Hartree energ DENC   =    -42945.58196795
  -exchange      EXHF   =         0.00000000
  -V(xc)+E(xc)   XCENC  =      3286.51698427
  PAW double counting   =    113731.14366569  -117430.54285899
  entropy T*S    EENTRO =         0.00000000
  eigenvalues    EBANDS =    -10872.79781601
  atomic energy  EATOM  =    114020.06510763
  Solvation  Ediel_sol  =         0.00000000
  ---------------------------------------------------
  free energy    TOTEN  =      -328.04242440 eV

  energy without entropy =     -328.04242440  energy(sigma->0) =     -328.04242440


--------------------------------------------------------------------------------------------------------




--------------------------------------- Iteration      1(   6)  ---------------------------------------


    POTLOK:  cpu time    0.1500: real time    0.1511
    SETDIJ:  cpu time    0.0130: real time    0.0130
     EDDAV:  cpu time  118.8730: real time  119.6707
 BZINTS: Fermi energy:  4.849608;688.000000 electrons
         Band energy:***********;  BLOECHL correction:  0.000000
       DOS:  cpu time    0.0028: real time    0.0028
    CHARGE:  cpu time    1.4560: real time    1.4639
    MIXING:  cpu time    0.0021: real time    0.0021
    --------------------------------------------
      LOOP:  cpu time  120.4969: real time  121.3036

 eigenvalue-minimisations  : 16640
 total energy-change (2. order) : 0.2264749E-03  (-0.6019993E-04)
 number of electron     688.0000460 magnetization       0.0000000
 augmentation part      282.1471515 magnetization       0.0000000

 Broyden mixing:
  rms(total) = 0.64170E+00    rms(broyden)= 0.64170E+00
  rms(prec ) = 0.64186E+00
  weight for this iteration     100.00

 eigenvalues of (default mixing * dielectric matrix)
  average eigenvalue GAMMA=   0.5772
  0.7652  0.7652  0.5079  0.5079  0.3398

 Free energy of the ion-electron system (eV)
  ---------------------------------------------------
  alpha Z        PSCENC =      2356.41933059
  Ewald energy   TEWEN  =    -62473.26486964
  -Hartree energ DENC   =    -42946.04264803
  -exchange      EXHF   =         0.00000000
  -V(xc)+E(xc)   XCENC  =      3286.51179615
  PAW double counting   =    113614.74039385  -117313.67442134
  entropy T*S    EENTRO =         0.00000000
  eigenvalues    EBANDS =    -10872.79688714
  atomic energy  EATOM  =    114020.06510763
  Solvation  Ediel_sol  =         0.00000000
  ---------------------------------------------------
  free energy    TOTEN  =      -328.04219792 eV

  energy without entropy =     -328.04219792  energy(sigma->0) =     -328.04219792


--------------------------------------------------------------------------------------------------------




--------------------------------------- Iteration      1(   7)  ---------------------------------------


    POTLOK:  cpu time    0.1598: real time    0.1628
    SETDIJ:  cpu time    0.0137: real time    0.0137
     EDDAV:  cpu time  127.7223: real time  128.5764
 BZINTS: Fermi energy:  4.849232;688.000000 electrons
         Band energy:***********;  BLOECHL correction:  0.000000
       DOS:  cpu time    0.0028: real time    0.0028
    CHARGE:  cpu time    1.2382: real time    1.2456
    MIXING:  cpu time    0.0019: real time    0.0019
    --------------------------------------------
      LOOP:  cpu time  129.1386: real time  130.0032

 eigenvalue-minimisations  : 17408
 total energy-change (2. order) : 0.7247972E-03  (-0.5065937E-04)
 number of electron     688.0000460 magnetization       0.0000000
 augmentation part      282.1732138 magnetization       0.0000000

 Broyden mixing:
  rms(total) = 0.50197E+00    rms(broyden)= 0.50197E+00
  rms(prec ) = 0.50206E+00
  weight for this iteration     100.00

 eigenvalues of (default mixing * dielectric matrix)
  average eigenvalue GAMMA=   0.7199
  1.1834  1.1834  0.5757  0.5757  0.4631  0.3378

 Free energy of the ion-electron system (eV)
  ---------------------------------------------------
  alpha Z        PSCENC =      2356.41933059
  Ewald energy   TEWEN  =    -62473.26486964
  -Hartree energ DENC   =    -42946.59699232
  -exchange      EXHF   =         0.00000000
  -V(xc)+E(xc)   XCENC  =      3286.49925930
  PAW double counting   =    113303.97133761  -117001.61521341
  entropy T*S    EENTRO =         0.00000000
  eigenvalues    EBANDS =    -10873.51943289
  atomic energy  EATOM  =    114020.06510763
  Solvation  Ediel_sol  =         0.00000000
  ---------------------------------------------------
  free energy    TOTEN  =      -328.04147313 eV

  energy without entropy =     -328.04147313  energy(sigma->0) =     -328.04147313


--------------------------------------------------------------------------------------------------------




--------------------------------------- Iteration      1(   8)  ---------------------------------------


    POTLOK:  cpu time    0.1491: real time    0.1500
    SETDIJ:  cpu time    0.0132: real time    0.0133
     EDDAV:  cpu time   75.0334: real time   75.5812
 BZINTS: Fermi energy:  4.849010;688.000000 electrons
         Band energy:***********;  BLOECHL correction:  0.000000
       DOS:  cpu time    0.0027: real time    0.0028
    CHARGE:  cpu time    1.2348: real time    1.2423
    MIXING:  cpu time    0.0019: real time    0.0019
    --------------------------------------------
      LOOP:  cpu time   76.4351: real time   76.9915

 eigenvalue-minimisations  : 13056
 total energy-change (2. order) : 0.4624048E-03  (-0.4684070E-04)
 number of electron     688.0000460 magnetization       0.0000000
 augmentation part      282.1859074 magnetization       0.0000000

 Broyden mixing:
  rms(total) = 0.30875E+00    rms(broyden)= 0.30875E+00
  rms(prec ) = 0.30885E+00
  weight for this iteration     100.00

 eigenvalues of (default mixing * dielectric matrix)
  average eigenvalue GAMMA=   0.7375
  1.3197  1.3197  0.6385  0.6385  0.4574  0.4574  0.3311

 Free energy of the ion-electron system (eV)
  ---------------------------------------------------
  alpha Z        PSCENC =      2356.41933059
  Ewald energy   TEWEN  =    -62473.26486964
  -Hartree energ DENC   =    -42948.32948931
  -exchange      EXHF   =         0.00000000
  -V(xc)+E(xc)   XCENC  =      3286.50839735
  PAW double counting   =    112886.64360820  -116582.70057950
  entropy T*S    EENTRO =         0.00000000
  eigenvalues    EBANDS =    -10873.38251604
  atomic energy  EATOM  =    114020.06510763
  Solvation  Ediel_sol  =         0.00000000
  ---------------------------------------------------
  free energy    TOTEN  =      -328.04101072 eV

  energy without entropy =     -328.04101072  energy(sigma->0) =     -328.04101072


--------------------------------------------------------------------------------------------------------




--------------------------------------- Iteration      1(   9)  ---------------------------------------


    POTLOK:  cpu time    0.1473: real time    0.1483
    SETDIJ:  cpu time    0.0132: real time    0.0133
     EDDAV:  cpu time  126.4379: real time  127.2628
 BZINTS: Fermi energy:  5.053451;688.000000 electrons
         Band energy:***********;  BLOECHL correction:  0.000000
       DOS:  cpu time    0.0031: real time    0.0031
    CHARGE:  cpu time    1.2375: real time    1.2449
    MIXING:  cpu time    0.0019: real time    0.0019
    --------------------------------------------
      LOOP:  cpu time  127.8409: real time  128.6743

 eigenvalue-minimisations  : 17152
 total energy-change (2. order) : 0.1286413E-03  (-0.8631352E-05)
 number of electron     688.0000460 magnetization      -0.0000000
 augmentation part      282.1940765 magnetization      -0.0000000

 Broyden mixing:
  rms(total) = 0.24267E+00    rms(broyden)= 0.24267E+00
  rms(prec ) = 0.24274E+00
  weight for this iteration     100.00

 eigenvalues of (default mixing * dielectric matrix)
  average eigenvalue GAMMA=   0.7455
  1.4268  1.4268  0.6940  0.6940  0.4819  0.4819  0.4225  0.3363

 Free energy of the ion-electron system (eV)
  ---------------------------------------------------
  alpha Z        PSCENC =      2356.41933059
  Ewald energy   TEWEN  =    -62473.26486964
  -Hartree energ DENC   =    -42948.69461512
  -exchange      EXHF   =         0.00000000
  -V(xc)+E(xc)   XCENC  =      3286.51184053
  PAW double counting   =    112753.72035261  -116449.27924817
  entropy T*S    EENTRO =         0.00000000
  eigenvalues    EBANDS =    -10873.51878051
  atomic energy  EATOM  =    114020.06510763
  Solvation  Ediel_sol  =         0.00000000
  ---------------------------------------------------
  free energy    TOTEN  =      -328.04088208 eV

  energy without entropy =     -328.04088208  energy(sigma->0) =     -328.04088208


--------------------------------------------------------------------------------------------------------




--------------------------------------- Iteration      1(  10)  ---------------------------------------


    POTLOK:  cpu time    0.1498: real time    0.1507
    SETDIJ:  cpu time    0.0130: real time    0.0131
     EDDAV:  cpu time   83.6771: real time   84.2664
 BZINTS: Fermi energy:  5.052313;688.000000 electrons
         Band energy:***********;  BLOECHL correction:  0.000000
       DOS:  cpu time    0.0032: real time    0.0032
    CHARGE:  cpu time    1.2409: real time    1.2481
    MIXING:  cpu time    0.0020: real time    0.0020
    --------------------------------------------
      LOOP:  cpu time   85.0860: real time   85.6834

 eigenvalue-minimisations  : 13824
 total energy-change (2. order) : 0.1547822E-03  (-0.1933390E-04)
 number of electron     688.0000460 magnetization      -0.0000000
 augmentation part      282.2092344 magnetization      -0.0000000

 Broyden mixing:
  rms(total) = 0.11619E+00    rms(broyden)= 0.11619E+00
  rms(prec ) = 0.11622E+00
  weight for this iteration     100.00

 eigenvalues of (default mixing * dielectric matrix)
  average eigenvalue GAMMA=   0.8549
  1.7097  1.7097  0.8933  0.8933  0.5866  0.5866  0.4908  0.4908  0.3334

 Free energy of the ion-electron system (eV)
  ---------------------------------------------------
  alpha Z        PSCENC =      2356.41933059
  Ewald energy   TEWEN  =    -62473.26486964
  -Hartree energ DENC   =    -42949.33368706
  -exchange      EXHF   =         0.00000000
  -V(xc)+E(xc)   XCENC  =      3286.51425307
  PAW double counting   =    112501.28763310  -116195.92685780
  entropy T*S    EENTRO =         0.00000000
  eigenvalues    EBANDS =    -10873.80163719
  atomic energy  EATOM  =    114020.06510763
  Solvation  Ediel_sol  =         0.00000000
  ---------------------------------------------------
  free energy    TOTEN  =      -328.04072730 eV

  energy without entropy =     -328.04072730  energy(sigma->0) =     -328.04072730


--------------------------------------------------------------------------------------------------------




--------------------------------------- Iteration      1(  11)  ---------------------------------------


    POTLOK:  cpu time    0.1510: real time    0.1519
    SETDIJ:  cpu time    0.0143: real time    0.0144
     EDDAV:  cpu time  130.6810: real time  131.5327
 BZINTS: Fermi energy:  5.052311;688.000000 electrons
         Band energy:***********;  BLOECHL correction:  0.000000
       DOS:  cpu time    0.0031: real time    0.0031
    CHARGE:  cpu time    1.2623: real time    1.2700
    MIXING:  cpu time    0.0021: real time    0.0021
    --------------------------------------------
      LOOP:  cpu time  132.1139: real time  132.9743

 eigenvalue-minimisations  : 17920
 total energy-change (2. order) : 0.2600854E-04  (-0.2714207E-05)
 number of electron     688.0000460 magnetization      -0.0000000
 augmentation part      282.2142562 magnetization      -0.0000000

 Broyden mixing:
  rms(total) = 0.69838E-01    rms(broyden)= 0.69838E-01
  rms(prec ) = 0.69859E-01
  weight for this iteration     100.00

 eigenvalues of (default mixing * dielectric matrix)
  average eigenvalue GAMMA=   0.8842
  1.9271  1.9271  0.9606  0.9606  0.6299  0.6299  0.5014  0.5014  0.3340  0.4698

 Free energy of the ion-electron system (eV)
  ---------------------------------------------------
  alpha Z        PSCENC =      2356.41933059
  Ewald energy   TEWEN  =    -62473.26486964
  -Hartree energ DENC   =    -42949.53210020
  -exchange      EXHF   =         0.00000000
  -V(xc)+E(xc)   XCENC  =      3286.51571745
  PAW double counting   =    112413.40177385  -116107.77054403
  entropy T*S    EENTRO =         0.00000000
  eigenvalues    EBANDS =    -10873.87511694
  atomic energy  EATOM  =    114020.06510763
  Solvation  Ediel_sol  =         0.00000000
  ---------------------------------------------------
  free energy    TOTEN  =      -328.04070129 eV

  energy without entropy =     -328.04070129  energy(sigma->0) =     -328.04070129


--------------------------------------------------------------------------------------------------------




--------------------------------------- Iteration      1(  12)  ---------------------------------------


    POTLOK:  cpu time    0.1501: real time    0.1510
    SETDIJ:  cpu time    0.0131: real time    0.0132
     EDDAV:  cpu time   90.9653: real time   91.5956
 BZINTS: Fermi energy:  5.052360;688.000000 electrons
         Band energy:***********;  BLOECHL correction:  0.000000
       DOS:  cpu time    0.0032: real time    0.0032
    CHARGE:  cpu time    1.2368: real time    1.2444
    MIXING:  cpu time    0.0022: real time    0.0029
    --------------------------------------------
      LOOP:  cpu time   92.3707: real time   93.0102

 eigenvalue-minimisations  : 14336
 total energy-change (2. order) : 0.1486760E-04  (-0.1172762E-05)
 number of electron     688.0000460 magnetization      -0.0000000
 augmentation part      282.2166794 magnetization      -0.0000000

 Broyden mixing:
  rms(total) = 0.32237E-01    rms(broyden)= 0.32237E-01
  rms(prec ) = 0.32248E-01
  weight for this iteration     100.00

 eigenvalues of (default mixing * dielectric matrix)
  average eigenvalue GAMMA=   0.9440
  2.2153  2.2153  1.0727  1.0727  0.7149  0.7149  0.5385  0.5385  0.3336  0.4835
  0.4835

 Free energy of the ion-electron system (eV)
  ---------------------------------------------------
  alpha Z        PSCENC =      2356.41933059
  Ewald energy   TEWEN  =    -62473.26486964
  -Hartree energ DENC   =    -42949.72943362
  -exchange      EXHF   =         0.00000000
  -V(xc)+E(xc)   XCENC  =      3286.51931413
  PAW double counting   =    112343.86219483  -116038.03680753
  entropy T*S    EENTRO =         0.00000000
  eigenvalues    EBANDS =    -10873.87552281
  atomic energy  EATOM  =    114020.06510763
  Solvation  Ediel_sol  =         0.00000000
  ---------------------------------------------------
  free energy    TOTEN  =      -328.04068642 eV

  energy without entropy =     -328.04068642  energy(sigma->0) =     -328.04068642


--------------------------------------------------------------------------------------------------------




--------------------------------------- Iteration      1(  13)  ---------------------------------------


    POTLOK:  cpu time    0.1490: real time    0.1501
    SETDIJ:  cpu time    0.0132: real time    0.0133
     EDDAV:  cpu time  123.5487: real time  124.3590
 BZINTS: Fermi energy:  5.052361;688.000000 electrons
         Band energy:***********;  BLOECHL correction:  0.000000
       DOS:  cpu time    0.0032: real time    0.0032
    CHARGE:  cpu time    1.4572: real time    1.4652
    MIXING:  cpu time    0.0026: real time    0.0026
    --------------------------------------------
      LOOP:  cpu time  125.1739: real time  125.9934

 eigenvalue-minimisations  : 16896
 total energy-change (2. order) : 0.6913833E-05  (-0.6628872E-06)
 number of electron     688.0000460 magnetization       0.0000000
 augmentation part      282.2193592 magnetization       0.0000000

 Broyden mixing:
  rms(total) = 0.82942E-02    rms(broyden)= 0.82942E-02
  rms(prec ) = 0.83002E-02
  weight for this iteration     100.00

 eigenvalues of (default mixing * dielectric matrix)
  average eigenvalue GAMMA=   1.1339
  3.0090  3.0090  1.3467  1.3467  0.8626  0.8626  0.6141  0.6141  0.3337  0.5391
  0.5391  0.5300

 Free energy of the ion-electron system (eV)
  ---------------------------------------------------
  alpha Z        PSCENC =      2356.41933059
  Ewald energy   TEWEN  =    -62473.26486964
  -Hartree energ DENC   =    -42949.86354039
  -exchange      EXHF   =         0.00000000
  -V(xc)+E(xc)   XCENC  =      3286.51996412
  PAW double counting   =    112295.04880096  -115989.05553815
  entropy T*S    EENTRO =         0.00000000
  eigenvalues    EBANDS =    -10873.90993463
  atomic energy  EATOM  =    114020.06510763
  Solvation  Ediel_sol  =         0.00000000
  ---------------------------------------------------
  free energy    TOTEN  =      -328.04067951 eV

  energy without entropy =     -328.04067951  energy(sigma->0) =     -328.04067951


--------------------------------------------------------------------------------------------------------




--------------------------------------- Iteration      1(  14)  ---------------------------------------


    POTLOK:  cpu time    0.1622: real time    0.1632
    SETDIJ:  cpu time    0.0169: real time    0.0170
     EDDAV:  cpu time  111.5120: real time  112.2662
 BZINTS: Fermi energy:  5.052362;688.000000 electrons
         Band energy:***********;  BLOECHL correction:  0.000000
       DOS:  cpu time    0.0032: real time    0.0032
    CHARGE:  cpu time    1.2362: real time    1.2435
    MIXING:  cpu time    0.0023: real time    0.0023
    --------------------------------------------
      LOOP:  cpu time  112.9326: real time  113.6953

 eigenvalue-minimisations  : 16640
 total energy-change (2. order) : 0.1316279E-05  (-0.1439892E-06)
 number of electron     688.0000460 magnetization       0.0000000
 augmentation part      282.2206246 magnetization       0.0000000

 Broyden mixing:
  rms(total) = 0.11318E-02    rms(broyden)= 0.11318E-02
  rms(prec ) = 0.11331E-02
  weight for this iteration     100.00

 eigenvalues of (default mixing * dielectric matrix)
  average eigenvalue GAMMA=   1.2074
  3.3403  3.3403  1.5262  1.5262  0.9730  0.9730  0.7057  0.7057  0.3337  0.5694
  0.5694  0.5668  0.5668

 Free energy of the ion-electron system (eV)
  ---------------------------------------------------
  alpha Z        PSCENC =      2356.41933059
  Ewald energy   TEWEN  =    -62473.26486964
  -Hartree energ DENC   =    -42949.89273129
  -exchange      EXHF   =         0.00000000
  -V(xc)+E(xc)   XCENC  =      3286.51967657
  PAW double counting   =    112279.60197912  -115973.55628102
  entropy T*S    EENTRO =         0.00000000
  eigenvalues    EBANDS =    -10873.93289015
  atomic energy  EATOM  =    114020.06510763
  Solvation  Ediel_sol  =         0.00000000
  ---------------------------------------------------
  free energy    TOTEN  =      -328.04067819 eV

  energy without entropy =     -328.04067819  energy(sigma->0) =     -328.04067819


--------------------------------------------------------------------------------------------------------




--------------------------------------- Iteration      1(  15)  ---------------------------------------


    POTLOK:  cpu time    0.1489: real time    0.1506
    SETDIJ:  cpu time    0.0132: real time    0.0133
     EDDAV:  cpu time  118.9662: real time  119.7525
 BZINTS: Fermi energy:  5.052362;688.000000 electrons
         Band energy:***********;  BLOECHL correction:  0.000000
       DOS:  cpu time    0.0031: real time    0.0032
    CHARGE:  cpu time    1.2368: real time    1.2441
    MIXING:  cpu time    0.0024: real time    0.0024
    --------------------------------------------
      LOOP:  cpu time  120.3707: real time  121.1662

 eigenvalue-minimisations  : 16384
 total energy-change (2. order) : 0.1844892E-06  (-0.1360550E-07)
 number of electron     688.0000460 magnetization      -0.0000000
 augmentation part      282.2209049 magnetization      -0.0000000

 Broyden mixing:
  rms(total) = 0.26883E-03    rms(broyden)= 0.26883E-03
  rms(prec ) = 0.27265E-03
  weight for this iteration     100.00

 eigenvalues of (default mixing * dielectric matrix)
  average eigenvalue GAMMA=   1.1721
  3.1234  3.1234  1.6006  1.6006  1.0177  1.0177  0.7909  0.7909  0.3337  0.5820
  0.5820  0.6310  0.6310  0.5839

 Free energy of the ion-electron system (eV)
  ---------------------------------------------------
  alpha Z        PSCENC =      2356.41933059
  Ewald energy   TEWEN  =    -62473.26486964
  -Hartree energ DENC   =    -42949.89509615
  -exchange      EXHF   =         0.00000000
  -V(xc)+E(xc)   XCENC  =      3286.51937718
  PAW double counting   =    112276.53795378  -115970.48532211
  entropy T*S    EENTRO =         0.00000000
  eigenvalues    EBANDS =    -10873.93715928
  atomic energy  EATOM  =    114020.06510763
  Solvation  Ediel_sol  =         0.00000000
  ---------------------------------------------------
  free energy    TOTEN  =      -328.04067801 eV

  energy without entropy =     -328.04067801  energy(sigma->0) =     -328.04067801


--------------------------------------------------------------------------------------------------------




--------------------------------------- Iteration      1(  16)  ---------------------------------------


    POTLOK:  cpu time    0.1474: real time    0.1484
    SETDIJ:  cpu time    0.0131: real time    0.0132
     EDDAV:  cpu time   65.2776: real time   65.7340
 BZINTS: Fermi energy:  5.052331;688.000000 electrons
         Band energy:***********;  BLOECHL correction:  0.000000
       DOS:  cpu time    0.0032: real time    0.0032
    --------------------------------------------
      LOOP:  cpu time   65.4413: real time   65.8987

 eigenvalue-minimisations  :  9728
 total energy-change (2. order) : 0.8163624E-08  (-0.1373323E-08)
 number of electron     688.0000460 magnetization      -0.0000000
 augmentation part      282.2209049 magnetization      -0.0000000

 Free energy of the ion-electron system (eV)
  ---------------------------------------------------
  alpha Z        PSCENC =      2356.41933059
  Ewald energy   TEWEN  =    -62473.26486964
  -Hartree energ DENC   =    -42949.89320527
  -exchange      EXHF   =         0.00000000
  -V(xc)+E(xc)   XCENC  =      3286.51928847
  PAW double counting   =    112277.06072729  -115971.01008642
  entropy T*S    EENTRO =         0.00000000
  eigenvalues    EBANDS =    -10873.93697065
  atomic energy  EATOM  =    114020.06510763
  Solvation  Ediel_sol  =         0.00000000
  ---------------------------------------------------
  free energy    TOTEN  =      -328.04067800 eV

  energy without entropy =     -328.04067800  energy(sigma->0) =     -328.04067800


--------------------------------------------------------------------------------------------------------




 average (electrostatic) potential at core
  the test charge radii are     0.9698  0.8297  0.9500
  (the norm of the test charge is              1.0000)
       1 -86.6199       2 -86.6199       3 -86.6199       4 -86.6199       5 -86.6199
       6 -86.6199       7 -86.6199       8 -86.6199       9 -86.6199      10 -86.6199
      11 -86.6199      12 -86.6199      13 -86.6199      14 -86.6199      15 -86.6199
      16 -86.6199      17 -86.6199      18 -86.6199      19 -86.6199      20 -86.6199
      21 -86.6199      22 -86.6199      23 -86.6199      24 -86.6199      25 -86.6199
      26 -86.6199      27 -86.6199      28 -86.6199      29 -86.6199      30 -86.6199
      31 -86.6199      32 -86.6199      33 -80.7000      34 -80.7000      35 -80.7000
      36 -80.7000      37 -80.7000      38 -80.7000      39 -80.7000      40 -80.7000
      41 -80.7000      42 -80.7000      43 -80.7000      44 -80.7000      45 -80.7000
      46 -80.7000      47 -80.7000      48 -80.7000      49 -80.2251      50 -80.2251
      51 -80.2251      52 -80.2251      53 -80.2251      54 -80.2251      55 -80.2251
      56 -80.2251      57 -80.2251      58 -80.2251      59 -80.2251      60 -80.2251
      61 -80.2251      62 -80.2251      63 -80.2251      64 -80.2251
 
 
 
 E-fermi :   5.0523     XC(G=0): -10.4674     alpha+bet :-10.5476


 spin component 1

 k-point     1 :       0.0000    0.0000    0.0000
  band No.  band energies     occupation 
      1     -64.3109      1.00000
      2     -64.3109      1.00000
      3     -64.3109      1.00000
      4     -64.3109      1.00000
      5     -64.3109      1.00000
      6     -64.3109      1.00000
      7     -64.3109      1.00000
      8     -64.3109      1.00000
      9     -64.2801      1.00000
     10     -64.2801      1.00000
     11     -64.2801      1.00000
     12     -64.2801      1.00000
     13     -64.2801      1.00000
     14     -64.2801      1.00000
     15     -64.2801      1.00000
     16     -64.2801      1.00000
     17     -64.2765      1.00000
     18     -64.2765      1.00000
     19     -64.2765      1.00000
     20     -64.2765      1.00000
     21     -64.2765      1.00000
     22     -64.2765      1.00000
     23     -64.2765      1.00000
     24     -64.2765      1.00000
     25     -64.2755      1.00000
     26     -64.2755      1.00000
     27     -64.2755      1.00000
     28     -64.2755      1.00000
     29     -64.2755      1.00000
     30     -64.2755      1.00000
     31     -64.2755      1.00000
     32     -64.2755      1.00000
     33     -64.2660      1.00000
     34     -64.2660      1.00000
     35     -64.2660      1.00000
     36     -64.2660      1.00000
     37     -64.2660      1.00000
     38     -64.2660      1.00000
     39     -64.2660      1.00000
     40     -64.2660      1.00000
     41     -64.2544      1.00000
     42     -64.2544      1.00000
     43     -64.2544      1.00000
     44     -64.2544      1.00000
     45     -64.2544      1.00000
     46     -64.2544      1.00000
     47     -64.2544      1.00000
     48     -64.2544      1.00000
     49     -51.8749      1.00000
     50     -51.8749      1.00000
     51     -51.8749      1.00000
[...]
   -.421E+02 0.297E+00 0.861E+01   0.430E+02 -.287E+00 -.869E+01   -.861E+00 -.101E-01 0.860E-01   -.220E-04 -.572E-06 -.604E-06
   -.421E+02 0.297E+00 0.861E+01   0.430E+02 -.287E+00 -.869E+01   -.861E+00 -.101E-01 0.860E-01   -.220E-04 -.572E-06 -.604E-06
   -.421E+02 0.297E+00 0.861E+01   0.430E+02 -.287E+00 -.869E+01   -.861E+00 -.101E-01 0.860E-01   -.220E-04 -.572E-06 -.604E-06
   -.421E+02 0.297E+00 0.861E+01   0.430E+02 -.287E+00 -.869E+01   -.861E+00 -.101E-01 0.860E-01   -.220E-04 -.572E-06 -.604E-06
   0.421E+02 -.297E+00 0.861E+01   -.430E+02 0.287E+00 -.869E+01   0.861E+00 0.101E-01 0.860E-01   0.220E-04 0.572E-06 -.604E-06
   0.421E+02 -.297E+00 0.861E+01   -.430E+02 0.287E+00 -.869E+01   0.861E+00 0.101E-01 0.860E-01   0.220E-04 0.572E-06 -.604E-06
   0.421E+02 -.297E+00 0.861E+01   -.430E+02 0.287E+00 -.869E+01   0.861E+00 0.101E-01 0.860E-01   0.220E-04 0.572E-06 -.604E-06
   0.421E+02 -.297E+00 0.861E+01   -.430E+02 0.287E+00 -.869E+01   0.861E+00 0.101E-01 0.860E-01   0.220E-04 0.572E-06 -.604E-06
   0.297E+00 -.421E+02 0.861E+01   -.287E+00 0.430E+02 -.869E+01   -.101E-01 -.861E+00 0.860E-01   -.572E-06 -.220E-04 -.604E-06
   0.297E+00 -.421E+02 0.861E+01   -.287E+00 0.430E+02 -.869E+01   -.101E-01 -.861E+00 0.860E-01   -.572E-06 -.220E-04 -.604E-06
   0.297E+00 -.421E+02 0.861E+01   -.287E+00 0.430E+02 -.869E+01   -.101E-01 -.861E+00 0.860E-01   -.572E-06 -.220E-04 -.604E-06
   0.297E+00 -.421E+02 0.861E+01   -.287E+00 0.430E+02 -.869E+01   -.101E-01 -.861E+00 0.860E-01   -.572E-06 -.220E-04 -.604E-06
   -.297E+00 0.421E+02 0.861E+01   0.287E+00 -.430E+02 -.869E+01   0.101E-01 0.861E+00 0.860E-01   0.572E-06 0.220E-04 -.604E-06
   -.297E+00 0.421E+02 0.861E+01   0.287E+00 -.430E+02 -.869E+01   0.101E-01 0.861E+00 0.860E-01   0.572E-06 0.220E-04 -.604E-06
   -.297E+00 0.421E+02 0.861E+01   0.287E+00 -.430E+02 -.869E+01   0.101E-01 0.861E+00 0.860E-01   0.572E-06 0.220E-04 -.604E-06
   -.297E+00 0.421E+02 0.861E+01   0.287E+00 -.430E+02 -.869E+01   0.101E-01 0.861E+00 0.860E-01   0.572E-06 0.220E-04 -.604E-06
   -.221E-06 0.152E-07 -.102E+02   0.573E-13 0.853E-13 0.974E+01   -.495E-24 -.452E-25 0.411E+00   -.431E-12 0.331E-12 0.751E-05
   -.221E-06 0.152E-07 -.102E+02   0.893E-13 0.853E-13 0.974E+01   -.154E-24 -.905E-25 0.411E+00   -.341E-14 0.561E-12 0.751E-05
   -.221E-06 0.152E-07 -.102E+02   0.857E-13 0.568E-13 0.974E+01   0.340E-25 0.115E-24 0.411E+00   -.257E-12 -.148E-12 0.751E-05
   -.221E-06 0.152E-07 -.102E+02   0.608E-13 0.568E-13 0.974E+01   0.113E-25 0.310E-24 0.411E+00   -.875E-13 -.244E-12 0.751E-05
   0.152E-07 -.221E-06 -.102E+02   0.000E+00 0.568E-13 0.974E+01   -.366E-24 0.343E-24 0.411E+00   0.253E-12 0.206E-12 0.751E-05
   0.152E-07 -.221E-06 -.102E+02   0.284E-13 0.000E+00 0.974E+01   0.187E-24 -.258E-25 0.411E+00   -.570E-12 0.212E-12 0.751E-05
   0.152E-07 -.221E-06 -.102E+02   0.284E-13 0.853E-13 0.974E+01   0.314E-24 0.517E-25 0.411E+00   -.346E-13 -.129E-12 0.751E-05
   0.152E-07 -.221E-06 -.102E+02   0.000E+00 0.284E-13 0.974E+01   0.244E-24 -.258E-25 0.411E+00   -.296E-12 -.241E-12 0.751E-05
   -.221E-06 0.152E-07 -.102E+02   0.711E-13 0.555E-13 0.974E+01   -.226E-24 0.258E-24 0.411E+00   0.674E-12 0.141E-12 0.751E-05
   -.221E-06 0.152E-07 -.102E+02   0.426E-13 0.551E-13 0.974E+01   0.399E-24 -.388E-25 0.411E+00   -.104E-11 -.604E-13 0.751E-05
   -.221E-06 0.152E-07 -.102E+02   0.853E-13 0.899E-13 0.974E+01   -.831E-25 -.491E-24 0.411E+00   0.243E-12 0.152E-12 0.751E-05
   -.221E-06 0.152E-07 -.102E+02   0.568E-13 0.147E-12 0.974E+01   -.173E-24 0.391E-24 0.411E+00   -.579E-12 0.315E-12 0.751E-05
   0.152E-07 -.221E-06 -.102E+02   0.523E-14 0.810E-13 0.974E+01   0.503E-25 0.000E+00 0.411E+00   -.448E-12 -.164E-12 0.751E-05
   0.152E-07 -.221E-06 -.102E+02   0.761E-14 -.327E-13 0.974E+01   -.209E-24 0.517E-25 0.411E+00   0.954E-13 -.294E-12 0.751E-05
   0.152E-07 -.221E-06 -.102E+02   -.191E-14 0.162E-14 0.974E+01   -.296E-24 0.103E-24 0.411E+00   -.161E-12 0.274E-12 0.751E-05
   0.152E-07 -.221E-06 -.102E+02   0.289E-13 0.115E-12 0.974E+01   0.347E-24 -.155E-24 0.411E+00   -.229E-12 0.376E-12 0.751E-05
   0.335E-07 -.666E-07 -.814E+01   0.101E-12 -.156E-12 0.765E+01   0.115E-24 -.310E-24 0.489E+00   -.248E-12 -.278E-13 -.108E-04
   0.335E-07 -.666E-07 -.814E+01   0.103E-12 -.156E-12 0.765E+01   0.335E-25 0.258E-24 0.489E+00   0.180E-12 0.365E-12 -.108E-04
   0.335E-07 -.666E-07 -.814E+01   0.115E-12 -.128E-12 0.765E+01   -.396E-25 -.775E-25 0.489E+00   -.100E-12 -.117E-12 -.108E-04
   0.335E-07 -.666E-07 -.814E+01   0.744E-13 -.711E-13 0.765E+01   0.106E-24 -.155E-24 0.489E+00   0.167E-13 -.438E-12 -.108E-04
   -.666E-07 0.335E-07 -.814E+01   -.124E-12 0.853E-13 0.765E+01   -.291E-25 0.220E-24 0.489E+00   -.978E-13 0.245E-12 -.108E-04
   -.666E-07 0.335E-07 -.814E+01   -.924E-13 0.568E-13 0.765E+01   0.228E-24 -.103E-24 0.489E+00   0.293E-13 0.518E-12 -.108E-04
   -.666E-07 0.335E-07 -.814E+01   -.128E-12 0.142E-13 0.765E+01   -.180E-24 0.168E-24 0.489E+00   -.182E-12 -.225E-12 -.108E-04
   -.666E-07 0.336E-07 -.814E+01   -.124E-12 0.142E-13 0.765E+01   0.217E-24 -.103E-24 0.489E+00   0.822E-13 -.420E-12 -.108E-04
   0.335E-07 -.666E-07 -.814E+01   0.853E-13 -.964E-13 0.765E+01   -.986E-25 0.181E-24 0.489E+00   -.288E-12 -.199E-12 -.108E-04
   0.335E-07 -.666E-07 -.814E+01   0.128E-12 -.125E-12 0.765E+01   -.929E-25 -.310E-24 0.489E+00   0.245E-12 -.344E-12 -.108E-04
   0.335E-07 -.666E-07 -.814E+01   0.995E-13 -.150E-12 0.765E+01   -.127E-24 0.362E-24 0.489E+00   -.481E-12 0.104E-12 -.108E-04
   0.335E-07 -.666E-07 -.814E+01   0.711E-13 -.149E-12 0.765E+01   -.840E-25 -.517E-25 0.489E+00   0.375E-12 0.148E-12 -.108E-04
   -.666E-07 0.335E-07 -.814E+01   -.113E-12 0.358E-13 0.765E+01   0.170E-24 0.872E-25 0.489E+00   -.309E-12 0.131E-12 -.108E-04
   -.666E-07 0.335E-07 -.814E+01   -.140E-12 0.360E-13 0.765E+01   0.371E-25 -.355E-25 0.489E+00   0.125E-12 -.150E-12 -.108E-04
   -.666E-07 0.335E-07 -.814E+01   -.130E-12 0.538E-13 0.765E+01   0.434E-25 -.646E-25 0.489E+00   -.236E-12 -.462E-13 -.108E-04
   -.666E-07 0.335E-07 -.814E+01   -.129E-12 0.540E-13 0.765E+01   -.264E-24 0.646E-25 0.489E+00   0.995E-13 0.163E-12 -.108E-04
 -----------------------------------------------------------------------------------------------
   -.159E-05 -.159E-05 -.172E+02   0.103E-12 0.527E-12 -.176E-11   0.120E-14 0.881E-24 0.171E+02   -.259E-11 0.182E-11 -.713E-04
 
 
 POSITION                                       TOTAL-FORCE (eV/Angst)
 -----------------------------------------------------------------------------------
      1.34418      1.33401      1.28612        -0.000133      0.000239      0.000047
      6.59894      1.40733      1.28612        -0.000133      0.000239      0.000047
      1.41750      6.58878      1.28612        -0.000133      0.000239      0.000047
      6.67226      6.66210      1.28612        -0.000133      0.000239      0.000047
      3.98391      3.99408      1.28612         0.000133     -0.000239      0.000047
      9.23868      4.06740      1.28612         0.000133     -0.000239      0.000047
      4.05724      9.24885      1.28612         0.000133     -0.000239      0.000047
      9.31200      9.32217      1.28612         0.000133     -0.000239      0.000047
      1.36670      3.94725      9.10024        -0.000239      0.000133      0.000047
      6.62146      4.02057      9.10024        -0.000239      0.000133      0.000047
      1.44002      9.20202      9.10024        -0.000239      0.000133      0.000047
      6.69478      9.27534      9.10024        -0.000239      0.000133      0.000047
      3.96139      1.38084      9.10024         0.000239     -0.000133      0.000047
      9.21616      1.45416      9.10024         0.000239     -0.000133      0.000047
      4.03471      6.63560      9.10024         0.000239     -0.000133      0.000047
      9.28948      6.70892      9.10024         0.000239     -0.000133      0.000047
      1.31987      1.33003      6.49553         0.000133     -0.000239      0.000047
      6.57464      1.40336      6.49553         0.000133     -0.000239      0.000047
      1.39319      6.58480      6.49553         0.000133     -0.000239      0.000047
      6.64796      6.65812      6.49553         0.000133     -0.000239      0.000047
      4.00822      3.99805      6.49553        -0.000133      0.000239      0.000047
      9.26299      4.07138      6.49553        -0.000133      0.000239      0.000047
      4.08154      9.25282      6.49553        -0.000133      0.000239      0.000047
      9.33631      9.32614      6.49553        -0.000133      0.000239      0.000047
      3.95742      1.35653      3.89083        -0.000239      0.000133      0.000047
      9.21218      1.42985      3.89083        -0.000239      0.000133      0.000047
      4.03074      6.61130      3.89083        -0.000239      0.000133      0.000047
      9.28551      6.68462      3.89083        -0.000239      0.000133      0.000047
      1.37067      3.97156      3.89083         0.000239     -0.000133      0.000047
      6.62544      4.04488      3.89083         0.000239     -0.000133      0.000047
      1.44399      9.22633      3.89083         0.000239     -0.000133      0.000047
      6.69876      9.29965      3.89083         0.000239     -0.000133      0.000047
      0.00000      0.00000      5.22326        -0.000000     -0.000000     -0.000865
      5.25477      0.07332      5.22326        -0.000000     -0.000000     -0.000865
      0.07332      5.25477      5.22326        -0.000000     -0.000000     -0.000865
      5.32809      5.32809      5.22326        -0.000000     -0.000000     -0.000865
      2.62738      0.03666      2.61855        -0.000000     -0.000000     -0.000865
      7.88215      0.10998      2.61855        -0.000000     -0.000000     -0.000865
      2.70071      5.29143      2.61855        -0.000000     -0.000000     -0.000865
      7.95547      5.36475      2.61855        -0.000000     -0.000000     -0.000865
      2.66404      2.66404      0.01385        -0.000000     -0.000000     -0.000865
      7.91881      2.73737      0.01385        -0.000000     -0.000000     -0.000865
      2.73737      7.91881      0.01385        -0.000000     -0.000000     -0.000865
      7.99213      7.99213      0.01385        -0.000000     -0.000000     -0.000865
      0.03666      2.62738      7.82797        -0.000000     -0.000000     -0.000865
      5.29143      2.70071      7.82797        -0.000000     -0.000000     -0.000865
      0.10998      7.88215      7.82797        -0.000000     -0.000000     -0.000865
      5.36475      7.95547      7.82797        -0.000000     -0.000000     -0.000865
      0.00000      0.00000      0.01863        -0.000000     -0.000000      0.000771
      5.25477      0.07332      0.01863        -0.000000     -0.000000      0.000771
      0.07332      5.25477      0.01863        -0.000000     -0.000000      0.000771
      5.32809      5.32809      0.01863        -0.000000     -0.000000      0.000771
      2.62738      0.03666      7.83275        -0.000000     -0.000000      0.000771
      7.88215      0.10998      7.83275        -0.000000     -0.000000      0.000771
      2.70071      5.29143      7.83275        -0.000000     -0.000000      0.000771
      7.95547      5.36475      7.83275        -0.000000     -0.000000      0.000771
      2.66404      2.66404      5.22804        -0.000000     -0.000000      0.000771
      7.91881      2.73737      5.22804        -0.000000     -0.000000      0.000771
      2.73737      7.91881      5.22804        -0.000000     -0.000000      0.000771
      7.99213      7.99213      5.22804        -0.000000     -0.000000      0.000771
      0.03666      2.62738      2.62334        -0.000000     -0.000000      0.000771
      5.29143      2.70071      2.62334        -0.000000     -0.000000      0.000771
      0.10998      7.88215      2.62334        -0.000000     -0.000000      0.000771
      5.36475      7.95547      2.62334        -0.000000     -0.000000      0.000771
 -----------------------------------------------------------------------------------
    total drift:                               -0.000002     -0.000002     -0.029804


--------------------------------------------------------------------------------------------------------



  FREE ENERGIE OF THE ION-ELECTRON SYSTEM (eV)
  ---------------------------------------------------
  free  energy   TOTEN  =      -328.04067800 eV

  energy  without entropy=     -328.04067800  energy(sigma->0) =     -328.04067800
 


--------------------------------------------------------------------------------------------------------


    POTLOK:  cpu time    0.1592: real time    0.1600


--------------------------------------------------------------------------------------------------------


 writing wavefunctions
     LOOP+:  cpu time 1864.0724: real time 2119.8793
    4ORBIT:  cpu time    0.0000: real time    0.0000
 


 total charge     
 
# of ion       s       p       d       tot
------------------------------------------
    1        1.313   2.410   0.000   3.724
    2        1.313   2.410   0.000   3.724
    3        1.313   2.410   0.000   3.724
    4        1.313   2.410   0.000   3.724
    5        1.313   2.410   0.000   3.724
    6        1.313   2.410   0.000   3.724
    7        1.313   2.410   0.000   3.724
    8        1.313   2.410   0.000   3.724
    9        1.313   2.410   0.000   3.724
   10        1.313   2.410   0.000   3.724
   11        1.313   2.410   0.000   3.724
   12        1.313   2.410   0.000   3.724
   13        1.313   2.410   0.000   3.724
   14        1.313   2.410   0.000   3.724
   15        1.313   2.410   0.000   3.724
   16        1.313   2.410   0.000   3.724
   17        1.313   2.410   0.000   3.724
   18        1.313   2.410   0.000   3.724
   19        1.313   2.410   0.000   3.724
   20        1.313   2.410   0.000   3.724
   21        1.313   2.410   0.000   3.724
   22        1.313   2.410   0.000   3.724
   23        1.313   2.410   0.000   3.724
   24        1.313   2.410   0.000   3.724
   25        1.313   2.410   0.000   3.724
   26        1.313   2.410   0.000   3.724
   27        1.313   2.410   0.000   3.724
   28        1.313   2.410   0.000   3.724
   29        1.313   2.410   0.000   3.724
   30        1.313   2.410   0.000   3.724
   31        1.313   2.410   0.000   3.724
   32        1.313   2.410   0.000   3.724
   33        0.260   6.202   8.916  15.378
   34        0.260   6.202   8.916  15.378
   35        0.260   6.202   8.916  15.378
   36        0.260   6.202   8.916  15.378
   37        0.260   6.202   8.916  15.378
   38        0.260   6.202   8.916  15.378
   39        0.260   6.202   8.916  15.378
   40        0.260   6.202   8.916  15.378
   41        0.260   6.202   8.916  15.378
   42        0.260   6.202   8.916  15.378
   43        0.260   6.202   8.916  15.378
   44        0.260   6.202   8.916  15.378
   45        0.260   6.202   8.916  15.378
   46        0.260   6.202   8.916  15.378
   47        0.260   6.202   8.916  15.378
   48        0.260   6.202   8.916  15.378
   49        0.350   6.351   5.820  12.521
   50        0.350   6.351   5.820  12.521
   51        0.350   6.351   5.820  12.521
   52        0.350   6.351   5.820  12.521
   53        0.350   6.351   5.820  12.521
   54        0.350   6.351   5.820  12.521
   55        0.350   6.351   5.820  12.521
   56        0.350   6.351   5.820  12.521
   57        0.350   6.351   5.820  12.521
   58        0.350   6.351   5.820  12.521
   59        0.350   6.351   5.820  12.521
   60        0.350   6.351   5.820  12.521
   61        0.350   6.351   5.820  12.521
   62        0.350   6.351   5.820  12.521
   63        0.350   6.351   5.820  12.521
   64        0.350   6.351   5.820  12.521
--------------------------------------------------
tot         51.789 277.972 235.782 565.543
 


 magnetization (x)
 
# of ion       s       p       d       tot
------------------------------------------
    1       -0.000  -0.007   0.000  -0.007
    2       -0.000  -0.007   0.000  -0.007
    3       -0.000  -0.007   0.000  -0.007
    4       -0.000  -0.007   0.000  -0.007
    5       -0.000  -0.007   0.000  -0.007
    6       -0.000  -0.007   0.000  -0.007
    7       -0.000  -0.007   0.000  -0.007
    8       -0.000  -0.007   0.000  -0.007
    9        0.000   0.007   0.000   0.007
   10        0.000   0.007   0.000   0.007
   11        0.000   0.007   0.000   0.007
   12        0.000   0.007   0.000   0.007
   13        0.000   0.007   0.000   0.007
   14        0.000   0.007   0.000   0.007
   15        0.000   0.007   0.000   0.007
   16        0.000   0.007   0.000   0.007
   17       -0.000  -0.007   0.000  -0.007
   18       -0.000  -0.007   0.000  -0.007
   19       -0.000  -0.007   0.000  -0.007
   20       -0.000  -0.007   0.000  -0.007
   21       -0.000  -0.007   0.000  -0.007
   22       -0.000  -0.007   0.000  -0.007
   23       -0.000  -0.007   0.000  -0.007
   24       -0.000  -0.007   0.000  -0.007
   25        0.000   0.007   0.000   0.007
   26        0.000   0.007   0.000   0.007
   27        0.000   0.007   0.000   0.007
   28        0.000   0.007   0.000   0.007
   29        0.000   0.007   0.000   0.007
   30        0.000   0.007   0.000   0.007
   31        0.000   0.007   0.000   0.007
   32        0.000   0.007   0.000   0.007
   33        0.000   0.000  -0.000   0.000
   34        0.000   0.000  -0.000   0.000
   35        0.000   0.000  -0.000   0.000
   36        0.000   0.000  -0.000   0.000
   37       -0.000  -0.000   0.000  -0.000
   38       -0.000  -0.000   0.000  -0.000
   39       -0.000  -0.000   0.000  -0.000
   40       -0.000  -0.000   0.000  -0.000
   41        0.000   0.000  -0.000   0.000
   42        0.000   0.000  -0.000   0.000
   43        0.000   0.000  -0.000   0.000
   44        0.000   0.000  -0.000   0.000
   45       -0.000  -0.000   0.000  -0.000
   46       -0.000  -0.000   0.000  -0.000
   47       -0.000  -0.000   0.000  -0.000
   48       -0.000  -0.000   0.000  -0.000
   49        0.020   0.054   3.671   3.744
   50        0.020   0.054   3.671   3.744
   51        0.020   0.054   3.671   3.744
   52        0.020   0.054   3.671   3.744
   53       -0.020  -0.054  -3.671  -3.744
   54       -0.020  -0.054  -3.671  -3.744
   55       -0.020  -0.054  -3.671  -3.744
   56       -0.020  -0.054  -3.671  -3.744
   57        0.020   0.054   3.671   3.744
   58        0.020   0.054   3.671   3.744
   59        0.020   0.054   3.671   3.744
   60        0.020   0.054   3.671   3.744
   61       -0.020  -0.054  -3.671  -3.744
   62       -0.020  -0.054  -3.671  -3.744
   63       -0.020  -0.054  -3.671  -3.744
   64       -0.020  -0.054  -3.671  -3.744
--------------------------------------------------
tot         -0.001   0.001  -0.000  -0.000
 
 BZINTS: Fermi energy:  5.052331;688.000000 electrons
         Band energy:***********;  BLOECHL correction:  0.000000

 total amount of memory used by VASP MPI-rank0   301249. kBytes
=======================================================================

   base      :      30000. kBytes
   nonl-proj :     175882. kBytes
   fftplans  :       4588. kBytes
   grid      :      69719. kBytes
   one-center:       1990. kBytes
   wavefun   :      19070. kBytes
 
  
  
 General timing and accounting informations for this job:
 ========================================================
  
                  Total CPU time used (sec):     1912.413
                            User time (sec):     1900.099
                          System time (sec):       12.314
                         Elapsed time (sec):     2172.250
  
                   Maximum memory used (kb):      657492.
                   Average memory used (kb):           0.
  
                          Minor page faults:       481577
                          Major page faults:         5433
                 Voluntary context switches:         7860
