 vasp.5.4.4.18Apr17-6-g9f103f2a35 (build Oct 30 2023 17:30:16) complex          
  
 executed on             LinuxIFC date 2024.06.27  00:42:48
 running on  256 total cores
 distrk:  each k-point on  256 cores,    1 groups
 distr:  one band on NCORES_PER_BAND=   1 cores,  256 groups


--------------------------------------------------------------------------------------------------------


 INCAR:
 POTCAR:    PAW_PBE S 06Sep2000                   
 POTCAR:     PAW_PBE Cu_pv 06Sep2000              
 POTCAR:     PAW_PBE Fe_pv 02Aug2007              

 ----------------------------------------------------------------------------- 
|                                                                             |
|           W    W    AA    RRRRR   N    N  II  N    N   GGGG   !!!           |
|           W    W   A  A   R    R  NN   N  II  NN   N  G    G  !!!           |
|           W    W  A    A  R    R  N N  N  II  N N  N  G       !!!           |
|           W WW W  AAAAAA  RRRRR   N  N N  II  N  N N  G  GGG   !            |
|           WW  WW  A    A  R   R   N   NN  II  N   NN  G    G                |
|           W    W  A    A  R    R  N    N  II  N    N   GGGG   !!!           |
|                                                                             |
|      For optimal performance we recommend to set                            |
|        NCORE= 4 - approx SQRT( number of cores)                             |
|      NCORE specifies how many cores store one orbital (NPAR=cpu/NCORE).     |
|      This setting can  greatly improve the performance of VASP for DFT.     |
|      The default,   NCORE=1            might be grossly inefficient         |
|      on modern multi-core architectures or massively parallel machines.     |
|      Do your own testing !!!!                                               |
|      Unfortunately you need to use the default for GW and RPA calculations. |
|      (for HF NCORE is supported but not extensively tested yet)             |
|                                                                             |
 ----------------------------------------------------------------------------- 

 POTCAR:    PAW_PBE S 06Sep2000                   
   SHA256 =  0fc7481fb0695f01bdc6462160264c5c84044ae9ec85a907d398b887a2bc3132 S/
   COPYR  = (c) Copyright 06Sep2000 Georg Kresse                                
   COPYR  = This file is part of the software VASP. Any use, copying, and all ot
   COPYR  = If you do not have a valid VASP license, you may not use, copy or di
   VRHFIN =S : s2p4                                                             
   LEXCH  = PE                                                                  
   EATOM  =   276.8230 eV,   20.3459 Ry                                         
                                                                                
   TITEL  = PAW_PBE S 06Sep2000                                                 
   LULTRA =        F    use ultrasoft PP ?                                      
   IUNSCR =        1    unscreen: 0-lin 1-nonlin 2-no                           
   RPACOR =    1.500    partial core radius                                     
   POMASS =   32.066; ZVAL   =    6.000    mass and valenz                      
   RCORE  =    1.900    outmost cutoff radius                                   
   RWIGS  =    2.200; RWIGS  =    1.164    wigner-seitz radius (au A)           
   ENMAX  =  258.689; ENMIN  =  194.016 eV                                      
   ICORE  =        2    local potential                                         
   LCOR   =        T    correct aug charges                                     
   LPAW   =        T    paw PP                                                  
   EAUG   =  335.092                                                            
   DEXC   =    0.000                                                            
   RMAX   =    1.942    core radius for proj-oper                               
   RAUG   =    1.300    factor for augmentation sphere                          
   RDEP   =    1.954    radius for radial grids                                 
   RDEPT  =    1.744    core radius for aug-charge                              
                                                                                
   Atomic configuration                                                         
    6 entries                                                                   
     n  l   j            E        occ.                                          
     1  0  0.50     -2405.8406   2.0000                                         
     2  0  0.50      -211.7007   2.0000                                         
     2  1  1.50      -156.4958   6.0000                                         
     3  0  0.50       -17.2562   2.0000                                         
     3  1  0.50        -7.0085   4.0000                                         
     3  2  1.50        -6.8029   0.0000                                         
   Description                                                                  
     l       E           TYP  RCUT    TYP  RCUT                                 
     0    -17.2561641     23  1.900                                             
     0    -15.8743224     23  1.900                                             
     1     -7.0085400     23  1.900                                             
     1     -2.7779785     23  1.900                                             
     2     -6.8029130     23  1.900                                             
  local pseudopotential read in
  partial core-charges read in
  partial kinetic energy density read in
  atomic valenz-charges read in
  non local Contribution for L=           0  read in
    real space projection operators read in
  non local Contribution for L=           0  read in
    real space projection operators read in
  non local Contribution for L=           1  read in
    real space projection operators read in
  non local Contribution for L=           1  read in
    real space projection operators read in
    PAW grid and wavefunctions read in
 
   number of l-projection  operators is LMAX  =           4
   number of lm-projection operators is LMMAX =           8
 
 POTCAR:     PAW_PBE Cu_pv 06Sep2000              
   SHA256 =  cb7b504e2ea725fe1f25c85a9ac77d4012ce94cd394135b722c4e25ec297f1cb Cu
   COPYR  = (c) Copyright 06Sep2000 Georg Kresse                                
   COPYR  = This file is part of the software VASP. Any use, copying, and all ot
   COPYR  = If you do not have a valid VASP license, you may not use, copy or di
   VRHFIN =Cu: d10 p1                                                           
   LEXCH  = PE                                                                  
   EATOM  =  4120.1201 eV,  302.8203 Ry                                         
                                                                                
   TITEL  = PAW_PBE Cu_pv 06Sep2000                                             
   LULTRA =        F    use ultrasoft PP ?                                      
   IUNSCR =        1    unscreen: 0-lin 1-nonlin 2-no                           
   RPACOR =    1.500    partial core radius                                     
   POMASS =   63.546; ZVAL   =   17.000    mass and valenz                      
   RCORE  =    2.000    outmost cutoff radius                                   
   RWIGS  =    2.000; RWIGS  =    1.058    wigner-seitz radius (au A)           
   ENMAX  =  368.648; ENMIN  =  276.486 eV                                      
   RCLOC  =    1.304    cutoff for local pot                                    
   LCOR   =        T    correct aug charges                                     
   LPAW   =        T    paw PP                                                  
   EAUG   =  758.233                                                            
   DEXC   =    0.000                                                            
   RMAX   =    2.046    core radius for proj-oper                               
   RAUG   =    1.300    factor for augmentation sphere                          
   RDEP   =    2.025    radius for radial grids                                 
   RDEPT  =    1.558    core radius for aug-charge                              
                                                                                
   Atomic configuration                                                         
    8 entries                                                                   
     n  l   j            E        occ.                                          
     1  0  0.50     -8850.2467   2.0000                                         
     2  0  0.50     -1062.3498   2.0000                                         
     2  1  1.50      -916.8226   6.0000                                         
     3  0  0.50      -114.6929   2.0000                                         
     3  1  1.50       -72.1325   6.0000                                         
     3  2  2.50        -5.0394  10.0000                                         
     4  0  0.50        -4.6097   1.0000                                         
     4  3  2.50        -1.3606   0.0000                                         
   Description                                                                  
     l       E           TYP  RCUT    TYP  RCUT                                 
     1    -72.1324777     23  1.700                                             
     1     -1.3605826     23  1.700                                             
     2     -5.0393776     23  2.000                                             
     2     -6.3999602     23  2.000                                             
     0     -4.6097062     23  1.800                                             
     0     14.1620818     23  1.800                                             
  local pseudopotential read in
  partial core-charges read in
  partial kinetic energy density read in
  atomic valenz-charges read in
  non local Contribution for L=           1  read in
    real space projection operators read in
  non local Contribution for L=           1  read in
    real space projection operators read in
  non local Contribution for L=           2  read in
    real space projection operators read in
  non local Contribution for L=           2  read in
    real space projection operators read in
  non local Contribution for L=           0  read in
    real space projection operators read in
  non local Contribution for L=           0  read in
    real space projection operators read in
    PAW grid and wavefunctions read in
 
   number of l-projection  operators is LMAX  =           6
   number of lm-projection operators is LMMAX =          18
 
 POTCAR:     PAW_PBE Fe_pv 02Aug2007              
   SHA256 =  5d22e414b1f82158bf2c7ecb8b97b28fd0923e48cadc1c3bf74d524558f5dd32 Fe
   COPYR  = (c) Copyright 02Aug2007 Georg Kresse                                
   COPYR  = This file is part of the software VASP. Any use, copying, and all ot
   COPYR  = If you do not have a valid VASP license, you may not use, copy or di
   VRHFIN =Fe:  3pd7s1                                                          
   LEXCH  = PE                                                                  
   EATOM  =  2457.4239 eV,  180.6156 Ry                                         
                                                                                
   TITEL  = PAW_PBE Fe_pv 02Aug2007                                             
   LULTRA =        F    use ultrasoft PP ?                                      
   IUNSCR =        1    unscreen: 0-lin 1-nonlin 2-no                           
   RPACOR =    1.750    partial core radius                                     
   POMASS =   55.847; ZVAL   =   14.000    mass and valenz                      
   RCORE  =    2.200    outmost cutoff radius                                   
   RWIGS  =    2.200; RWIGS  =    1.164    wigner-seitz radius (au A)           
   ENMAX  =  293.238; ENMIN  =  219.928 eV                                      
   ICORE  =        3    local potential                                         
   LCOR   =        T    correct aug charges                                     
   LPAW   =        T    paw PP                                                  
   EAUG   =  578.342                                                            
   DEXC   =    0.000                                                            
   RMAX   =    2.249    core radius for proj-oper                               
   RAUG   =    1.300    factor for augmentation sphere                          
   RDEP   =    2.296    radius for radial grids                                 
   RDEPT  =    1.766    core radius for aug-charge                              
                                                                                
   Atomic configuration                                                         
    8 entries                                                                   
     n  l   j            E        occ.                                          
     1  0  0.50     -6993.8440   2.0000                                         
     2  0  0.50      -814.6047   2.0000                                         
     2  1  1.50      -693.3689   6.0000                                         
     3  0  0.50       -89.4732   2.0000                                         
     3  1  1.50       -55.6373   6.0000                                         
     3  2  2.50        -3.8151   7.0000                                         
     4  0  0.50        -4.2551   1.0000                                         
     4  3  2.50        -1.3606   0.0000                                         
   Description                                                                  
     l       E           TYP  RCUT    TYP  RCUT                                 
     1    -55.6372668     23  2.000                                             
     1     -5.4423304     23  2.000                                             
     2     -3.8151096     23  2.200                                             
     2     -5.1756922     23  2.200                                             
     0     -4.2550951     23  2.200                                             
     0     27.2116520     23  2.200                                             
     3     -1.3605826     23  2.200                                             
  local pseudopotential read in
  partial core-charges read in
  partial kinetic energy density read in
  atomic valenz-charges read in
  non local Contribution for L=           1  read in
    real space projection operators read in
  non local Contribution for L=           1  read in
    real space projection operators read in
  non local Contribution for L=           2  read in
    real space projection operators read in
  non local Contribution for L=           2  read in
    real space projection operators read in
  non local Contribution for L=           0  read in
    real space projection operators read in
  non local Contribution for L=           0  read in
    real space projection operators read in
    PAW grid and wavefunctions read in
 
   number of l-projection  operators is LMAX  =           6
   number of lm-projection operators is LMMAX =          18
 

 ----------------------------------------------------------------------------- 
|                                                                             |
|  ADVICE TO THIS USER RUNNING 'VASP/VAMP'   (HEAR YOUR MASTER'S VOICE ...):  |
|                                                                             |
|      You have a (more or less) 'large supercell' and for larger cells       |
|      it might be more efficient to use real space projection opertators     |
|      So try LREAL= Auto  in the INCAR   file.                               |
|      Mind:          For very  accurate calculation you might also keep the  |
|      reciprocal projection scheme          (i.e. LREAL=.FALSE.)             |
|                                                                             |
 ----------------------------------------------------------------------------- 


 ----------------------------------------------------------------------------- 
|                                                                             |
|  ADVICE TO THIS USER RUNNING 'VASP/VAMP'   (HEAR YOUR MASTER'S VOICE ...):  |
|                                                                             |
|      You enforced a specific xc-type in the INCAR file,                     |
|      a different type was found on the POTCAR file                          |
|          I HOPE YOU KNOW, WHAT YOU ARE  DOING                               |
|                                                                             |
 ----------------------------------------------------------------------------- 

  PAW_PBE S 06Sep2000                   :
 energy of atom  1       EATOM= -276.8230
 kinetic energy error for atom=    0.0007 (will be added to EATOM!!)
   PAW_PBE Cu_pv 06Sep2000              :
 energy of atom  2       EATOM=-4120.1201
 kinetic energy error for atom=    0.0094 (will be added to EATOM!!)
   PAW_PBE Fe_pv 02Aug2007              :
 energy of atom  3       EATOM=-2457.4239
 kinetic energy error for atom=    0.0025 (will be added to EATOM!!)
 
 
 POSCAR: Fe16 Cu16 S32                           
  positions in direct lattice
  velocities in cartesian coordinates
 exchange correlation table for  LEXCH =       14
   RHO(1)=    0.500       N(1)  =     2000
   RHO(2)=  100.500       N(2)  =     4000
 


--------------------------------------------------------------------------------------------------------


 ion  position               nearest neighbor table
   1  0.126  0.126  0.118-  37 2.25  61 2.27  41 2.28  49 2.29
   2  0.626  0.126  0.118-  38 2.25  62 2.27  42 2.28  50 2.29
   3  0.126  0.626  0.118-  39 2.25  63 2.27  43 2.28  51 2.29
   4  0.626  0.626  0.118-  40 2.25  64 2.27  44 2.28  52 2.29
   5  0.374  0.374  0.118-  39 2.25  62 2.27  41 2.28  52 2.29
   6  0.874  0.374  0.118-  40 2.25  61 2.27  42 2.28  51 2.29
   7  0.374  0.874  0.118-  37 2.25  64 2.27  43 2.28  50 2.29
   8  0.874  0.874  0.118-  38 2.25  63 2.27  44 2.28  49 2.29
   9  0.124  0.374  0.868-  41 2.25  51 2.27  45 2.28  55 2.29
  10  0.624  0.374  0.868-  42 2.25  52 2.27  46 2.28  56 2.29
  11  0.124  0.874  0.868-  43 2.25  49 2.27  47 2.28  53 2.29
  12  0.624  0.874  0.868-  44 2.25  50 2.27  48 2.28  54 2.29
  13  0.376  0.126  0.868-  41 2.25  50 2.27  46 2.28  53 2.29
  14  0.876  0.126  0.868-  42 2.25  49 2.27  45 2.28  54 2.29
  15  0.376  0.626  0.868-  43 2.25  52 2.27  48 2.28  55 2.29
  16  0.876  0.626  0.868-  44 2.25  51 2.27  47 2.28  56 2.29
  17  0.124  0.124  0.618-  45 2.25  53 2.27  33 2.28  57 2.29
  18  0.624  0.124  0.618-  46 2.25  54 2.27  34 2.28  58 2.29
  19  0.124  0.624  0.618-  47 2.25  55 2.27  35 2.28  59 2.29
  20  0.624  0.624  0.618-  48 2.25  56 2.27  36 2.28  60 2.29
  21  0.376  0.376  0.618-  46 2.25  55 2.27  36 2.28  57 2.29
  22  0.876  0.376  0.618-  45 2.25  56 2.27  35 2.28  58 2.29
  23  0.376  0.876  0.618-  48 2.25  53 2.27  34 2.28  59 2.29
  24  0.876  0.876  0.618-  47 2.25  54 2.27  33 2.28  60 2.29
  25  0.374  0.124  0.368-  34 2.25  57 2.27  37 2.28  62 2.29
  26  0.874  0.124  0.368-  33 2.25  58 2.27  38 2.28  61 2.29
  27  0.374  0.624  0.368-  36 2.25  59 2.27  39 2.28  64 2.29
  28  0.874  0.624  0.368-  35 2.25  60 2.27  40 2.28  63 2.29
  29  0.126  0.376  0.368-  35 2.25  57 2.27  39 2.28  61 2.29
  30  0.626  0.376  0.368-  36 2.25  58 2.27  40 2.28  62 2.29
  31  0.126  0.876  0.368-  33 2.25  59 2.27  37 2.28  63 2.29
  32  0.626  0.876  0.368-  34 2.25  60 2.27  38 2.28  64 2.29
  33  0.000  0.000  0.506-  26 2.25  31 2.25  17 2.28  24 2.28
  34  0.500  0.000  0.506-  32 2.25  25 2.25  18 2.28  23 2.28
  35  0.000  0.500  0.506-  28 2.25  29 2.25  22 2.28  19 2.28
  36  0.500  0.500  0.506-  30 2.25  27 2.25  21 2.28  20 2.28
  37  0.250  0.000  0.256-   1 2.25   7 2.25  25 2.28  31 2.28
  38  0.750  0.000  0.256-   2 2.25   8 2.25  26 2.28  32 2.28
  39  0.250  0.500  0.256-   3 2.25   5 2.25  27 2.28  29 2.28
  40  0.750  0.500  0.256-   4 2.25   6 2.25  28 2.28  30 2.28
  41  0.250  0.250  0.006-   9 2.25  13 2.25   5 2.28   1 2.28
  42  0.750  0.250  0.006-  10 2.25  14 2.25   6 2.28   2 2.28
  43  0.250  0.750  0.006-  11 2.25  15 2.25   3 2.28   7 2.28
  44  0.750  0.750  0.006-  12 2.25  16 2.25   4 2.28   8 2.28
  45  0.000  0.250  0.756-  17 2.25  22 2.25   9 2.28  14 2.28
  46  0.500  0.250  0.756-  18 2.25  21 2.25  13 2.28  10 2.28
  47  0.000  0.750  0.756-  19 2.25  24 2.25  11 2.28  16 2.28
  48  0.500  0.750  0.756-  20 2.25  23 2.25  15 2.28  12 2.28
  49  0.000  0.000  0.008-  11 2.27  14 2.27   1 2.29   8 2.29
  50  0.500  0.000  0.008-  13 2.27  12 2.27   2 2.29   7 2.29
  51  0.000  0.500  0.008-   9 2.27  16 2.27   3 2.29   6 2.29
  52  0.500  0.500  0.008-  15 2.27  10 2.27   4 2.29   5 2.29
  53  0.250  0.000  0.758-  17 2.27  23 2.27  11 2.29  13 2.29
  54  0.750  0.000  0.758-  18 2.27  24 2.27  12 2.29  14 2.29
  55  0.250  0.500  0.758-  21 2.27  19 2.27   9 2.29  15 2.29
  56  0.750  0.500  0.758-  22 2.27  20 2.27  10 2.29  16 2.29
  57  0.250  0.250  0.508-  25 2.27  29 2.27  17 2.29  21 2.29
  58  0.750  0.250  0.508-  26 2.27  30 2.27  18 2.29  22 2.29
  59  0.250  0.750  0.508-  27 2.27  31 2.27  19 2.29  23 2.29
  60  0.750  0.750  0.508-  28 2.27  32 2.27  20 2.29  24 2.29
  61  0.000  0.250  0.258-   6 2.27   1 2.27  26 2.29  29 2.29
  62  0.500  0.250  0.258-   5 2.27   2 2.27  30 2.29  25 2.29
  63  0.000  0.750  0.258-   3 2.27   8 2.27  28 2.29  31 2.29
  64  0.500  0.750  0.258-   4 2.27   7 2.27  32 2.29  27 2.29
 
  LATTYP: Found a base centered orthorhombic cell.
 ALAT       =    13.9248516094
 B/A-ratio  =     1.1303156081
 C/A-ratio  =     0.7498429696
  
  Lattice vectors:
  
 A1 = (  10.4879240000,   0.6415670000,   0.0000000000)
 A2 = (  -0.6415670000, -10.4879240000,   0.0000000000)
 A3 = (   0.0000000000,   0.0000000000, -10.4414520821)


Analysis of symmetry for initial positions (statically):
=====================================================================
 Subroutine PRICEL returns following result:
 
  LATTYP: Found a face centered orthorhombic cell.
 ALAT       =     6.9624258047
 B/A-ratio  =     1.1303156081
 C/A-ratio  =     1.4996859392
  
  Lattice vectors:
  
 A1 = (  -2.7823727500,  -2.7823727500,   5.2207260410)
 A2 = (  -2.4615892500,   2.4615892500,   5.2207260410)
 A3 = (  -5.2439620000,  -0.3207835000,   0.0000000000)
 
   8 primitive cells build up your supercell.
 

 Routine SETGRP: Setting up the symmetry group for a 
 base centered orthorhombic supercell.


 Subroutine GETGRP returns: Found  4 space group operations
 (whereof  2 operations were pure point group operations)
 out of a pool of  8 trial point group operations.


The static configuration has the point symmetry C_2 .
 The point group associated with its full space group is C_2v.


Analysis of symmetry for dynamics (positions and initial velocities):
=====================================================================
 Subroutine PRICEL returns following result:
 
  LATTYP: Found a face centered orthorhombic cell.
 ALAT       =     6.9624258047
 B/A-ratio  =     1.1303156081
 C/A-ratio  =     1.4996859392
  
  Lattice vectors:
  
 A1 = (  -2.7823727500,  -2.7823727500,   5.2207260410)
 A2 = (  -2.4615892500,   2.4615892500,   5.2207260410)
 A3 = (  -5.2439620000,  -0.3207835000,   0.0000000000)
 
   8 primitive cells build up your supercell.
 

 Routine SETGRP: Setting up the symmetry group for a 
 base centered orthorhombic supercell.


 Subroutine GETGRP returns: Found  4 space group operations
 (whereof  2 operations were pure point group operations)
 out of a pool of  8 trial point group operations.


The dynamic configuration has the point symmetry C_2 .
 The point group associated with its full space group is C_2v.


Analysis of structural, dynamic, and magnetic symmetry:
=====================================================================
 Subroutine PRICEL returns following result:
 
  LATTYP: Found a face centered orthorhombic cell.
 ALAT       =     6.9624258047
 B/A-ratio  =     1.1303156081
 C/A-ratio  =     1.4996859392
  
  Lattice vectors:
  
 A1 = (  -2.7823727500,  -2.7823727500,   5.2207260410)
 A2 = (  -2.4615892500,   2.4615892500,   5.2207260410)
 A3 = (  -5.2439620000,  -0.3207835000,   0.0000000000)
 
   8 primitive cells build up your supercell.
 

 Routine SETGRP: Setting up the symmetry group for a 
 base centered orthorhombic supercell.


 Subroutine GETGRP returns: Found  4 space group operations
 (whereof  2 operations were pure point group operations)
 out of a pool of  8 trial point group operations.


The magnetic configuration has the point symmetry C_2 .
 The point group associated with its full space group is C_2v.


 Subroutine INISYM returns: Found  4 space group operations
 (whereof  2 operations are pure point group operations),
 and found     8 'primitive' translations

 
 
 KPOINTS: Automatic mesh                          

Automatic generation of k-mesh.
Space group operators:
 irot       det(A)        alpha          n_x          n_y          n_z        tau_x        tau_y        tau_z
    1     1.000000     0.000001     1.000000     0.000000     0.000000     0.000000     0.000000     0.000000
    2     1.000000   180.000000     0.000000     0.000000     1.000000     0.000000     0.000000     0.000000
    3    -1.000000   180.000000     0.707107     0.707107     0.000000    -0.750000    -0.000000     0.750000
    4    -1.000000   180.000000     0.707107    -0.707107     0.000000    -0.750000    -0.000000     0.750000
 
 Subroutine IBZKPT returns following result:
 ===========================================
 
 Found     21 irreducible k-points:
 
 Following reciprocal coordinates:
            Coordinates               Weight
  0.000000  0.000000  0.000000      1.000000
  0.250000 -0.000000  0.000000      4.000000
  0.500000 -0.000000  0.000000      2.000000
  0.250000  0.250000  0.000000      2.000000
  0.500000  0.250000  0.000000      4.000000
 -0.250000  0.250000  0.000000      2.000000
  0.500000  0.500000  0.000000      1.000000
  0.000000  0.000000  0.250000      2.000000
  0.250000 -0.000000  0.250000      8.000000
  0.500000 -0.000000  0.250000      4.000000
  0.250000  0.250000  0.250000      4.000000
  0.500000  0.250000  0.250000      8.000000
 -0.250000  0.250000  0.250000      4.000000
  0.500000  0.500000  0.250000      2.000000
  0.000000  0.000000  0.500000      1.000000
  0.250000 -0.000000  0.500000      4.000000
  0.500000 -0.000000  0.500000      2.000000
  0.250000  0.250000  0.500000      2.000000
  0.500000  0.250000  0.500000      4.000000
 -0.250000  0.250000  0.500000      2.000000
  0.500000  0.500000  0.500000      1.000000
 
 Following cartesian coordinates:
            Coordinates               Weight
  0.000000  0.000000  0.000000      1.000000
  0.023926 -0.001464  0.000000      4.000000
  0.047853 -0.002927  0.000000      2.000000
  0.022463  0.022463  0.000000      2.000000
  0.046389  0.020999  0.000000      4.000000
 -0.025390  0.025390  0.000000      2.000000
  0.044926  0.044926  0.000000      1.000000
  0.000000  0.000000  0.023943      2.000000
  0.023926 -0.001464  0.023943      8.000000
  0.047853 -0.002927  0.023943      4.000000
  0.022463  0.022463  0.023943      4.000000
  0.046389  0.020999  0.023943      8.000000
 -0.025390  0.025390  0.023943      4.000000
  0.044926  0.044926  0.023943      2.000000
  0.000000  0.000000  0.047886      1.000000
  0.023926 -0.001464  0.047886      4.000000
  0.047853 -0.002927  0.047886      2.000000
  0.022463  0.022463  0.047886      2.000000
  0.046389  0.020999  0.047886      4.000000
 -0.025390  0.025390  0.047886      2.000000
  0.044926  0.044926  0.047886      1.000000
 
 TETIRR: Found     96 inequivalent tetrahedra from      384
 
 Subroutine IBZKPT_HF returns following result:
 ==============================================
 
 Found     64 k-points in 1st BZ
 the following     64 k-points will be used (e.g. in the exchange kernel)
 Following reciprocal coordinates:   # in IRBZ
  0.000000  0.000000  0.000000    0.01562500   1 t-inv F
  0.250000 -0.000000  0.000000    0.01562500   2 t-inv F
  0.500000 -0.000000  0.000000    0.01562500   3 t-inv F
  0.250000  0.250000  0.000000    0.01562500   4 t-inv F
  0.500000  0.250000  0.000000    0.01562500   5 t-inv F
 -0.250000  0.250000  0.000000    0.01562500   6 t-inv F
  0.500000  0.500000  0.000000    0.01562500   7 t-inv F
  0.000000  0.000000  0.250000    0.01562500   8 t-inv F
  0.250000 -0.000000  0.250000    0.01562500   9 t-inv F
  0.500000 -0.000000  0.250000    0.01562500  10 t-inv F
  0.250000  0.250000  0.250000    0.01562500  11 t-inv F
  0.500000  0.250000  0.250000    0.01562500  12 t-inv F
 -0.250000  0.250000  0.250000    0.01562500  13 t-inv F
  0.500000  0.500000  0.250000    0.01562500  14 t-inv F
  0.000000  0.000000  0.500000    0.01562500  15 t-inv F
  0.250000 -0.000000  0.500000    0.01562500  16 t-inv F
  0.500000 -0.000000  0.500000    0.01562500  17 t-inv F
  0.250000  0.250000  0.500000    0.01562500  18 t-inv F
  0.500000  0.250000  0.500000    0.01562500  19 t-inv F
 -0.250000  0.250000  0.500000    0.01562500  20 t-inv F
  0.500000  0.500000  0.500000    0.01562500  21 t-inv F
 -0.250000  0.000000  0.000000    0.01562500   2 t-inv F
  0.000000 -0.250000  0.000000    0.01562500   2 t-inv F spinflp
 -0.000000  0.250000  0.000000    0.01562500   2 t-inv F spinflp
  0.000000 -0.500000  0.000000    0.01562500   3 t-inv F spinflp
 -0.250000 -0.250000  0.000000    0.01562500   4 t-inv F
 -0.500000 -0.250000  0.000000    0.01562500   5 t-inv F
 -0.250000 -0.500000  0.000000    0.01562500   5 t-inv F spinflp
  0.250000  0.500000  0.000000    0.01562500   5 t-inv F spinflp
  0.250000 -0.250000  0.000000    0.01562500   6 t-inv F
 -0.250000  0.000000  0.250000    0.01562500   9 t-inv F
  0.000000 -0.250000  0.250000    0.01562500   9 t-inv F spinflp
 -0.000000  0.250000  0.250000    0.01562500   9 t-inv F spinflp
  0.000000 -0.500000  0.250000    0.01562500  10 t-inv F spinflp
 -0.250000 -0.250000  0.250000    0.01562500  11 t-inv F
 -0.500000 -0.250000  0.250000    0.01562500  12 t-inv F
 -0.250000 -0.500000  0.250000    0.01562500  12 t-inv F spinflp
  0.250000  0.500000  0.250000    0.01562500  12 t-inv F spinflp
  0.250000 -0.250000  0.250000    0.01562500  13 t-inv F
 -0.250000  0.000000  0.500000    0.01562500  16 t-inv F
  0.000000 -0.250000  0.500000    0.01562500  16 t-inv F spinflp
 -0.000000  0.250000  0.500000    0.01562500  16 t-inv F spinflp
  0.000000 -0.500000  0.500000    0.01562500  17 t-inv F spinflp
 -0.250000 -0.250000  0.500000    0.01562500  18 t-inv F
 -0.500000 -0.250000  0.500000    0.01562500  19 t-inv F
 -0.250000 -0.500000  0.500000    0.01562500  19 t-inv F spinflp
  0.250000  0.500000  0.500000    0.01562500  19 t-inv F spinflp
  0.250000 -0.250000  0.500000    0.01562500  20 t-inv F
  0.000000  0.000000 -0.250000    0.01562500   8 t-inv T
 -0.250000  0.000000 -0.250000    0.01562500   9 t-inv T
  0.250000 -0.000000 -0.250000    0.01562500   9 t-inv T
 -0.000000  0.250000 -0.250000    0.01562500   9 t-inv T spinflp
  0.000000 -0.250000 -0.250000    0.01562500   9 t-inv T spinflp
 -0.500000  0.000000 -0.250000    0.01562500  10 t-inv T
 -0.000000  0.500000 -0.250000    0.01562500  10 t-inv T spinflp
 -0.250000 -0.250000 -0.250000    0.01562500  11 t-inv T
  0.250000  0.250000 -0.250000    0.01562500  11 t-inv T
 -0.500000 -0.250000 -0.250000    0.01562500  12 t-inv T
  0.500000  0.250000 -0.250000    0.01562500  12 t-inv T
  0.250000  0.500000 -0.250000    0.01562500  12 t-inv T spinflp
 -0.250000 -0.500000 -0.250000    0.01562500  12 t-inv T spinflp
  0.250000 -0.250000 -0.250000    0.01562500  13 t-inv T
 -0.250000  0.250000 -0.250000    0.01562500  13 t-inv T
 -0.500000 -0.500000 -0.250000    0.01562500  14 t-inv T


--------------------------------------------------------------------------------------------------------




 Dimension of arrays:
   k-points           NKPTS =     21   k-points in BZ     NKDIM =     21   number of bands    NBANDS=    512
   number of dos      NEDOS =    301   number of ions     NIONS =     64
   non local maximal  LDIM  =      6   non local SUM 2l+1 LMDIM =     18
   total plane-waves  NPLWV = 829440
   max r-space proj   IRMAX =      1   max aug-charges    IRDMAX=  23034
   dimension x,y,z NGX =    96 NGY =   96 NGZ =   90
   dimension x,y,z NGXF=   192 NGYF=  192 NGZF=  180
   support grid    NGXF=   192 NGYF=  192 NGZF=  180
   ions per type =              32  16  16
   NGX,Y,Z   is equivalent  to a cutoff of  15.19, 15.19, 14.33 a.u.
   NGXF,Y,Z  is equivalent  to a cutoff of  30.38, 30.38, 28.66 a.u.

 SYSTEM =  CuFeS2                                  
 POSCAR =  Fe16 Cu16 S32                           

 Startparameter for this run:
   NWRITE =      2    write-flag & timer
   PREC   = accura    normal or accurate (medium, high low for compatibility)
   ISTART =      1    job   : 0-new  1-cont  2-samecut
   ICHARG =      1    charge: 1-file 2-atom 10-const
   ISPIN  =      2    spin polarized calculation?
   LNONCOLLINEAR =      F non collinear calculations
   LSORBIT =      F    spin-orbit coupling
   INIWAV =      1    electr: 0-lowe 1-rand  2-diag
   LASPH  =      F    aspherical Exc in radial PAW
   METAGGA=      F    non-selfconsistent MetaGGA calc.

 Electronic Relaxation 1
   ENCUT  =  700.0 eV  51.45 Ry    7.17 a.u.  22.67 22.67 22.53*2*pi/ulx,y,z
   ENINI  =  700.0     initial cutoff
   ENAUG  =  758.2 eV  augmentation charge cutoff
   NELM   =    500;   NELMIN=  2; NELMDL=  0     # of ELM steps 
   EDIFF  = 0.1E-07   stopping-criterion for ELM
   LREAL  =      F    real-space projection
   NLSPLINE    = F    spline interpolate recip. space projectors
   LCOMPAT=      F    compatible to vasp.4.4
   GGA_COMPAT  = T    GGA compatible to vasp.4.4-vasp.4.6
   LMAXPAW     = -100 max onsite density
   LMAXMIX     =    4 max onsite mixed and CHGCAR
   VOSKOWN=      0    Vosko Wilk Nusair interpolation
   ROPT   =    0.00000   0.00000   0.00000
 Ionic relaxation
   EDIFFG = -.1E-04   stopping-criterion for IOM
   NSW    =      0    number of steps for IOM
   NBLOCK =      1;   KBLOCK =      1    inner block; outer block 
   IBRION =     -1    ionic relax: 0-MD 1-quasi-New 2-CG
   NFREE  =      0    steps in history (QN), initial steepest desc. (CG)
   ISIF   =      2    stress and relaxation
   IWAVPR =     10    prediction:  0-non 1-charg 2-wave 3-comb
   ISYM   =      2    0-nonsym 1-usesym 2-fastsym
   LCORR  =      T    Harris-Foulkes like correction to forces

   POTIM  = 0.5000    time-step for ionic-motion
   TEIN   =    0.0    initial temperature
   TEBEG  =    0.0;   TEEND  =   0.0 temperature during run
   SMASS  =  -3.00    Nose mass-parameter (am)
   estimated Nose-frequenzy (Omega)   =  0.10E-29 period in steps =****** mass=  -0.252E-26a.u.
   SCALEE = 1.0000    scale energy and forces
   NPACO  =    256;   APACO  = 16.0  distance and # of slots for P.C.
   PSTRESS=    0.0 pullay stress

  Mass of Ions in am
   POMASS =  32.07 63.55 55.85
  Ionic Valenz
   ZVAL   =   6.00 17.00 14.00
  Atomic Wigner-Seitz radii
   RWIGS  =  -1.00 -1.00 -1.00
  virtual crystal weights 
   VCA    =   1.00  1.00  1.00
   NELECT =     688.0000    total number of electrons
   NUPDOWN=      -1.0000    fix difference up-down

 DOS related values:
   EMIN   =  10.00;   EMAX   =-10.00  energy-range for DOS
   EFERMI =   0.00
   ISMEAR =    -5;   SIGMA  =   0.03  broadening in eV -4-tet -1-fermi 0-gaus

 Electronic relaxation 2 (details)
   IALGO  =     38    algorithm
   LDIAG  =      T    sub-space diagonalisation (order eigenvalues)
   LSUBROT=      F    optimize rotation matrix (better conditioning)
   TURBO    =      0    0=normal 1=particle mesh
   IRESTART =      0    0=no restart 2=restart with 2 vectors
   NREBOOT  =      0    no. of reboots
   NMIN     =      0    reboot dimension
   EREF     =   0.00    reference energy to select bands
   IMIX   =      4    mixing-type and parameters
     AMIX     =   0.40;   BMIX     =  1.00
     AMIX_MAG =   1.60;   BMIX_MAG =  1.00
     AMIN     =   0.10
     WC   =   100.;   INIMIX=   1;  MIXPRE=   1;  MAXMIX= -45

 Intra band minimization:
   WEIMIN = 0.0000     energy-eigenvalue tresh-hold
   EBREAK =  0.49E-11  absolut break condition
   DEPER  =   0.30     relativ break condition  

   TIME   =   0.40     timestep for ELM

  volume/ion in A,a.u.               =      17.88       120.65
  Fermi-wavevector in a.u.,A,eV,Ry     =   1.381764  2.611154 25.977201  1.909270
  Thomas-Fermi vector in A             =   2.506518
 
 Write flags
   LWAVE        =      T    write WAVECAR
   LDOWNSAMPLE  =      F    k-point downsampling of WAVECAR
   LCHARG       =      T    write CHGCAR
   LVTOT        =      F    write LOCPOT, total local potential
   LVHAR        =      F    write LOCPOT, Hartree potential only
   LELF         =      F    write electronic localiz. function (ELF)
   LORBIT       =     11    0 simple, 1 ext, 2 COOP (PROOUT), +10 PAW based schemes


 Dipole corrections
   LMONO  =      F    monopole corrections only (constant potential shift)
   LDIPOL =      F    correct potential (dipole corrections)
   IDIPOL =      0    1-x, 2-y, 3-z, 4-all directions 
   EPSILON=  1.0000000 bulk dielectric constant

 LDA+U is selected, type is set to LDAUTYPE =  2
   angular momentum for each species LDAUL =     2    2    2
   U (eV)           for each species LDAUU =   0.0  0.1  4.7
   J (eV)           for each species LDAUJ =   0.0  0.0  0.0
 Exchange correlation treatment:
   GGA     =    PS    GGA type
   LEXCH   =    14    internal setting for exchange type
   VOSKOWN=      0    Vosko Wilk Nusair interpolation
   LHFCALC =     F    Hartree Fock is set to
   LHFONE  =     F    Hartree Fock one center treatment
   AEXX    =    0.0000 exact exchange contribution

 Linear response parameters
   LEPSILON=     F    determine dielectric tensor
   LRPA    =     F    only Hartree local field effects (RPA)
   LNABLA  =     F    use nabla operator in PAW spheres
   LVEL    =     F    velocity operator in full k-point grid
   LINTERFAST=   F  fast interpolation
   KINTER  =     0    interpolate to denser k-point grid
   CSHIFT  =0.1000    complex shift for real part using Kramers Kronig
   OMEGAMAX=  -1.0    maximum frequency
   DEG_THRESHOLD= 0.2000000E-02 threshold for treating states as degnerate
   RTIME   =   -0.100 relaxation time in fs
  (WPLASMAI=    0.000 imaginary part of plasma frequency in eV, 0.658/RTIME)
   DFIELD  = 0.0000000 0.0000000 0.0000000 field for delta impulse in time
 
 Orbital magnetization related:
   ORBITALMAG=     F  switch on orbital magnetization
   LCHIMAG   =     F  perturbation theory with respect to B field
   DQ        =  0.001000  dq finite difference perturbation B field
   LLRAUG    =     F  two centre corrections for induced B field

 PEAD related settings:
   LPEAD      =     T    switch on PEAD
   IPEAD      =     4    finite difference order for dpsi/dk
   LCALCPOL   =     T    calculate macroscopic polarization
   LCALCEPS   =     F    calculate dielectric tensor
   EFIELD_PEAD=    0.0000    0.0000    0.0000
   SKIP_EDOTP =     F
   LRPA       =     F
   SKIP_SCF   =     F


--------------------------------------------------------------------------------------------------------


 Static calculation
 charge density and potential will be updated during run
 spin polarized calculation
 Variant of blocked Davidson
 Davidson routine will perform the subspace rotation
 perform sub-space diagonalisation
    after iterative eigenvector-optimisation
 modified Broyden-mixing scheme, WC =      100.0
 initial mixing is a Kerker type mixing with AMIX =  0.4000 and BMIX =      1.0000
 Hartree-type preconditioning will be used
 using additional bands          168
 reciprocal scheme for non local part
 use partial core corrections
 calculate Harris-corrections to forces 
   (improved forces if not selfconsistent)
 use gradient corrections 
 use of overlap-Matrix (Vanderbilt PP)
 Fermi weights with tetrahedron method with Bloechl corrections


--------------------------------------------------------------------------------------------------------


  energy-cutoff  :      700.00
  volume of cell :     1144.23
      direct lattice vectors                 reciprocal lattice vectors
    10.487924000  0.641567000  0.000000000     0.095705887 -0.005854518  0.000000000
     0.641567000 10.487924000  0.000000000    -0.005854518  0.095705887  0.000000000
     0.000000000  0.000000000 10.441452082     0.000000000  0.000000000  0.095772120

  length of vectors
    10.507528636 10.507528636 10.441452082     0.095884786  0.095884786  0.095772120


 
 old parameters found on file WAVECAR:
  energy-cutoff  :      700.00
  volume of cell :     1144.23
      direct lattice vectors                 reciprocal lattice vectors
    10.487924000  0.641567000  0.000000000     0.095705887 -0.005854518  0.000000000
     0.641567000 10.487924000  0.000000000    -0.005854518  0.095705887  0.000000000
     0.000000000  0.000000000 10.441452082     0.000000000  0.000000000  0.095772120

  length of vectors

 
 k-points in units of 2pi/SCALE and weight: Automatic mesh                          
   0.00000000  0.00000000  0.00000000       0.016
   0.02392647 -0.00146363  0.00000000       0.062
   0.04785294 -0.00292726  0.00000000       0.031
   0.02246284  0.02246284  0.00000000       0.031
   0.04638931  0.02099921  0.00000000       0.062
  -0.02539010  0.02539010  0.00000000       0.031
   0.04492568  0.04492568  0.00000000       0.016
   0.00000000  0.00000000  0.02394303       0.031
   0.02392647 -0.00146363  0.02394303       0.125
   0.04785294 -0.00292726  0.02394303       0.062
   0.02246284  0.02246284  0.02394303       0.062
   0.04638931  0.02099921  0.02394303       0.125
  -0.02539010  0.02539010  0.02394303       0.062
   0.04492568  0.04492568  0.02394303       0.031
   0.00000000  0.00000000  0.04788606       0.016
   0.02392647 -0.00146363  0.04788606       0.062
   0.04785294 -0.00292726  0.04788606       0.031
   0.02246284  0.02246284  0.04788606       0.031
   0.04638931  0.02099921  0.04788606       0.062
  -0.02539010  0.02539010  0.04788606       0.031
   0.04492568  0.04492568  0.04788606       0.016
 
 k-points in reciprocal lattice and weights: Automatic mesh                          
   0.00000000  0.00000000  0.00000000       0.016
   0.25000000 -0.00000000  0.00000000       0.062
   0.50000000 -0.00000000  0.00000000       0.031
   0.25000000  0.25000000  0.00000000       0.031
   0.50000000  0.25000000  0.00000000       0.062
  -0.25000000  0.25000000  0.00000000       0.031
   0.50000000  0.50000000  0.00000000       0.016
   0.00000000  0.00000000  0.25000000       0.031
   0.25000000 -0.00000000  0.25000000       0.125
   0.50000000 -0.00000000  0.25000000       0.062
   0.25000000  0.25000000  0.25000000       0.062
   0.50000000  0.25000000  0.25000000       0.125
  -0.25000000  0.25000000  0.25000000       0.062
   0.50000000  0.50000000  0.25000000       0.031
   0.00000000  0.00000000  0.50000000       0.016
   0.25000000 -0.00000000  0.50000000       0.062
   0.50000000 -0.00000000  0.50000000       0.031
   0.25000000  0.25000000  0.50000000       0.031
   0.50000000  0.25000000  0.50000000       0.062
  -0.25000000  0.25000000  0.50000000       0.031
   0.50000000  0.50000000  0.50000000       0.016
 
 position of ions in fractional coordinates (direct lattice) 
   0.12605074  0.12569410  0.11830963
   0.62605074  0.12569410  0.11830963
   0.12605074  0.62569410  0.11830963
   0.62605074  0.62569410  0.11830963
   0.37394926  0.37430590  0.11830963
   0.87394926  0.37430590  0.11830963
   0.37394926  0.87430590  0.11830963
   0.87394926  0.87430590  0.11830963
   0.12430590  0.37394926  0.86830963
   0.62430590  0.37394926  0.86830963
   0.12430590  0.87394926  0.86830963
   0.62430590  0.87394926  0.86830963
   0.37569410  0.12605074  0.86830963
   0.87569410  0.12605074  0.86830963
   0.37569410  0.62605074  0.86830963
   0.87569410  0.62605074  0.86830963
   0.12394926  0.12430590  0.61830963
   0.62394926  0.12430590  0.61830963
   0.12394926  0.62430590  0.61830963
   0.62394926  0.62430590  0.61830963
   0.37605074  0.37569410  0.61830963
   0.87605074  0.37569410  0.61830963
   0.37605074  0.87569410  0.61830963
   0.87605074  0.87569410  0.61830963
   0.37430590  0.12394926  0.36830963
   0.87430590  0.12394926  0.36830963
   0.37430590  0.62394926  0.36830963
   0.87430590  0.62394926  0.36830963
   0.12569410  0.37605074  0.36830963
   0.62569410  0.37605074  0.36830963
   0.12569410  0.87605074  0.36830963
   0.62569410  0.87605074  0.36830963
   0.00000000  0.00000000  0.50580270
   0.50000000  0.00000000  0.50580270
   0.00000000  0.50000000  0.50580270
   0.50000000  0.50000000  0.50580270
   0.25000000  0.00000000  0.25580270
   0.75000000  0.00000000  0.25580270
   0.25000000  0.50000000  0.25580270
   0.75000000  0.50000000  0.25580270
   0.25000000  0.25000000  0.00580270
   0.75000000  0.25000000  0.00580270
   0.25000000  0.75000000  0.00580270
   0.75000000  0.75000000  0.00580270
   0.00000000  0.25000000  0.75580270
   0.50000000  0.25000000  0.75580270
   0.00000000  0.75000000  0.75580270
   0.50000000  0.75000000  0.75580270
   0.00000000  0.00000000  0.00757805
   0.50000000  0.00000000  0.00757805
   0.00000000  0.50000000  0.00757805
   0.50000000  0.50000000  0.00757805
   0.25000000  0.00000000  0.75757805
   0.75000000  0.00000000  0.75757805
   0.25000000  0.50000000  0.75757805
   0.75000000  0.50000000  0.75757805
   0.25000000  0.25000000  0.50757805
   0.75000000  0.25000000  0.50757805
   0.25000000  0.75000000  0.50757805
   0.75000000  0.75000000  0.50757805
   0.00000000  0.25000000  0.25757805
   0.50000000  0.25000000  0.25757805
   0.00000000  0.75000000  0.25757805
   0.50000000  0.75000000  0.25757805
 
 position of ions in cartesian coordinates  (Angst):
   1.40265182  1.39914020  1.23532430
   6.64661382  1.71992370  1.23532430
   1.72343532  6.64310220  1.23532430
   6.96739732  6.96388570  1.23532430
   4.16209368  4.16560530  1.23532430
   9.40605568  4.48638880  1.23532430
   4.48287718  9.40956730  1.23532430
   9.72683918  9.73035080  1.23532430
   1.54362430  4.00170193  9.06641336
   6.78758630  4.32248543  9.06641336
   1.86440780  9.24566393  9.06641336
   7.10836980  9.56644743  9.06641336
   4.02112120  1.56304357  9.06641336
   9.26508320  1.88382707  9.06641336
   4.34190470  6.80700557  9.06641336
   9.58586670  7.12778907  9.06641336
   1.37972093  1.38323255  6.45605034
   6.62368293  1.70401605  6.45605034
   1.70050443  6.62719455  6.45605034
   6.94446643  6.94797805  6.45605034
   4.18502457  4.18151295  6.45605034
   9.42898657  4.50229645  6.45605034
   4.50580807  9.42547495  6.45605034
   9.74977007  9.74625845  6.45605034
   4.00521355  1.54011268  3.84568732
   9.24917555  1.86089618  3.84568732
   4.32599705  6.78407468  3.84568732
   9.56995905  7.10485818  3.84568732
   1.55953195  4.02463282  3.84568732
   6.80349395  4.34541632  3.84568732
   1.88031545  9.26859482  3.84568732
   7.12427745  9.58937832  3.84568732
   0.00000000  0.00000000  5.28131462
   5.24396200  0.32078350  5.28131462
   0.32078350  5.24396200  5.28131462
   5.56474550  5.56474550  5.28131462
   2.62198100  0.16039175  2.67095160
   7.86594300  0.48117525  2.67095160
   2.94276450  5.40435375  2.67095160
   8.18672650  5.72513725  2.67095160
   2.78237275  2.78237275  0.06058858
   8.02633475  3.10315625  0.06058858
   3.10315625  8.02633475  0.06058858
   8.34711825  8.34711825  0.06058858
   0.16039175  2.62198100  7.89167764
   5.40435375  2.94276450  7.89167764
   0.48117525  7.86594300  7.89167764
   5.72513725  8.18672650  7.89167764
   0.00000000  0.00000000  0.07912585
   5.24396200  0.32078350  0.07912585
   0.32078350  5.24396200  0.07912585
   5.56474550  5.56474550  0.07912585
   2.62198100  0.16039175  7.91021491
   7.86594300  0.48117525  7.91021491
   2.94276450  5.40435375  7.91021491
   8.18672650  5.72513725  7.91021491
   2.78237275  2.78237275  5.29985189
   8.02633475  3.10315625  5.29985189
   3.10315625  8.02633475  5.29985189
   8.34711825  8.34711825  5.29985189
   0.16039175  2.62198100  2.68948887
   5.40435375  2.94276450  2.68948887
   0.48117525  7.86594300  2.68948887
   5.72513725  8.18672650  2.68948887
 


--------------------------------------------------------------------------------------------------------


 k-point  1 :   0.0000 0.0000 0.0000  plane waves:   48107
 k-point  2 :   0.2500-0.0000 0.0000  plane waves:   48151
 k-point  3 :   0.5000-0.0000 0.0000  plane waves:   48134
 k-point  4 :   0.2500 0.2500 0.0000  plane waves:   48116
 k-point  5 :   0.5000 0.2500 0.0000  plane waves:   48136
 k-point  6 :  -0.2500 0.2500 0.0000  plane waves:   48152
 k-point  7 :   0.5000 0.5000 0.0000  plane waves:   48168
 k-point  8 :   0.0000 0.0000 0.2500  plane waves:   48103
 k-point  9 :   0.2500-0.0000 0.2500  plane waves:   48129
 k-point 10 :   0.5000-0.0000 0.2500  plane waves:   48146
 k-point 11 :   0.2500 0.2500 0.2500  plane waves:   48124
 k-point 12 :   0.5000 0.2500 0.2500  plane waves:   48124
 k-point 13 :  -0.2500 0.2500 0.2500  plane waves:   48104
 k-point 14 :   0.5000 0.5000 0.2500  plane waves:   48118
 k-point 15 :   0.0000 0.0000 0.5000  plane waves:   48090
 k-point 16 :   0.2500-0.0000 0.5000  plane waves:   48124
 k-point 17 :   0.5000-0.0000 0.5000  plane waves:   48084
 k-point 18 :   0.2500 0.2500 0.5000  plane waves:   48096
 k-point 19 :   0.5000 0.2500 0.5000  plane waves:   48096
 k-point 20 :  -0.2500 0.2500 0.5000  plane waves:   48120
 k-point 21 :   0.5000 0.5000 0.5000  plane waves:   48016

 maximum and minimum number of plane-waves per node :     48168    48016

 maximum number of plane-waves:     48168
 maximum index in each direction: 
   IXMAX=   22   IYMAX=   22   IZMAX=   22
   IXMIN=  -23   IYMIN=  -23   IZMIN=  -23


 serial   3D FFT for wavefunctions
 parallel 3D FFT for charge:
    minimum data exchange during FFTs selected (reduces bandwidth)


 total amount of memory used by VASP MPI-rank0   661185. kBytes
=======================================================================

   base      :      30000. kBytes
   nonl-proj :     488484. kBytes
   fftplans  :       4588. kBytes
   grid      :      69719. kBytes
   one-center:       1990. kBytes
   wavefun   :      66404. kBytes
 
     INWAV:  cpu time   39.3053: real time   39.5770
 Broyden mixing: mesh for mixing (old mesh)
   NGX = 45   NGY = 45   NGZ = 45
  (NGX  =192   NGY  =192   NGZ  =180)
  gives a total of  91125 points

 initial charge density was supplied:
 number of electron     688.0000485 magnetization      -0.0000000
 keeping initial charge density in first step


--------------------------------------------------------------------------------------------------------


 Maximum index for augmentation-charges          895 (set IRDMAX)


--------------------------------------------------------------------------------------------------------


 First call to EWALD:  gamma=   0.169
 Maximum number of real-space cells 3x 3x 3
 Maximum number of reciprocal cells 3x 3x 3

    FEWALD:  cpu time    0.0106: real time    0.0257


--------------------------------------- Iteration      1(   1)  ---------------------------------------


    POTLOK:  cpu time    0.3224: real time    0.4905
    SETDIJ:  cpu time    0.0151: real time    0.0153
     EDDAV:  cpu time  728.8031: real time  734.0387
 BZINTS: Fermi energy:  5.137856;688.000000 electrons
         Band energy:***********;  BLOECHL correction:  0.000000
       DOS:  cpu time    0.0247: real time    0.0267
    CHARGE:  cpu time    3.0366: real time    3.0920
    MIXING:  cpu time    0.0061: real time    0.0061
    --------------------------------------------
      LOOP:  cpu time  732.2081: real time  737.6695

 eigenvalue-minimisations  : 83456
 total energy-change (2. order) :-0.3265245E+03  (-0.3078217E-06)
 number of electron     688.0000485 magnetization      -0.0000000
 augmentation part      282.2524307 magnetization      -0.0000000

 Broyden mixing:
  rms(total) = 0.64212E-03    rms(broyden)= 0.64208E-03
  rms(prec ) = 0.78111E-03
  weight for this iteration     100.00

 Free energy of the ion-electron system (eV)
  ---------------------------------------------------
  alpha Z        PSCENC =      2369.41892779
  Ewald energy   TEWEN  =    -62652.77106627
  -Hartree energ DENC   =    -42834.02368657
  -exchange      EXHF   =         0.00000000
  -V(xc)+E(xc)   XCENC  =      3286.39780109
  PAW double counting   =    112139.97024688  -115831.79596968
  entropy T*S    EENTRO =         0.00000000
  eigenvalues    EBANDS =    -10823.78586876
  atomic energy  EATOM  =    114020.06510763
  Solvation  Ediel_sol  =         0.00000000
  ---------------------------------------------------
  free energy    TOTEN  =      -326.52450790 eV

  energy without entropy =     -326.52450790  energy(sigma->0) =     -326.52450790


--------------------------------------------------------------------------------------------------------




--------------------------------------- Iteration      1(   2)  ---------------------------------------


    POTLOK:  cpu time    0.1496: real time    0.1530
    SETDIJ:  cpu time    0.0132: real time    0.0132
     EDDAV:  cpu time  494.7127: real time  498.0406
 BZINTS: Fermi energy:  5.137144;688.000000 electrons
         Band energy:***********;  BLOECHL correction:  0.000000
       DOS:  cpu time    0.0236: real time    0.0237
    CHARGE:  cpu time    3.0511: real time    3.0712
    MIXING:  cpu time    0.0035: real time    0.0314
    --------------------------------------------
      LOOP:  cpu time  497.9537: real time  501.3332

 eigenvalue-minimisations  : 68096
 total energy-change (2. order) : 0.8406641E-06  (-0.3218993E-06)
 number of electron     688.0000485 magnetization      -0.0000000
 augmentation part      282.2526323 magnetization      -0.0000000

 Broyden mixing:
  rms(total) = 0.63276E-03    rms(broyden)= 0.63275E-03
  rms(prec ) = 0.74692E-03
  weight for this iteration     100.00

 eigenvalues of (default mixing * dielectric matrix)
  average eigenvalue GAMMA=   0.3799
  0.3799

 Free energy of the ion-electron system (eV)
  ---------------------------------------------------
  alpha Z        PSCENC =      2369.41892779
  Ewald energy   TEWEN  =    -62652.77106627
  -Hartree energ DENC   =    -42834.03646388
  -exchange      EXHF   =         0.00000000
  -V(xc)+E(xc)   XCENC  =      3286.39854567
  PAW double counting   =    112139.98469419  -115831.81062361
  entropy T*S    EENTRO =         0.00000000
  eigenvalues    EBANDS =    -10823.77362858
  atomic energy  EATOM  =    114020.06510763
  Solvation  Ediel_sol  =         0.00000000
  ---------------------------------------------------
  free energy    TOTEN  =      -326.52450706 eV

  energy without entropy =     -326.52450706  energy(sigma->0) =     -326.52450706


--------------------------------------------------------------------------------------------------------




--------------------------------------- Iteration      1(   3)  ---------------------------------------


    POTLOK:  cpu time    0.1468: real time    0.1517
    SETDIJ:  cpu time    0.0132: real time    0.0132
     EDDAV:  cpu time  533.8526: real time  537.3752
 BZINTS: Fermi energy:  5.136996;688.000000 electrons
         Band energy:***********;  BLOECHL correction:  0.000000
       DOS:  cpu time    0.0237: real time    0.0238
    CHARGE:  cpu time    3.0429: real time    3.0629
    MIXING:  cpu time    0.0026: real time    0.1297
    --------------------------------------------
      LOOP:  cpu time  537.0818: real time  540.7566

 eigenvalue-minimisations  : 70144
 total energy-change (2. order) : 0.2944143E-06  (-0.2867579E-06)
 number of electron     688.0000485 magnetization      -0.0000000
 augmentation part      282.2525142 magnetization      -0.0000000

 Broyden mixing:
  rms(total) = 0.41661E-03    rms(broyden)= 0.41660E-03
  rms(prec ) = 0.48324E-03
  weight for this iteration     100.00

 eigenvalues of (default mixing * dielectric matrix)
  average eigenvalue GAMMA=   0.9141
  1.5243  0.3038

 Free energy of the ion-electron system (eV)
  ---------------------------------------------------
  alpha Z        PSCENC =      2369.41892779
  Ewald energy   TEWEN  =    -62652.77106627
  -Hartree energ DENC   =    -42834.02184132
  -exchange      EXHF   =         0.00000000
  -V(xc)+E(xc)   XCENC  =      3286.39739781
  PAW double counting   =    112139.97639362  -115831.80256677
  entropy T*S    EENTRO =         0.00000000
  eigenvalues    EBANDS =    -10823.78685925
  atomic energy  EATOM  =    114020.06510763
  Solvation  Ediel_sol  =         0.00000000
  ---------------------------------------------------
  free energy    TOTEN  =      -326.52450677 eV

  energy without entropy =     -326.52450677  energy(sigma->0) =     -326.52450677


--------------------------------------------------------------------------------------------------------




--------------------------------------- Iteration      1(   4)  ---------------------------------------


    POTLOK:  cpu time    0.1499: real time    0.1511
    SETDIJ:  cpu time    0.0132: real time    0.0133
     EDDAV:  cpu time  532.3967: real time  535.8899
 BZINTS: Fermi energy:  5.136928;688.000000 electrons
         Band energy:***********;  BLOECHL correction:  0.000000
       DOS:  cpu time    0.0237: real time    0.0238
    CHARGE:  cpu time    3.0448: real time    3.0649
    MIXING:  cpu time    0.0019: real time    0.0112
    --------------------------------------------
      LOOP:  cpu time  535.6303: real time  539.1541

 eigenvalue-minimisations  : 68352
 total energy-change (2. order) : 0.2025336E-06  (-0.5448511E-07)
 number of electron     688.0000485 magnetization       0.0000000
 augmentation part      282.2524053 magnetization       0.0000000

 Broyden mixing:
  rms(total) = 0.15535E-03    rms(broyden)= 0.15535E-03
  rms(prec ) = 0.17998E-03
  weight for this iteration     100.00

 eigenvalues of (default mixing * dielectric matrix)
  average eigenvalue GAMMA=   0.9602
  1.9418  0.5920  0.3468

 Free energy of the ion-electron system (eV)
  ---------------------------------------------------
  alpha Z        PSCENC =      2369.41892779
  Ewald energy   TEWEN  =    -62652.77106627
  -Hartree energ DENC   =    -42834.03321166
  -exchange      EXHF   =         0.00000000
  -V(xc)+E(xc)   XCENC  =      3286.39778190
  PAW double counting   =    112140.00966411  -115831.83648604
  entropy T*S    EENTRO =         0.00000000
  eigenvalues    EBANDS =    -10823.77522403
  atomic energy  EATOM  =    114020.06510763
  Solvation  Ediel_sol  =         0.00000000
  ---------------------------------------------------
  free energy    TOTEN  =      -326.52450656 eV

  energy without entropy =     -326.52450656  energy(sigma->0) =     -326.52450656


--------------------------------------------------------------------------------------------------------




--------------------------------------- Iteration      1(   5)  ---------------------------------------


    POTLOK:  cpu time    0.1480: real time    0.1491
    SETDIJ:  cpu time    0.0133: real time    0.0133
     EDDAV:  cpu time  564.1055: real time  567.8168
 BZINTS: Fermi energy:  5.136904;688.000000 electrons
         Band energy:***********;  BLOECHL correction:  0.000000
       DOS:  cpu time    0.0236: real time    0.0237
    CHARGE:  cpu time    3.0417: real time    3.0612
    MIXING:  cpu time    0.0022: real time    0.0051
    --------------------------------------------
      LOOP:  cpu time  567.3342: real time  571.0691

 eigenvalue-minimisations  : 73216
 total energy-change (2. order) :-0.2200250E-07  (-0.1838671E-07)
 number of electron     688.0000485 magnetization       0.0000000
 augmentation part      282.2525082 magnetization       0.0000000

 Broyden mixing:
  rms(total) = 0.54150E-04    rms(broyden)= 0.54144E-04
  rms(prec ) = 0.57918E-04
  weight for this iteration     100.00

 eigenvalues of (default mixing * dielectric matrix)
  average eigenvalue GAMMA=   1.0817
  1.6822  1.6822  0.3428  0.6196

 Free energy of the ion-electron system (eV)
  ---------------------------------------------------
  alpha Z        PSCENC =      2369.41892779
  Ewald energy   TEWEN  =    -62652.77106627
  -Hartree energ DENC   =    -42834.02959662
  -exchange      EXHF   =         0.00000000
  -V(xc)+E(xc)   XCENC  =      3286.39782493
  PAW double counting   =    112140.00526299  -115831.83143788
  entropy T*S    EENTRO =         0.00000000
  eigenvalues    EBANDS =    -10823.77952914
  atomic energy  EATOM  =    114020.06510763
  Solvation  Ediel_sol  =         0.00000000
  ---------------------------------------------------
  free energy    TOTEN  =      -326.52450659 eV

  energy without entropy =     -326.52450659  energy(sigma->0) =     -326.52450659


--------------------------------------------------------------------------------------------------------




--------------------------------------- Iteration      1(   6)  ---------------------------------------


    POTLOK:  cpu time    0.1488: real time    0.1499
    SETDIJ:  cpu time    0.0132: real time    0.0132
     EDDAV:  cpu time  213.5842: real time  215.1564
 BZINTS: Fermi energy:  5.136893;688.000000 electrons
         Band energy:***********;  BLOECHL correction:  0.000000
       DOS:  cpu time    0.0248: real time    0.0249
    --------------------------------------------
      LOOP:  cpu time  213.7710: real time  215.3444

 eigenvalue-minimisations  : 35328
 total energy-change (2. order) :-0.6781192E-08  (-0.9229769E-09)
 number of electron     688.0000485 magnetization       0.0000000
 augmentation part      282.2525082 magnetization       0.0000000

 Free energy of the ion-electron system (eV)
  ---------------------------------------------------
  alpha Z        PSCENC =      2369.41892779
  Ewald energy   TEWEN  =    -62652.77106627
  -Hartree energ DENC   =    -42834.03009231
  -exchange      EXHF   =         0.00000000
  -V(xc)+E(xc)   XCENC  =      3286.39785212
  PAW double counting   =    112139.99057501  -115831.81686999
  entropy T*S    EENTRO =         0.00000000
  eigenvalues    EBANDS =    -10823.77894057
  atomic energy  EATOM  =    114020.06510763
  Solvation  Ediel_sol  =         0.00000000
  ---------------------------------------------------
  free energy    TOTEN  =      -326.52450659 eV

  energy without entropy =     -326.52450659  energy(sigma->0) =     -326.52450659


--------------------------------------------------------------------------------------------------------




 average (electrostatic) potential at core
  the test charge radii are     0.9698  0.8297  0.9500
  (the norm of the test charge is              1.0000)
       1 -86.5502       2 -86.5502       3 -86.5502       4 -86.5502       5 -86.5502
       6 -86.5502       7 -86.5502       8 -86.5502       9 -86.5502      10 -86.5502
      11 -86.5502      12 -86.5502      13 -86.5502      14 -86.5502      15 -86.5502
      16 -86.5502      17 -86.5502      18 -86.5502      19 -86.5502      20 -86.5502
      21 -86.5502      22 -86.5502      23 -86.5502      24 -86.5502      25 -86.5502
      26 -86.5502      27 -86.5502      28 -86.5502      29 -86.5502      30 -86.5502
      31 -86.5502      32 -86.5502      33 -80.6442      34 -80.6442      35 -80.6442
      36 -80.6442      37 -80.6442      38 -80.6442      39 -80.6442      40 -80.6442
      41 -80.6442      42 -80.6442      43 -80.6442      44 -80.6442      45 -80.6442
      46 -80.6442      47 -80.6442      48 -80.6442      49 -80.1365      50 -80.1365
      51 -80.1365      52 -80.1365      53 -80.1365      54 -80.1365      55 -80.1365
      56 -80.1365      57 -80.1365      58 -80.1365      59 -80.1365      60 -80.1365
      61 -80.1365      62 -80.1365      63 -80.1365      64 -80.1365
 
 
 
 E-fermi :   5.1369     XC(G=0): -10.5060     alpha+bet :-10.6058


 spin component 1

 k-point     1 :       0.0000    0.0000    0.0000
  band No.  band energies     occupation 
      1     -64.2584      1.00000
      2     -64.2584      1.00000
      3     -64.2584      1.00000
      4     -64.2584      1.00000
      5     -64.2584      1.00000
      6     -64.2584      1.00000
      7     -64.2584      1.00000
      8     -64.2584      1.00000
      9     -64.2347      1.00000
     10     -64.2347      1.00000
     11     -64.2347      1.00000
     12     -64.2347      1.00000
     13     -64.2347      1.00000
     14     -64.2347      1.00000
     15     -64.2347      1.00000
     16     -64.2347      1.00000
     17     -64.2280      1.00000
     18     -64.2280      1.00000
     19     -64.2280      1.00000
     20     -64.2280      1.00000
     21     -64.2280      1.00000
     22     -64.2280      1.00000
     23     -64.2280      1.00000
     24     -64.2280      1.00000
     25     -64.2219      1.00000
     26     -64.2219      1.00000
     27     -64.2219      1.00000
     28     -64.2219      1.00000
     29     -64.2219      1.00000
     30     -64.2219      1.00000
     31     -64.2219      1.00000
     32     -64.2219      1.00000
     33     -64.2046      1.00000
     34     -64.2046      1.00000
     35     -64.2046      1.00000
     36     -64.2046      1.00000
     37     -64.2046      1.00000
     38     -64.2046      1.00000
     39     -64.2046      1.00000
     40     -64.2046      1.00000
     41     -64.1795      1.00000
     42     -64.1795      1.00000
     43     -64.1795      1.00000
     44     -64.1795      1.00000
     45     -64.1795      1.00000
     46     -64.1795      1.00000
     47     -64.1795      1.00000
     48     -64.1795      1.00000
     49     -51.8237      1.00000
     50     -51.8237      1.00000
     51     -51.8237      1.00000
     52     -51.8237      1.00000
     53     -51.8237      1.00000
     54     -51.8237      1.00000
     55     -51.8237      1.00000
     56     -51.8237      1.00000
     57     -51.7435      1.00000
     58     -51.7435      1.00000
     59     -51.7435      1.00000
     60     -51.7435      1.00000
     61     -51.7435      1.00000
     62     -51.7435      1.00000
     63     -51.7435      1.00000
     64     -51.7435      1.00000
     65     -51.7293      1.00000
     66     -51.7293      1.00000
     67     -51.7293      1.00000
     68     -51.7293      1.00000
     69     -51.7293      1.00000
     70     -51.7293      1.00000
     71     -51.7293      1.00000
     72     -51.7293      1.00000
     73     -47.6598      1.00000
     74     -47.6598      1.00000
     75     -47.6598      1.00000
     76     -47.6598      1.00000
     77     -47.6598      1.00000
     78     -47.6598      1.00000
     79     -47.6598      1.00000
     80     -47.6598      1.00000
     81     -47.6300      1.00000
     82     -47.6300      1.00000
     83     -47.6300      1.00000
     84     -47.6300      1.00000
     85     -47.6300      1.00000
     86     -47.6300      1.00000
     87     -47.6300      1.00000
     88     -47.6300      1.00000
     89     -47.6268      1.00000
     90     -47.6267      1.00000
     91     -47.6267      1.00000
     92     -47.6267      1.00000
     93     -47.6267      1.00000
     94     -47.6267      1.00000
     95     -47.6267      1.00000
     96     -47.6267      1.00000
     97      -9.0645      1.00000
     98      -8.4663      1.00000
     99      -8.4252      1.00000
    100      -8.4246      1.00000
    101      -8.4246      1.00000
    102      -8.4240      1.00000
    103      -8.4240      1.00000
    104      -8.1968      1.00000
    105      -8.1596      1.00000
    106      -8.1533      1.00000
    107      -8.1229      1.00000
    108      -8.0743      1.00000
    109      -8.0743      1.00000
    110      -8.0742      1.00000
    111      -8.0742      1.00000
    112      -8.0279      1.00000
    113      -8.0279      1.00000
    114      -8.0279      1.00000
    115      -8.0279      1.00000
    116      -7.9452      1.00000
    117      -7.9241      1.00000
    118      -7.8940      1.00000
    119      -7.8651      1.00000
    120      -7.7142      1.00000
    121      -7.6783      1.00000
    122      -7.6783      1.00000
    123      -7.6771      1.00000
    124      -7.6771      1.00000
    125      -7.6759      1.00000
    126      -7.6718      1.00000
    127      -7.6219      1.00000
    128      -7.6153      1.00000
    129      -2.0202      1.00000
    130      -1.9567      1.00000
    131      -1.9567      1.00000
    132      -1.9475      1.00000
    133      -1.9391      1.00000
    134      -1.9391      1.00000
    135      -1.9071      1.00000
    136      -1.8857      1.00000
    137      -1.8366      1.00000
    138      -1.8293      1.00000
    139      -1.8184      1.00000
    140      -1.8184      1.00000
    141      -1.8140      1.00000
    142      -1.8140      1.00000
    143      -1.8135      1.00000
    144      -1.7947      1.00000
    145      -1.7839      1.00000
    146      -1.7832      1.00000
    147      -1.7683      1.00000
    148      -1.7537      1.00000
    149      -1.7537      1.00000
    150      -1.7499      1.00000
    151      -1.7499      1.00000
    152      -1.7474      1.00000
    153      -1.7467      1.00000
    154      -1.7122      1.00000
    155      -1.7122      1.00000
    156      -1.6855      1.00000
    157      -1.6855      1.00000
    158      -1.6842      1.00000
    159      -1.6569      1.00000
    160      -1.6569      1.00000
    161      -1.6550      1.00000
    162      -1.6518      1.00000
    163      -1.6518      1.00000
    164      -1.6223      1.00000
    165      -1.6195      1.00000
    166      -1.6027      1.00000
    167      -1.5619      1.00000
    168      -1.5336      1.00000
    169      -1.0521      1.00000
    170      -0.9121      1.00000
    171      -0.7657      1.00000
    172      -0.6948      1.00000
    173      -0.6543      1.00000
    174      -0.4897      1.00000
    175      -0.1662      1.00000
    176      -0.1662      1.00000
    177      -0.1599      1.00000
    178      -0.1599      1.00000
    179      -0.1424      1.00000
    180      -0.1288      1.00000
    181      -0.0572      1.00000
    182       0.0213      1.00000
    183       0.0213      1.00000
    184       0.0390      1.00000
    185       0.0390      1.00000
    186       0.0630      1.00000
    187       0.0827      1.00000
    188       0.1569      1.00000
    189       0.1569      1.00000
    190       0.1603      1.00000
    191       0.1603      1.00000
    192       0.1624      1.00000
    193       0.2526      1.00000
    194       0.3457      1.00000
    195       0.3564      1.00000
    196       0.3564      1.00000
    197       0.3721      1.00000
    198       0.3721      1.00000
    199       0.4438      1.00000
    200       0.7077      1.00000
    201       0.7652      1.00000
    202       0.8199      1.00000
    203       0.8527      1.00000
    204       0.8735      1.00000
    205       0.8735      1.00000
    206       0.8895      1.00000
    207       0.8895      1.00000
    208       0.9281      1.00000
    209       0.9281      1.00000
    210       0.9524      1.00000
    211       0.9524      1.00000
    212       0.9871      1.00000
    213       1.0394      1.00000
    214       1.0939      1.00000
    215       1.0939      1.00000
    216       1.0941      1.00000
    217       1.0941      1.00000
    218       1.1579      1.00000
    219       1.2180      1.00000
    220       1.2337      1.00000
    221       1.2618      1.00000
    222       1.2618      1.00000
    223       1.2650      1.00000
    224       1.2650      1.00000
    225       1.2781      1.00000
    226       1.2932      1.00000
    227       1.3107      1.00000
    228       1.3126      1.00000
    229       1.3222      1.00000
    230       1.3226      1.00000
    231       1.3701      1.00000
    232       1.3714      1.00000
    233       1.3714      1.00000
    234       1.3863      1.00000
    235       1.3863      1.00000
    236       1.4558      1.00000
    237       1.5697      1.00000
    238       1.6460      1.00000
    239       1.7032      1.00000
    240       1.7047      1.00000
    241       1.7221      1.00000
    242       1.7293      1.00000
    243       1.8516      1.00000
    244       1.8542      1.00000
    245       1.8542      1.00000
    246       1.8711      1.00000
    247       1.8711      1.00000
    248       1.8825      1.00000
    249       1.9545      1.00000
    250       1.9545      1.00000
    251       1.9862      1.00000
    252       1.9895      1.00000
    253       1.9895      1.00000
    254       2.0170      1.00000
    255       2.1692      1.00000
    256       2.2152      1.00000
    257       2.2152      1.00000
    258       2.2160      1.00000
    259       2.2332      1.00000
    260       2.3104      1.00000
    261       2.3104      1.00000
    262       2.3228      1.00000
    263       2.5308      1.00000
    264       2.6084      1.00000
    265       2.6908      1.00000
    266       2.7854      1.00000
    267       2.7854      1.00000
    268       2.8000      1.00000
    269       2.8207      1.00000
    270       2.8207      1.00000
    271       2.8209      1.00000
    272       2.8337      1.00000
    273       2.8337      1.00000
    274       2.8399      1.00000
    275       2.8399      1.00000
    276       2.8480      1.00000
    277       2.8522      1.00000
    278       2.8830      1.00000
    279       2.9148      1.00000
    280       2.9230      1.00000
    281       2.9776      1.00000
    282       2.9976      1.00000
    283       2.9976      1.00000
    284       3.0016      1.00000
    285       3.0016      1.00000
    286       3.0111      1.00000
    287       3.0400      1.00000
    288       3.0808      1.00000
    289       3.0980      1.00000
    290       3.1854      1.00000
    291       3.2062      1.00000
    292       3.2065      1.00000
    293       3.2065      1.00000
    294       3.2324      1.00000
    295       3.2552      1.00000
    296       3.2552      1.00000
    297       3.3402      1.00000
    298       3.3729      1.00000
    299       3.3882      1.00000
    300       3.3882      1.00000
    301       3.4048      1.00000
    302       3.5077      1.00000
    303       3.5182      1.00000
    304       3.5182      1.00000
    305       3.5541      1.00000
    306       3.6244      1.00000
    307       3.6244      1.00000
    308       3.6308      1.00000
    309       3.6313      1.00000
    310       3.6313      1.00000
    311       3.7323      1.00000
    312       3.7323      1.00000
    313       3.7430      1.00000
    314       3.7430      1.00000
    315       3.7633      1.00000
    316       3.8298      1.00000
    317       3.8911      1.00000
    318       3.9462      1.00000
    319       4.0639      1.00000
    320       4.0710      1.00000
    321       4.0925      1.00000
    322       4.0925      1.00000
    323       4.1009      1.00000
    324       4.1009      1.00000
    325       4.1547      1.00000
    326       4.1547      1.00000
    327       4.1615      1.00000
    328       4.1839      1.00000
    329       4.1916      1.00000
    330       4.2530      1.00000
    331       4.2530      1.00000
    332       4.2876      1.00000
    333       4.3050      1.00000
    334       4.3600      1.00000
    335       4.4211      1.00000
    336       4.6610      1.00000
    337       4.6865      1.00000
    338       4.6865      1.00000
    339       4.7164      1.00000
    340       4.7242      1.00000
    341       4.7327      1.00000
    342       4.7327      1.00000
    343       4.9043      1.00000
    344       5.0283      1.00000
    345       5.7110      0.00000
    346       5.7110      0.00000
    347       5.7699      0.00000
    348       5.7699      0.00000
    349       5.8190      0.00000
    350       5.8451      0.00000
    351       5.8828      0.00000
    352       5.9594      0.00000
    353       5.9984      0.00000
    354       5.9984      0.00000
    355       6.0069      0.00000
    356       6.0278      0.00000
    357       6.0930      0.00000
    358       6.0930      0.00000
    359       6.0963      0.00000
    360       6.1329      0.00000
    361       6.1329      0.00000
    362       6.1552      0.00000
    363       6.1809      0.00000
    364       6.1809      0.00000
    365       6.2403      0.00000
    366       6.2427      0.00000
    367       6.2668      0.00000
    368       6.2668      0.00000
    369       6.2748      0.00000
    370       6.2748      0.00000
    371       6.2948      0.00000
    372       6.3321      0.00000
    373       6.3516      0.00000
    374       6.3992      0.00000
    375       6.4368      0.00000
    376       6.4769      0.00000
    377       6.5135      0.00000
    378       6.5410      0.00000
    379       6.6047      0.00000
    380       6.6047      0.00000
    381       6.6159      0.00000
    382       6.6159      0.00000
    383       6.6549      0.00000
    384       6.8690      0.00000
    385       7.5664      0.00000
    386       8.3759      0.00000
    387       8.6810      0.00000
    388       8.8021      0.00000
    389       8.8194      0.00000
    390       8.9518      0.00000
    391       8.9704      0.00000
    392       9.3170      0.00000
    393       9.4388      0.00000
    394       9.4388      0.00000
    395       9.4398      0.00000
    396       9.4398      0.00000
    397       9.6019      0.00000
    398       9.7185      0.00000
    399      10.0482      0.00000
    400      10.1322      0.00000
    401      10.2273      0.00000
    402      10.5358      0.00000
    403      10.5358      0.00000
    404      10.5463      0.00000
    405      10.5496      0.00000
    406      10.5496      0.00000
    407      10.6791      0.00000
    408      10.6791      0.00000
    409      10.6879      0.00000
    410      10.6879      0.00000
    411      10.7352      0.00000
    412      10.7427      0.00000
    413      10.7427      0.00000
    414      10.7486      0.00000
    415      10.7629      0.00000
    416      10.7629      0.00000
    417      10.8708      0.00000
    418      10.8708      0.00000
    419      10.9091      0.00000
    420      10.9213      0.00000
    421      10.9213      0.00000
    422      10.9220      0.00000
    423      11.0820      0.00000
    424      11.2248      0.00000
    425      11.3562      0.00000
    426      11.4406      0.00000
    427      11.4406      0.00000
    428      11.4511      0.00000
    429      11.4511      0.00000
    430      11.5994      0.00000
    431      11.6421      0.00000
    432      11.6622      0.00000
    433      11.6995      0.00000
    434      11.6995      0.00000
    435      11.7097      0.00000
    436      11.7111      0.00000
    437      11.7111      0.00000
    438      11.9402      0.00000
    439      12.0000      0.00000
    440      12.0099      0.00000
    441      12.0127      0.00000
    442      12.0800      0.00000
    443      12.1296      0.00000
    444      12.2029      0.00000
    445      12.2722      0.00000
    446      12.3063      0.00000
    447      12.3743      0.00000
[...]
   -.416E+02 0.997E+00 0.373E+02   0.424E+02 -.956E+00 -.377E+02   -.825E+00 -.403E-01 0.365E+00   -.476E-04 0.659E-05 -.770E-05
   -.416E+02 0.997E+00 0.373E+02   0.424E+02 -.956E+00 -.377E+02   -.825E+00 -.403E-01 0.365E+00   -.476E-04 0.659E-05 -.770E-05
   -.416E+02 0.997E+00 0.373E+02   0.424E+02 -.956E+00 -.377E+02   -.825E+00 -.403E-01 0.365E+00   -.476E-04 0.659E-05 -.770E-05
   -.416E+02 0.997E+00 0.373E+02   0.424E+02 -.956E+00 -.377E+02   -.825E+00 -.403E-01 0.365E+00   -.476E-04 0.659E-05 -.770E-05
   0.416E+02 -.997E+00 0.373E+02   -.424E+02 0.956E+00 -.377E+02   0.825E+00 0.403E-01 0.365E+00   0.476E-04 -.659E-05 -.770E-05
   0.416E+02 -.997E+00 0.373E+02   -.424E+02 0.956E+00 -.377E+02   0.825E+00 0.403E-01 0.365E+00   0.476E-04 -.659E-05 -.770E-05
   0.416E+02 -.997E+00 0.373E+02   -.424E+02 0.956E+00 -.377E+02   0.825E+00 0.403E-01 0.365E+00   0.476E-04 -.659E-05 -.770E-05
   0.416E+02 -.997E+00 0.373E+02   -.424E+02 0.956E+00 -.377E+02   0.825E+00 0.403E-01 0.365E+00   0.476E-04 -.659E-05 -.770E-05
   0.997E+00 -.416E+02 0.373E+02   -.956E+00 0.424E+02 -.377E+02   -.403E-01 -.825E+00 0.365E+00   0.659E-05 -.476E-04 -.770E-05
   0.997E+00 -.416E+02 0.373E+02   -.956E+00 0.424E+02 -.377E+02   -.403E-01 -.825E+00 0.365E+00   0.659E-05 -.476E-04 -.770E-05
   0.997E+00 -.416E+02 0.373E+02   -.956E+00 0.424E+02 -.377E+02   -.403E-01 -.825E+00 0.365E+00   0.659E-05 -.476E-04 -.770E-05
   0.997E+00 -.416E+02 0.373E+02   -.956E+00 0.424E+02 -.377E+02   -.403E-01 -.825E+00 0.365E+00   0.659E-05 -.476E-04 -.770E-05
   -.997E+00 0.416E+02 0.373E+02   0.956E+00 -.424E+02 -.377E+02   0.403E-01 0.825E+00 0.365E+00   -.659E-05 0.476E-04 -.770E-05
   -.997E+00 0.416E+02 0.373E+02   0.956E+00 -.424E+02 -.377E+02   0.403E-01 0.825E+00 0.365E+00   -.659E-05 0.476E-04 -.770E-05
   -.997E+00 0.416E+02 0.373E+02   0.956E+00 -.424E+02 -.377E+02   0.403E-01 0.825E+00 0.365E+00   -.659E-05 0.476E-04 -.770E-05
   -.997E+00 0.416E+02 0.373E+02   0.956E+00 -.424E+02 -.377E+02   0.403E-01 0.825E+00 0.365E+00   -.659E-05 0.476E-04 -.770E-05
   -.777E-07 0.183E-07 -.438E+02   -.516E-11 0.514E-11 0.420E+02   -.932E-19 0.190E-18 0.176E+01   -.197E-11 0.363E-12 -.569E-03
   -.777E-07 0.183E-07 -.438E+02   -.529E-12 0.204E-10 0.420E+02   0.695E-19 0.244E-18 0.176E+01   -.183E-11 -.399E-11 -.569E-03
   -.777E-07 0.183E-07 -.438E+02   0.148E-10 0.384E-11 0.420E+02   -.762E-19 -.271E-18 0.176E+01   0.182E-11 0.321E-11 -.569E-03
   -.777E-07 0.183E-07 -.438E+02   0.194E-10 0.190E-10 0.420E+02   0.136E-18 0.271E-19 0.176E+01   -.962E-11 0.423E-11 -.569E-03
   0.183E-07 -.777E-07 -.438E+02   -.475E-11 -.227E-10 0.420E+02   0.145E-18 0.779E-19 0.176E+01   0.720E-11 0.227E-11 -.569E-03
   0.183E-07 -.777E-07 -.438E+02   -.615E-11 -.271E-11 0.420E+02   0.259E-18 0.779E-19 0.176E+01   -.154E-10 -.133E-12 -.569E-03
   0.183E-07 -.777E-07 -.438E+02   0.104E-10 -.180E-10 0.420E+02   -.161E-18 -.983E-19 0.176E+01   0.795E-12 0.136E-11 -.569E-03
   0.183E-07 -.777E-07 -.438E+02   0.904E-11 0.199E-11 0.420E+02   -.140E-18 0.169E-19 0.176E+01   -.907E-11 0.305E-11 -.569E-03
   -.777E-07 0.183E-07 -.438E+02   -.193E-10 -.190E-10 0.420E+02   0.457E-19 -.136E-18 0.176E+01   0.582E-11 -.219E-11 -.569E-03
   -.777E-07 0.183E-07 -.438E+02   -.148E-10 -.376E-11 0.420E+02   0.762E-19 -.108E-18 0.176E+01   -.708E-11 0.263E-11 -.569E-03
   -.777E-07 0.183E-07 -.438E+02   0.568E-12 -.204E-10 0.420E+02   0.102E-19 0.163E-18 0.176E+01   0.388E-11 0.758E-11 -.569E-03
   -.777E-07 0.184E-07 -.438E+02   0.512E-11 -.521E-11 0.420E+02   -.169E-20 0.271E-19 0.176E+01   -.855E-11 0.951E-12 -.569E-03
   0.183E-07 -.777E-07 -.438E+02   -.937E-11 -.164E-11 0.420E+02   0.826E-20 -.881E-19 0.176E+01   -.670E-11 0.219E-12 -.569E-03
   0.183E-07 -.777E-07 -.438E+02   -.108E-10 0.184E-10 0.420E+02   0.152E-19 0.305E-19 0.176E+01   0.345E-11 0.103E-10 -.569E-03
   0.183E-07 -.777E-07 -.438E+02   0.577E-11 0.297E-11 0.420E+02   0.292E-19 0.305E-19 0.176E+01   -.720E-11 -.215E-11 -.569E-03
   0.183E-07 -.777E-07 -.438E+02   0.440E-11 0.231E-10 0.420E+02   0.233E-20 0.203E-19 0.176E+01   0.302E-11 -.710E-11 -.569E-03
   0.996E-09 0.950E-09 -.354E+02   0.450E-11 -.428E-11 0.333E+02   -.127E-17 -.759E-18 0.206E+01   -.295E-11 -.259E-11 0.745E-04
   0.999E-09 0.950E-09 -.354E+02   0.265E-12 -.162E-10 0.333E+02   -.318E-18 -.542E-18 0.206E+01   0.519E-11 0.128E-12 0.745E-04
   0.995E-09 0.954E-09 -.354E+02   -.118E-10 -.328E-11 0.333E+02   -.691E-18 -.217E-18 0.206E+01   -.540E-11 -.518E-12 0.745E-04
   0.997E-09 0.940E-09 -.354E+02   -.161E-10 -.152E-10 0.333E+02   0.732E-18 0.152E-17 0.206E+01   0.872E-11 0.192E-11 0.745E-04
   0.953E-09 0.996E-09 -.354E+02   0.381E-11 0.185E-10 0.333E+02   -.712E-18 -.867E-18 0.206E+01   -.739E-11 0.281E-13 0.745E-04
   0.955E-09 0.996E-09 -.354E+02   0.481E-11 0.235E-11 0.333E+02   -.501E-18 -.976E-18 0.206E+01   0.107E-10 0.147E-11 0.745E-04
   0.952E-09 0.987E-09 -.354E+02   -.811E-11 0.143E-10 0.333E+02   0.142E-18 -.325E-18 0.206E+01   -.268E-11 0.145E-11 0.745E-04
   0.956E-09 0.101E-08 -.354E+02   -.712E-11 -.194E-11 0.333E+02   -.745E-18 0.542E-18 0.206E+01   0.633E-11 0.250E-11 0.745E-04
   0.998E-09 0.950E-09 -.354E+02   0.167E-10 0.150E-10 0.333E+02   -.346E-18 0.152E-17 0.206E+01   -.550E-11 0.428E-11 0.745E-04
   0.100E-08 0.940E-09 -.354E+02   0.124E-10 0.304E-11 0.333E+02   0.176E-17 0.217E-18 0.206E+01   0.607E-11 0.665E-12 0.745E-04
   0.998E-09 0.965E-09 -.354E+02   0.355E-12 0.160E-10 0.333E+02   0.434E-18 0.108E-17 0.206E+01   -.207E-11 -.431E-11 0.745E-04
   0.100E-08 0.976E-09 -.354E+02   -.391E-11 0.407E-11 0.333E+02   -.264E-18 -.141E-17 0.206E+01   0.375E-11 0.111E-11 0.745E-04
   0.952E-09 0.997E-09 -.354E+02   0.686E-11 0.206E-11 0.333E+02   -.861E-18 -.217E-18 0.206E+01   0.498E-11 -.978E-12 0.745E-04
   0.952E-09 0.954E-09 -.354E+02   0.792E-11 -.143E-10 0.333E+02   -.413E-18 0.119E-17 0.206E+01   0.936E-12 -.535E-11 0.745E-04
   0.951E-09 0.100E-08 -.354E+02   -.510E-11 -.217E-11 0.333E+02   -.197E-18 0.976E-18 0.206E+01   0.325E-11 -.563E-13 0.745E-04
   0.955E-09 0.101E-08 -.354E+02   -.400E-11 -.186E-10 0.333E+02   -.190E-18 0.217E-18 0.206E+01   0.208E-11 0.501E-11 0.745E-04
 -----------------------------------------------------------------------------------------------
   -.596E-07 -.598E-07 -.729E+02   0.309E-14 0.115E-12 -.165E-11   0.392E-15 -.553E-15 0.729E+02   -.145E-10 0.255E-10 -.817E-02
 
 
 POSITION                                       TOTAL-FORCE (eV/Angst)
 -----------------------------------------------------------------------------------
      1.40265      1.39914      1.23532        -0.000015      0.000058      0.000082
      6.64661      1.71992      1.23532        -0.000015      0.000058      0.000082
      1.72344      6.64310      1.23532        -0.000015      0.000058      0.000082
      6.96740      6.96389      1.23532        -0.000015      0.000058      0.000082
      4.16209      4.16561      1.23532         0.000015     -0.000058      0.000082
      9.40606      4.48639      1.23532         0.000015     -0.000058      0.000082
      4.48288      9.40957      1.23532         0.000015     -0.000058      0.000082
      9.72684      9.73035      1.23532         0.000015     -0.000058      0.000082
      1.54362      4.00170      9.06641        -0.000058      0.000015      0.000082
      6.78759      4.32249      9.06641        -0.000058      0.000015      0.000082
      1.86441      9.24566      9.06641        -0.000058      0.000015      0.000082
      7.10837      9.56645      9.06641        -0.000058      0.000015      0.000082
      4.02112      1.56304      9.06641         0.000058     -0.000015      0.000082
      9.26508      1.88383      9.06641         0.000058     -0.000015      0.000082
      4.34190      6.80701      9.06641         0.000058     -0.000015      0.000082
      9.58587      7.12779      9.06641         0.000058     -0.000015      0.000082
      1.37972      1.38323      6.45605         0.000015     -0.000058      0.000082
      6.62368      1.70402      6.45605         0.000015     -0.000058      0.000082
      1.70050      6.62719      6.45605         0.000015     -0.000058      0.000082
      6.94447      6.94798      6.45605         0.000015     -0.000058      0.000082
      4.18502      4.18151      6.45605        -0.000015      0.000058      0.000082
      9.42899      4.50230      6.45605        -0.000015      0.000058      0.000082
      4.50581      9.42547      6.45605        -0.000015      0.000058      0.000082
      9.74977      9.74626      6.45605        -0.000015      0.000058      0.000082
      4.00521      1.54011      3.84569        -0.000058      0.000015      0.000082
      9.24918      1.86090      3.84569        -0.000058      0.000015      0.000082
      4.32600      6.78407      3.84569        -0.000058      0.000015      0.000082
      9.56996      7.10486      3.84569        -0.000058      0.000015      0.000082
      1.55953      4.02463      3.84569         0.000058     -0.000015      0.000082
      6.80349      4.34542      3.84569         0.000058     -0.000015      0.000082
      1.88032      9.26859      3.84569         0.000058     -0.000015      0.000082
      7.12428      9.58938      3.84569         0.000058     -0.000015      0.000082
      0.00000      0.00000      5.28131         0.000000      0.000000     -0.000454
      5.24396      0.32078      5.28131         0.000000      0.000000     -0.000454
      0.32078      5.24396      5.28131         0.000000      0.000000     -0.000454
      5.56475      5.56475      5.28131         0.000000      0.000000     -0.000454
      2.62198      0.16039      2.67095         0.000000      0.000000     -0.000454
      7.86594      0.48118      2.67095         0.000000      0.000000     -0.000454
      2.94276      5.40435      2.67095         0.000000      0.000000     -0.000454
      8.18673      5.72514      2.67095         0.000000      0.000000     -0.000454
      2.78237      2.78237      0.06059         0.000000      0.000000     -0.000454
      8.02633      3.10316      0.06059         0.000000      0.000000     -0.000454
      3.10316      8.02633      0.06059         0.000000      0.000000     -0.000454
      8.34712      8.34712      0.06059         0.000000      0.000000     -0.000454
      0.16039      2.62198      7.89168         0.000000      0.000000     -0.000454
      5.40435      2.94276      7.89168         0.000000      0.000000     -0.000454
      0.48118      7.86594      7.89168         0.000000      0.000000     -0.000454
      5.72514      8.18673      7.89168         0.000000      0.000000     -0.000454
      0.00000      0.00000      0.07913         0.000000      0.000000      0.000291
      5.24396      0.32078      0.07913         0.000000      0.000000      0.000291
      0.32078      5.24396      0.07913         0.000000      0.000000      0.000291
      5.56475      5.56475      0.07913         0.000000      0.000000      0.000291
      2.62198      0.16039      7.91021         0.000000      0.000000      0.000291
      7.86594      0.48118      7.91021         0.000000      0.000000      0.000291
      2.94276      5.40435      7.91021         0.000000      0.000000      0.000291
      8.18673      5.72514      7.91021         0.000000      0.000000      0.000291
      2.78237      2.78237      5.29985         0.000000      0.000000      0.000291
      8.02633      3.10316      5.29985         0.000000      0.000000      0.000291
      3.10316      8.02633      5.29985         0.000000      0.000000      0.000291
      8.34712      8.34712      5.29985         0.000000      0.000000      0.000291
      0.16039      2.62198      2.68949         0.000000      0.000000      0.000291
      5.40435      2.94276      2.68949         0.000000      0.000000      0.000291
      0.48118      7.86594      2.68949         0.000000      0.000000      0.000291
      5.72514      8.18673      2.68949         0.000000      0.000000      0.000291
 -----------------------------------------------------------------------------------
    total drift:                               -0.000000     -0.000000     -0.010012


--------------------------------------------------------------------------------------------------------



  FREE ENERGIE OF THE ION-ELECTRON SYSTEM (eV)
  ---------------------------------------------------
  free  energy   TOTEN  =      -326.52450659 eV

  energy  without entropy=     -326.52450659  energy(sigma->0) =     -326.52450659
 


--------------------------------------------------------------------------------------------------------


    POTLOK:  cpu time    0.1569: real time    0.1576


--------------------------------------------------------------------------------------------------------


 writing wavefunctions
     LOOP+:  cpu time 3655.4139: real time 4221.0915
    4ORBIT:  cpu time    0.0000: real time    0.0000
 


 total charge     
 
# of ion       s       p       d       tot
------------------------------------------
    1        1.315   2.405   0.000   3.721
    2        1.315   2.405   0.000   3.721
    3        1.315   2.405   0.000   3.721
    4        1.315   2.405   0.000   3.721
    5        1.315   2.405   0.000   3.720
    6        1.315   2.405   0.000   3.720
    7        1.315   2.405   0.000   3.720
    8        1.315   2.405   0.000   3.720
    9        1.315   2.405   0.000   3.721
   10        1.315   2.405   0.000   3.721
   11        1.315   2.405   0.000   3.721
   12        1.315   2.405   0.000   3.721
   13        1.315   2.405   0.000   3.721
   14        1.315   2.405   0.000   3.721
   15        1.315   2.405   0.000   3.721
   16        1.315   2.405   0.000   3.721
   17        1.315   2.405   0.000   3.720
   18        1.315   2.405   0.000   3.720
   19        1.315   2.405   0.000   3.720
   20        1.315   2.405   0.000   3.720
   21        1.315   2.405   0.000   3.721
   22        1.315   2.405   0.000   3.721
   23        1.315   2.405   0.000   3.721
   24        1.315   2.405   0.000   3.721
   25        1.315   2.405   0.000   3.721
   26        1.315   2.405   0.000   3.721
   27        1.315   2.405   0.000   3.721
   28        1.315   2.405   0.000   3.721
   29        1.315   2.405   0.000   3.721
   30        1.315   2.405   0.000   3.721
   31        1.315   2.405   0.000   3.721
   32        1.315   2.405   0.000   3.721
   33        0.258   6.201   8.916  15.375
   34        0.258   6.201   8.916  15.375
   35        0.258   6.201   8.916  15.375
   36        0.258   6.201   8.916  15.375
   37        0.258   6.201   8.916  15.375
   38        0.258   6.201   8.916  15.375
   39        0.258   6.201   8.916  15.375
   40        0.258   6.201   8.916  15.375
   41        0.258   6.201   8.916  15.375
   42        0.258   6.201   8.916  15.375
   43        0.258   6.201   8.916  15.375
   44        0.258   6.201   8.916  15.375
   45        0.258   6.201   8.916  15.375
   46        0.258   6.201   8.916  15.375
   47        0.258   6.201   8.916  15.375
   48        0.258   6.201   8.916  15.375
   49        0.346   6.345   5.823  12.514
   50        0.346   6.345   5.823  12.514
   51        0.346   6.345   5.823  12.514
   52        0.346   6.345   5.823  12.514
   53        0.346   6.345   5.823  12.514
   54        0.346   6.345   5.823  12.514
   55        0.346   6.345   5.823  12.514
   56        0.346   6.345   5.823  12.514
   57        0.346   6.345   5.823  12.514
   58        0.346   6.345   5.823  12.514
   59        0.346   6.345   5.823  12.514
   60        0.346   6.345   5.823  12.514
   61        0.346   6.345   5.823  12.514
   62        0.346   6.345   5.823  12.514
   63        0.346   6.345   5.823  12.514
   64        0.346   6.345   5.823  12.514
--------------------------------------------------
tot         51.752 277.697 235.830 565.280
 


 magnetization (x)
 
# of ion       s       p       d       tot
------------------------------------------
    1       -0.002  -0.030   0.000  -0.031
    2       -0.002  -0.030   0.000  -0.031
    3       -0.002  -0.030   0.000  -0.031
    4       -0.002  -0.030   0.000  -0.031
    5       -0.002  -0.030   0.000  -0.031
    6       -0.002  -0.030   0.000  -0.031
    7       -0.002  -0.030   0.000  -0.031
    8       -0.002  -0.030   0.000  -0.031
    9        0.001   0.030   0.000   0.031
   10        0.001   0.030   0.000   0.031
   11        0.001   0.030   0.000   0.031
   12        0.001   0.030   0.000   0.031
   13        0.002   0.030   0.000   0.031
   14        0.002   0.030   0.000   0.031
   15        0.002   0.030   0.000   0.031
   16        0.002   0.030   0.000   0.031
   17       -0.002  -0.030   0.000  -0.031
   18       -0.002  -0.030   0.000  -0.031
   19       -0.002  -0.030   0.000  -0.031
   20       -0.002  -0.030   0.000  -0.031
   21       -0.002  -0.030   0.000  -0.031
   22       -0.002  -0.030   0.000  -0.031
   23       -0.002  -0.030   0.000  -0.031
   24       -0.002  -0.030   0.000  -0.031
   25        0.001   0.030   0.000   0.031
   26        0.001   0.030   0.000   0.031
   27        0.001   0.030   0.000   0.031
   28        0.001   0.030   0.000   0.031
   29        0.002   0.030   0.000   0.031
   30        0.002   0.030   0.000   0.031
   31        0.002   0.030   0.000   0.031
   32        0.002   0.030   0.000   0.031
   33        0.000  -0.001   0.005   0.004
   34        0.000  -0.001   0.005   0.004
   35        0.000  -0.001   0.005   0.004
   36        0.000  -0.001   0.005   0.004
   37        0.000   0.001  -0.005  -0.004
   38        0.000   0.001  -0.005  -0.004
   39        0.000   0.001  -0.005  -0.004
   40        0.000   0.001  -0.005  -0.004
   41        0.000  -0.001   0.005   0.004
   42        0.000  -0.001   0.005   0.004
   43        0.000  -0.001   0.005   0.004
   44        0.000  -0.001   0.005   0.004
   45        0.000   0.001  -0.005  -0.004
   46        0.000   0.001  -0.005  -0.004
   47        0.000   0.001  -0.005  -0.004
   48        0.000   0.001  -0.005  -0.004
   49        0.020   0.053   3.667   3.740
   50        0.020   0.053   3.667   3.740
   51        0.020   0.053   3.667   3.740
   52        0.020   0.053   3.667   3.740
   53       -0.020  -0.053  -3.667  -3.739
   54       -0.020  -0.053  -3.667  -3.739
   55       -0.020  -0.053  -3.667  -3.739
   56       -0.020  -0.053  -3.667  -3.739
   57        0.020   0.053   3.667   3.740
   58        0.020   0.053   3.667   3.740
   59        0.020   0.053   3.667   3.740
   60        0.020   0.053   3.667   3.740
   61       -0.020  -0.053  -3.667  -3.739
   62       -0.020  -0.053  -3.667  -3.739
   63       -0.020  -0.053  -3.667  -3.739
   64       -0.020  -0.053  -3.667  -3.739
--------------------------------------------------
tot         -0.002   0.002  -0.001  -0.002
 
 BZINTS: Fermi energy:  5.136893;688.000000 electrons
         Band energy:***********;  BLOECHL correction:  0.000000

 total amount of memory used by VASP MPI-rank0   661185. kBytes
=======================================================================

   base      :      30000. kBytes
   nonl-proj :     488484. kBytes
   fftplans  :       4588. kBytes
   grid      :      69719. kBytes
   one-center:       1990. kBytes
   wavefun   :      66404. kBytes
 
  
  
 General timing and accounting informations for this job:
 ========================================================
  
                  Total CPU time used (sec):     3768.234
                            User time (sec):     3744.114
                          System time (sec):       24.120
                         Elapsed time (sec):     4338.511
  
                   Maximum memory used (kb):     1179060.
                   Average memory used (kb):           0.
  
                          Minor page faults:      2262877
                          Major page faults:         7366
                 Voluntary context switches:         9113
