       N       E                     dE             d eps       ncg     rms          rms(c)
DAV:   1     0.620096227815E+04    0.62010E+04   -0.50402E+05 61440   0.194E+03
DAV:   2    -0.899841642632E+02   -0.62909E+04   -0.61600E+04 65280   0.440E+02
DAV:   3    -0.372377134901E+03   -0.28239E+03   -0.28112E+03 87808   0.102E+02
DAV:   4    -0.376312806319E+03   -0.39357E+01   -0.39354E+01 67328   0.123E+01
DAV:   5    -0.376417141918E+03   -0.10434E+00   -0.10433E+00 86016   0.202E+00    0.750E+01
DAV:   6    -0.334855987191E+03    0.41561E+02   -0.59020E+02 61440   0.812E+01    0.999E+01
DAV:   7    -0.329866864383E+03    0.49891E+01   -0.10855E+02 61952   0.272E+01    0.436E+01
DAV:   8    -0.329617112714E+03    0.24975E+00   -0.33388E+01 79616   0.202E+01    0.314E+01
DAV:   9    -0.331550009402E+03   -0.19329E+01   -0.92963E+01 76288   0.234E+01    0.231E+01
DAV:  10    -0.327964431585E+03    0.35856E+01   -0.21640E+01 80896   0.157E+01    0.285E+00
DAV:  11    -0.328092884832E+03   -0.12845E+00   -0.10855E+00 79104   0.168E+00    0.352E+00
DAV:  12    -0.328080200098E+03    0.12685E-01   -0.47791E-01 83200   0.179E+00    0.135E+00
DAV:  13    -0.328084903087E+03   -0.47030E-02   -0.50412E-02 75776   0.435E-01    0.941E-01
DAV:  14    -0.328094432692E+03   -0.95296E-02   -0.47935E-02 89088   0.356E-01    0.396E-01
DAV:  15    -0.328094043619E+03    0.38907E-03   -0.56176E-03 66816   0.191E-01    0.163E-01
DAV:  16    -0.328094152910E+03   -0.10929E-03   -0.42543E-04 91136   0.304E-02    0.122E-01
DAV:  17    -0.328094514159E+03   -0.36125E-03   -0.13741E-03 69632   0.536E-02    0.894E-02
DAV:  18    -0.328094561847E+03   -0.47688E-04   -0.14485E-04 81920   0.201E-02    0.465E-02
DAV:  19    -0.328094567590E+03   -0.57429E-05   -0.34054E-05 86272   0.791E-03    0.266E-02
DAV:  20    -0.328094569321E+03   -0.17316E-05   -0.56366E-06 71680   0.272E-03    0.230E-02
DAV:  21    -0.328094568022E+03    0.12992E-05   -0.28182E-05 87552   0.971E-03    0.114E-02
DAV:  22    -0.328094568344E+03   -0.32208E-06   -0.28001E-06 83968   0.443E-03    0.975E-03
DAV:  23    -0.328094568515E+03   -0.17109E-06   -0.33646E-07 83968   0.116E-03    0.713E-03
DAV:  24    -0.328094568360E+03    0.15498E-06   -0.27961E-07 95744   0.104E-03    0.262E-03
DAV:  25    -0.328094568342E+03    0.17884E-07   -0.19539E-07 80896   0.864E-04    0.905E-04
DAV:  26    -0.328094568343E+03   -0.50932E-09   -0.21320E-08 64512   0.262E-04
   1 F= -.32809457E+03 E0= -.32809457E+03  d E =0.000000E+00  mag=     0.0000
