 vasp.5.4.4.18Apr17-6-g9f103f2a35 (build Oct 30 2023 17:30:16) complex          
  
 executed on             LinuxIFC date 2024.04.02  21:00:05
 running on  256 total cores
 distrk:  each k-point on  256 cores,    1 groups
 distr:  one band on NCORES_PER_BAND=   1 cores,  256 groups


--------------------------------------------------------------------------------------------------------


 INCAR:
 POTCAR:    PAW_PBE S 06Sep2000                   
 POTCAR:     PAW_PBE Cu_pv 06Sep2000              
 POTCAR:     PAW_PBE Fe_pv 02Aug2007              

 ----------------------------------------------------------------------------- 
|                                                                             |
|           W    W    AA    RRRRR   N    N  II  N    N   GGGG   !!!           |
|           W    W   A  A   R    R  NN   N  II  NN   N  G    G  !!!           |
|           W    W  A    A  R    R  N N  N  II  N N  N  G       !!!           |
|           W WW W  AAAAAA  RRRRR   N  N N  II  N  N N  G  GGG   !            |
|           WW  WW  A    A  R   R   N   NN  II  N   NN  G    G                |
|           W    W  A    A  R    R  N    N  II  N    N   GGGG   !!!           |
|                                                                             |
|      For optimal performance we recommend to set                            |
|        NCORE= 4 - approx SQRT( number of cores)                             |
|      NCORE specifies how many cores store one orbital (NPAR=cpu/NCORE).     |
|      This setting can  greatly improve the performance of VASP for DFT.     |
|      The default,   NCORE=1            might be grossly inefficient         |
|      on modern multi-core architectures or massively parallel machines.     |
|      Do your own testing !!!!                                               |
|      Unfortunately you need to use the default for GW and RPA calculations. |
|      (for HF NCORE is supported but not extensively tested yet)             |
|                                                                             |
 ----------------------------------------------------------------------------- 

 POTCAR:    PAW_PBE S 06Sep2000                   
   SHA256 =  0fc7481fb0695f01bdc6462160264c5c84044ae9ec85a907d398b887a2bc3132 S/
   COPYR  = (c) Copyright 06Sep2000 Georg Kresse                                
   COPYR  = This file is part of the software VASP. Any use, copying, and all ot
   COPYR  = If you do not have a valid VASP license, you may not use, copy or di
   VRHFIN =S : s2p4                                                             
   LEXCH  = PE                                                                  
   EATOM  =   276.8230 eV,   20.3459 Ry                                         
                                                                                
   TITEL  = PAW_PBE S 06Sep2000                                                 
   LULTRA =        F    use ultrasoft PP ?                                      
   IUNSCR =        1    unscreen: 0-lin 1-nonlin 2-no                           
   RPACOR =    1.500    partial core radius                                     
   POMASS =   32.066; ZVAL   =    6.000    mass and valenz                      
   RCORE  =    1.900    outmost cutoff radius                                   
   RWIGS  =    2.200; RWIGS  =    1.164    wigner-seitz radius (au A)           
   ENMAX  =  258.689; ENMIN  =  194.016 eV                                      
   ICORE  =        2    local potential                                         
   LCOR   =        T    correct aug charges                                     
   LPAW   =        T    paw PP                                                  
   EAUG   =  335.092                                                            
   DEXC   =    0.000                                                            
   RMAX   =    1.942    core radius for proj-oper                               
   RAUG   =    1.300    factor for augmentation sphere                          
   RDEP   =    1.954    radius for radial grids                                 
   RDEPT  =    1.744    core radius for aug-charge                              
                                                                                
   Atomic configuration                                                         
    6 entries                                                                   
     n  l   j            E        occ.                                          
     1  0  0.50     -2405.8406   2.0000                                         
     2  0  0.50      -211.7007   2.0000                                         
     2  1  1.50      -156.4958   6.0000                                         
     3  0  0.50       -17.2562   2.0000                                         
     3  1  0.50        -7.0085   4.0000                                         
     3  2  1.50        -6.8029   0.0000                                         
   Description                                                                  
     l       E           TYP  RCUT    TYP  RCUT                                 
     0    -17.2561641     23  1.900                                             
     0    -15.8743224     23  1.900                                             
     1     -7.0085400     23  1.900                                             
     1     -2.7779785     23  1.900                                             
     2     -6.8029130     23  1.900                                             
  local pseudopotential read in
  partial core-charges read in
  partial kinetic energy density read in
  atomic valenz-charges read in
  non local Contribution for L=           0  read in
    real space projection operators read in
  non local Contribution for L=           0  read in
    real space projection operators read in
  non local Contribution for L=           1  read in
    real space projection operators read in
  non local Contribution for L=           1  read in
    real space projection operators read in
    PAW grid and wavefunctions read in
 
   number of l-projection  operators is LMAX  =           4
   number of lm-projection operators is LMMAX =           8
 
 POTCAR:     PAW_PBE Cu_pv 06Sep2000              
   SHA256 =  cb7b504e2ea725fe1f25c85a9ac77d4012ce94cd394135b722c4e25ec297f1cb Cu
   COPYR  = (c) Copyright 06Sep2000 Georg Kresse                                
   COPYR  = This file is part of the software VASP. Any use, copying, and all ot
   COPYR  = If you do not have a valid VASP license, you may not use, copy or di
   VRHFIN =Cu: d10 p1                                                           
   LEXCH  = PE                                                                  
   EATOM  =  4120.1201 eV,  302.8203 Ry                                         
                                                                                
   TITEL  = PAW_PBE Cu_pv 06Sep2000                                             
   LULTRA =        F    use ultrasoft PP ?                                      
   IUNSCR =        1    unscreen: 0-lin 1-nonlin 2-no                           
   RPACOR =    1.500    partial core radius                                     
   POMASS =   63.546; ZVAL   =   17.000    mass and valenz                      
   RCORE  =    2.000    outmost cutoff radius                                   
   RWIGS  =    2.000; RWIGS  =    1.058    wigner-seitz radius (au A)           
   ENMAX  =  368.648; ENMIN  =  276.486 eV                                      
   RCLOC  =    1.304    cutoff for local pot                                    
   LCOR   =        T    correct aug charges                                     
   LPAW   =        T    paw PP                                                  
   EAUG   =  758.233                                                            
   DEXC   =    0.000                                                            
   RMAX   =    2.046    core radius for proj-oper                               
   RAUG   =    1.300    factor for augmentation sphere                          
   RDEP   =    2.025    radius for radial grids                                 
   RDEPT  =    1.558    core radius for aug-charge                              
                                                                                
   Atomic configuration                                                         
    8 entries                                                                   
     n  l   j            E        occ.                                          
     1  0  0.50     -8850.2467   2.0000                                         
     2  0  0.50     -1062.3498   2.0000                                         
     2  1  1.50      -916.8226   6.0000                                         
     3  0  0.50      -114.6929   2.0000                                         
     3  1  1.50       -72.1325   6.0000                                         
     3  2  2.50        -5.0394  10.0000                                         
     4  0  0.50        -4.6097   1.0000                                         
     4  3  2.50        -1.3606   0.0000                                         
   Description                                                                  
     l       E           TYP  RCUT    TYP  RCUT                                 
     1    -72.1324777     23  1.700                                             
     1     -1.3605826     23  1.700                                             
     2     -5.0393776     23  2.000                                             
     2     -6.3999602     23  2.000                                             
     0     -4.6097062     23  1.800                                             
     0     14.1620818     23  1.800                                             
  local pseudopotential read in
  partial core-charges read in
  partial kinetic energy density read in
  atomic valenz-charges read in
  non local Contribution for L=           1  read in
    real space projection operators read in
  non local Contribution for L=           1  read in
    real space projection operators read in
  non local Contribution for L=           2  read in
    real space projection operators read in
  non local Contribution for L=           2  read in
    real space projection operators read in
  non local Contribution for L=           0  read in
    real space projection operators read in
  non local Contribution for L=           0  read in
    real space projection operators read in
    PAW grid and wavefunctions read in
 
   number of l-projection  operators is LMAX  =           6
   number of lm-projection operators is LMMAX =          18
 
 POTCAR:     PAW_PBE Fe_pv 02Aug2007              
   SHA256 =  5d22e414b1f82158bf2c7ecb8b97b28fd0923e48cadc1c3bf74d524558f5dd32 Fe
   COPYR  = (c) Copyright 02Aug2007 Georg Kresse                                
   COPYR  = This file is part of the software VASP. Any use, copying, and all ot
   COPYR  = If you do not have a valid VASP license, you may not use, copy or di
   VRHFIN =Fe:  3pd7s1                                                          
   LEXCH  = PE                                                                  
   EATOM  =  2457.4239 eV,  180.6156 Ry                                         
                                                                                
   TITEL  = PAW_PBE Fe_pv 02Aug2007                                             
   LULTRA =        F    use ultrasoft PP ?                                      
   IUNSCR =        1    unscreen: 0-lin 1-nonlin 2-no                           
   RPACOR =    1.750    partial core radius                                     
   POMASS =   55.847; ZVAL   =   14.000    mass and valenz                      
   RCORE  =    2.200    outmost cutoff radius                                   
   RWIGS  =    2.200; RWIGS  =    1.164    wigner-seitz radius (au A)           
   ENMAX  =  293.238; ENMIN  =  219.928 eV                                      
   ICORE  =        3    local potential                                         
   LCOR   =        T    correct aug charges                                     
   LPAW   =        T    paw PP                                                  
   EAUG   =  578.342                                                            
   DEXC   =    0.000                                                            
   RMAX   =    2.249    core radius for proj-oper                               
   RAUG   =    1.300    factor for augmentation sphere                          
   RDEP   =    2.296    radius for radial grids                                 
   RDEPT  =    1.766    core radius for aug-charge                              
                                                                                
   Atomic configuration                                                         
    8 entries                                                                   
     n  l   j            E        occ.                                          
     1  0  0.50     -6993.8440   2.0000                                         
     2  0  0.50      -814.6047   2.0000                                         
     2  1  1.50      -693.3689   6.0000                                         
     3  0  0.50       -89.4732   2.0000                                         
     3  1  1.50       -55.6373   6.0000                                         
     3  2  2.50        -3.8151   7.0000                                         
     4  0  0.50        -4.2551   1.0000                                         
     4  3  2.50        -1.3606   0.0000                                         
   Description                                                                  
     l       E           TYP  RCUT    TYP  RCUT                                 
     1    -55.6372668     23  2.000                                             
     1     -5.4423304     23  2.000                                             
     2     -3.8151096     23  2.200                                             
     2     -5.1756922     23  2.200                                             
     0     -4.2550951     23  2.200                                             
     0     27.2116520     23  2.200                                             
     3     -1.3605826     23  2.200                                             
  local pseudopotential read in
  partial core-charges read in
  partial kinetic energy density read in
  atomic valenz-charges read in
  non local Contribution for L=           1  read in
    real space projection operators read in
  non local Contribution for L=           1  read in
    real space projection operators read in
  non local Contribution for L=           2  read in
    real space projection operators read in
  non local Contribution for L=           2  read in
    real space projection operators read in
  non local Contribution for L=           0  read in
    real space projection operators read in
  non local Contribution for L=           0  read in
    real space projection operators read in
    PAW grid and wavefunctions read in
 
   number of l-projection  operators is LMAX  =           6
   number of lm-projection operators is LMMAX =          18
 

 ----------------------------------------------------------------------------- 
|                                                                             |
|  ADVICE TO THIS USER RUNNING 'VASP/VAMP'   (HEAR YOUR MASTER'S VOICE ...):  |
|                                                                             |
|      You have a (more or less) 'large supercell' and for larger cells       |
|      it might be more efficient to use real space projection opertators     |
|      So try LREAL= Auto  in the INCAR   file.                               |
|      Mind:          For very  accurate calculation you might also keep the  |
|      reciprocal projection scheme          (i.e. LREAL=.FALSE.)             |
|                                                                             |
 ----------------------------------------------------------------------------- 


 ----------------------------------------------------------------------------- 
|                                                                             |
|  ADVICE TO THIS USER RUNNING 'VASP/VAMP'   (HEAR YOUR MASTER'S VOICE ...):  |
|                                                                             |
|      You enforced a specific xc-type in the INCAR file,                     |
|      a different type was found on the POTCAR file                          |
|          I HOPE YOU KNOW, WHAT YOU ARE  DOING                               |
|                                                                             |
 ----------------------------------------------------------------------------- 

  PAW_PBE S 06Sep2000                   :
 energy of atom  1       EATOM= -276.8230
 kinetic energy error for atom=    0.0007 (will be added to EATOM!!)
   PAW_PBE Cu_pv 06Sep2000              :
 energy of atom  2       EATOM=-4120.1201
 kinetic energy error for atom=    0.0094 (will be added to EATOM!!)
   PAW_PBE Fe_pv 02Aug2007              :
 energy of atom  3       EATOM=-2457.4239
 kinetic energy error for atom=    0.0025 (will be added to EATOM!!)
 
 
 POSCAR: Fe16 Cu16 S32                           
  positions in direct lattice
  No initial velocities read in
 exchange correlation table for  LEXCH =       14
   RHO(1)=    0.500       N(1)  =     2000
   RHO(2)=  100.500       N(2)  =     4000
 


--------------------------------------------------------------------------------------------------------


 ion  position               nearest neighbor table
   1  0.126  0.124  0.125-  41 2.26  37 2.26  61 2.27  49 2.28
   2  0.626  0.124  0.125-  42 2.26  38 2.26  62 2.27  50 2.28
   3  0.126  0.624  0.125-  43 2.26  39 2.26  63 2.27  51 2.28
   4  0.626  0.624  0.125-  44 2.26  40 2.26  64 2.27  52 2.28
   5  0.374  0.374  0.125-  39 2.26  41 2.26  52 2.27  62 2.28
   6  0.874  0.374  0.125-  40 2.26  42 2.26  51 2.27  61 2.28
   7  0.374  0.874  0.125-  37 2.26  43 2.26  50 2.27  64 2.28
   8  0.874  0.874  0.125-  38 2.26  44 2.26  49 2.27  63 2.28
   9  0.125  0.373  0.875-  41 2.26  45 2.26  51 2.27  55 2.27
  10  0.625  0.373  0.875-  42 2.26  46 2.26  52 2.27  56 2.27
  11  0.125  0.873  0.875-  43 2.26  47 2.26  49 2.27  53 2.27
  12  0.625  0.873  0.875-  44 2.26  48 2.26  50 2.27  54 2.27
  13  0.375  0.125  0.875-  41 2.26  46 2.26  50 2.28  53 2.28
  14  0.875  0.125  0.875-  42 2.26  45 2.26  49 2.28  54 2.28
  15  0.375  0.625  0.875-  43 2.26  48 2.26  52 2.28  55 2.28
  16  0.875  0.625  0.875-  44 2.26  47 2.26  51 2.28  56 2.28
  17  0.124  0.124  0.625-  45 2.26  33 2.26  57 2.27  53 2.28
  18  0.624  0.124  0.625-  46 2.26  34 2.26  58 2.27  54 2.28
  19  0.124  0.624  0.625-  47 2.26  35 2.26  59 2.27  55 2.28
  20  0.624  0.624  0.625-  48 2.26  36 2.26  60 2.27  56 2.28
  21  0.376  0.374  0.625-  36 2.26  46 2.26  55 2.27  57 2.28
  22  0.876  0.374  0.625-  35 2.26  45 2.26  56 2.27  58 2.28
  23  0.376  0.874  0.625-  34 2.26  48 2.26  53 2.27  59 2.28
  24  0.876  0.874  0.625-  33 2.26  47 2.26  54 2.27  60 2.28
  25  0.375  0.123  0.375-  34 2.26  37 2.26  57 2.27  62 2.27
  26  0.875  0.123  0.375-  33 2.26  38 2.26  58 2.27  61 2.27
  27  0.375  0.623  0.375-  36 2.26  39 2.26  59 2.27  64 2.27
  28  0.875  0.623  0.375-  35 2.26  40 2.26  60 2.27  63 2.27
  29  0.125  0.375  0.375-  35 2.26  39 2.26  57 2.28  61 2.28
  30  0.625  0.375  0.375-  36 2.26  40 2.26  58 2.28  62 2.28
  31  0.125  0.875  0.375-  33 2.26  37 2.26  59 2.28  63 2.28
  32  0.625  0.875  0.375-  34 2.26  38 2.26  60 2.28  64 2.28
  33  1.000  0.001  0.500-  24 2.26  31 2.26  26 2.26  17 2.26
  34  0.500  0.001  0.500-  23 2.26  32 2.26  25 2.26  18 2.26
  35  1.000  0.501  0.500-  22 2.26  29 2.26  28 2.26  19 2.26
  36  0.500  0.501  0.500-  21 2.26  30 2.26  27 2.26  20 2.26
  37  0.250  0.001  0.250-   7 2.26  31 2.26  25 2.26   1 2.26
  38  0.750  0.001  0.250-   8 2.26  32 2.26  26 2.26   2 2.26
  39  0.250  0.501  0.250-   5 2.26  29 2.26  27 2.26   3 2.26
  40  0.750  0.501  0.250-   6 2.26  30 2.26  28 2.26   4 2.26
  41  0.250  0.251  1.000-   1 2.26  13 2.26   9 2.26   5 2.26
  42  0.750  0.251  1.000-   2 2.26  14 2.26  10 2.26   6 2.26
  43  0.250  0.751  1.000-   3 2.26  15 2.26  11 2.26   7 2.26
  44  0.750  0.751  1.000-   4 2.26  16 2.26  12 2.26   8 2.26
  45  0.000  0.251  0.750-  17 2.26  14 2.26   9 2.26  22 2.26
  46  0.500  0.251  0.750-  18 2.26  13 2.26  10 2.26  21 2.26
  47  0.000  0.751  0.750-  19 2.26  16 2.26  11 2.26  24 2.26
  48  0.500  0.751  0.750-  20 2.26  15 2.26  12 2.26  23 2.26
  49  1.000  0.001  0.000-   8 2.27  11 2.27  14 2.28   1 2.28
  50  0.500  0.001  0.000-   7 2.27  12 2.27  13 2.28   2 2.28
  51  1.000  0.501  0.000-   6 2.27   9 2.27  16 2.28   3 2.28
  52  0.500  0.501  0.000-   5 2.27  10 2.27  15 2.28   4 2.28
  53  0.250  0.001  0.750-  23 2.27  11 2.27  13 2.28  17 2.28
  54  0.750  0.001  0.750-  24 2.27  12 2.27  14 2.28  18 2.28
  55  0.250  0.501  0.750-  21 2.27   9 2.27  15 2.28  19 2.28
  56  0.750  0.501  0.750-  22 2.27  10 2.27  16 2.28  20 2.28
  57  0.250  0.251  0.500-  17 2.27  25 2.27  29 2.28  21 2.28
  58  0.750  0.251  0.500-  18 2.27  26 2.27  30 2.28  22 2.28
  59  0.250  0.751  0.500-  19 2.27  27 2.27  31 2.28  23 2.28
  60  0.750  0.751  0.500-  20 2.27  28 2.27  32 2.28  24 2.28
  61  0.000  0.251  0.250-   1 2.27  26 2.27  29 2.28   6 2.28
  62  0.500  0.251  0.250-   2 2.27  25 2.27  30 2.28   5 2.28
  63  0.000  0.751  0.250-   3 2.27  28 2.27  31 2.28   8 2.28
  64  0.500  0.751  0.250-   4 2.27  27 2.27  32 2.28   7 2.28
 
  LATTYP: Found a simple monoclinic cell.
 ALAT       =    14.9262244032
 B/A-ratio  =     0.7045463552
 C/A-ratio  =     1.5737275947
 COS(beta)  =    -0.9500150436
  
  Lattice vectors:
  
 A1 = ( -10.6063860000,   0.0000000000, -10.5022260000)
 A2 = (   0.0000000000, -10.5162170000,   0.0000000000)
 A3 = (  10.6972370000,   0.0000000000,  20.9126840000)


Analysis of symmetry for initial positions (statically):
=====================================================================
 Subroutine PRICEL returns following result:
 
  LATTYP: Found a base centered monoclinic cell.
 ALAT       =    11.5810802743
 B/A-ratio  =     0.4540257364
 C/A-ratio  =     0.8989536528
 COS(beta)  =    -0.8113226078
  
  Lattice vectors:
  
 A1 = (  -2.5834582500,  -2.6290542500,   5.1822870000)
 A2 = (  -2.5834582500,   2.6290542500,   5.1822870000)
 A3 = (  -0.0908510000,   0.0000000000, -10.4104580000)
 
   8 primitive cells build up your supercell.
 

 Routine SETGRP: Setting up the symmetry group for a 
 simple monoclinic supercell.


 Subroutine GETGRP returns: Found  2 space group operations
 (whereof  1 operations were pure point group operations)
 out of a pool of  4 trial point group operations.


The static configuration has the point symmetry C_1 .
 The point group associated with its full space group is C_2 .


Analysis of symmetry for dynamics (positions and initial velocities):
=====================================================================
 Subroutine PRICEL returns following result:
 
  LATTYP: Found a base centered monoclinic cell.
 ALAT       =    11.5810802743
 B/A-ratio  =     0.4540257364
 C/A-ratio  =     0.8989536528
 COS(beta)  =    -0.8113226078
  
  Lattice vectors:
  
 A1 = (  -2.5834582500,  -2.6290542500,   5.1822870000)
 A2 = (  -2.5834582500,   2.6290542500,   5.1822870000)
 A3 = (  -0.0908510000,   0.0000000000, -10.4104580000)
 
   8 primitive cells build up your supercell.
 

 Routine SETGRP: Setting up the symmetry group for a 
 simple monoclinic supercell.


 Subroutine GETGRP returns: Found  2 space group operations
 (whereof  1 operations were pure point group operations)
 out of a pool of  4 trial point group operations.


The dynamic configuration has the point symmetry C_1 .
 The point group associated with its full space group is C_2 .


Analysis of structural, dynamic, and magnetic symmetry:
=====================================================================
 Subroutine PRICEL returns following result:
 
  LATTYP: Found a base centered monoclinic cell.
 ALAT       =    11.5810802743
 B/A-ratio  =     0.4540257364
 C/A-ratio  =     0.8989536528
 COS(beta)  =    -0.8113226078
  
  Lattice vectors:
  
 A1 = (  -2.5834582500,  -2.6290542500,   5.1822870000)
 A2 = (  -2.5834582500,   2.6290542500,   5.1822870000)
 A3 = (  -0.0908510000,   0.0000000000, -10.4104580000)
 
   8 primitive cells build up your supercell.
 

 Routine SETGRP: Setting up the symmetry group for a 
 simple monoclinic supercell.


 Subroutine GETGRP returns: Found  2 space group operations
 (whereof  1 operations were pure point group operations)
 out of a pool of  4 trial point group operations.


The magnetic configuration has the point symmetry C_1 .
 The point group associated with its full space group is C_2 .


 Subroutine INISYM returns: Found  2 space group operations
 (whereof  1 operations are pure point group operations),
 and found     8 'primitive' translations

 
 
 KPOINTS: Automatic mesh                          

Automatic generation of k-mesh.
Space group operators:
 irot       det(A)        alpha          n_x          n_y          n_z        tau_x        tau_y        tau_z
    1     1.000000     0.000001     1.000000     0.000000     0.000000     0.000000     0.000000     0.000000
    2     1.000000   179.999999     0.000000     1.000000     0.000000    -0.250000     0.000000    -0.250000
 
 Subroutine IBZKPT returns following result:
 ===========================================
 
 Found     30 irreducible k-points:
 
 Following reciprocal coordinates:
            Coordinates               Weight
  0.000000  0.000000  0.000000      1.000000
  0.250000  0.000000 -0.000000      2.000000
  0.500000  0.000000 -0.000000      1.000000
  0.000000  0.250000  0.000000      2.000000
  0.250000  0.250000 -0.000000      4.000000
  0.500000  0.250000 -0.000000      2.000000
  0.000000  0.500000  0.000000      1.000000
  0.250000  0.500000 -0.000000      2.000000
  0.500000  0.500000 -0.000000      1.000000
  0.000000  0.000000  0.250000      2.000000
  0.250000  0.000000  0.250000      2.000000
  0.500000  0.000000  0.250000      2.000000
 -0.250000  0.000000  0.250000      2.000000
  0.000000  0.250000  0.250000      4.000000
  0.250000  0.250000  0.250000      4.000000
  0.500000  0.250000  0.250000      4.000000
 -0.250000  0.250000  0.250000      4.000000
  0.000000  0.500000  0.250000      2.000000
  0.250000  0.500000  0.250000      2.000000
  0.500000  0.500000  0.250000      2.000000
 -0.250000  0.500000  0.250000      2.000000
  0.000000  0.000000  0.500000      1.000000
  0.250000  0.000000  0.500000      2.000000
  0.500000  0.000000  0.500000      1.000000
  0.000000  0.250000  0.500000      2.000000
  0.250000  0.250000  0.500000      4.000000
  0.500000  0.250000  0.500000      2.000000
  0.000000  0.500000  0.500000      1.000000
  0.250000  0.500000  0.500000      2.000000
  0.500000  0.500000  0.500000      1.000000
 
 Following cartesian coordinates:
            Coordinates               Weight
  0.000000  0.000000  0.000000      1.000000
  0.023776  0.000000 -0.000207      2.000000
  0.047552  0.000000 -0.000415      1.000000
  0.000000  0.023773  0.000000      2.000000
  0.023776  0.023773 -0.000207      4.000000
  0.047552  0.023773 -0.000415      2.000000
  0.000000  0.047546  0.000000      1.000000
  0.023776  0.047546 -0.000207      2.000000
  0.047552  0.047546 -0.000415      1.000000
 -0.000210  0.000000  0.024016      2.000000
  0.023567  0.000000  0.023809      2.000000
  0.047343  0.000000  0.023601      2.000000
 -0.023986  0.000000  0.024224      2.000000
 -0.000210  0.023773  0.024016      4.000000
  0.023567  0.023773  0.023809      4.000000
  0.047343  0.023773  0.023601      4.000000
 -0.023986  0.023773  0.024224      4.000000
 -0.000210  0.047546  0.024016      2.000000
  0.023567  0.047546  0.023809      2.000000
  0.047343  0.047546  0.023601      2.000000
 -0.023986  0.047546  0.024224      2.000000
 -0.000419  0.000000  0.048032      1.000000
  0.023357  0.000000  0.047825      2.000000
  0.047133  0.000000  0.047617      1.000000
 -0.000419  0.023773  0.048032      2.000000
  0.023357  0.023773  0.047825      4.000000
  0.047133  0.023773  0.047617      2.000000
 -0.000419  0.047546  0.048032      1.000000
  0.023357  0.047546  0.047825      2.000000
  0.047133  0.047546  0.047617      1.000000
 
 TETIRR: Found    192 inequivalent tetrahedra from      384
 
 Subroutine IBZKPT_HF returns following result:
 ==============================================
 
 Found     64 k-points in 1st BZ
 the following     64 k-points will be used (e.g. in the exchange kernel)
 Following reciprocal coordinates:   # in IRBZ
  0.000000  0.000000  0.000000    0.01562500   1 t-inv F
  0.250000  0.000000 -0.000000    0.01562500   2 t-inv F
  0.500000  0.000000 -0.000000    0.01562500   3 t-inv F
  0.000000  0.250000  0.000000    0.01562500   4 t-inv F
  0.250000  0.250000 -0.000000    0.01562500   5 t-inv F
  0.500000  0.250000 -0.000000    0.01562500   6 t-inv F
  0.000000  0.500000  0.000000    0.01562500   7 t-inv F
  0.250000  0.500000 -0.000000    0.01562500   8 t-inv F
  0.500000  0.500000 -0.000000    0.01562500   9 t-inv F
  0.000000  0.000000  0.250000    0.01562500  10 t-inv F
  0.250000  0.000000  0.250000    0.01562500  11 t-inv F
  0.500000  0.000000  0.250000    0.01562500  12 t-inv F
 -0.250000  0.000000  0.250000    0.01562500  13 t-inv F
  0.000000  0.250000  0.250000    0.01562500  14 t-inv F
  0.250000  0.250000  0.250000    0.01562500  15 t-inv F
  0.500000  0.250000  0.250000    0.01562500  16 t-inv F
 -0.250000  0.250000  0.250000    0.01562500  17 t-inv F
  0.000000  0.500000  0.250000    0.01562500  18 t-inv F
  0.250000  0.500000  0.250000    0.01562500  19 t-inv F
  0.500000  0.500000  0.250000    0.01562500  20 t-inv F
 -0.250000  0.500000  0.250000    0.01562500  21 t-inv F
  0.000000  0.000000  0.500000    0.01562500  22 t-inv F
  0.250000  0.000000  0.500000    0.01562500  23 t-inv F
  0.500000  0.000000  0.500000    0.01562500  24 t-inv F
  0.000000  0.250000  0.500000    0.01562500  25 t-inv F
  0.250000  0.250000  0.500000    0.01562500  26 t-inv F
  0.500000  0.250000  0.500000    0.01562500  27 t-inv F
  0.000000  0.500000  0.500000    0.01562500  28 t-inv F
  0.250000  0.500000  0.500000    0.01562500  29 t-inv F
  0.500000  0.500000  0.500000    0.01562500  30 t-inv F
 -0.250000  0.000000  0.000000    0.01562500   2 t-inv F spinflp
 -0.250000  0.250000  0.000000    0.01562500   5 t-inv F spinflp
 -0.250000  0.500000  0.000000    0.01562500   8 t-inv F spinflp
 -0.000000  0.000000 -0.250000    0.01562500  10 t-inv F spinflp
 -0.250000  0.000000 -0.250000    0.01562500  11 t-inv F spinflp
 -0.500000  0.000000 -0.250000    0.01562500  12 t-inv F spinflp
  0.250000  0.000000 -0.250000    0.01562500  13 t-inv F spinflp
 -0.000000  0.250000 -0.250000    0.01562500  14 t-inv F spinflp
 -0.250000  0.250000 -0.250000    0.01562500  15 t-inv F spinflp
 -0.500000  0.250000 -0.250000    0.01562500  16 t-inv F spinflp
  0.250000  0.250000 -0.250000    0.01562500  17 t-inv F spinflp
 -0.000000  0.500000 -0.250000    0.01562500  18 t-inv F spinflp
 -0.250000  0.500000 -0.250000    0.01562500  19 t-inv F spinflp
 -0.500000  0.500000 -0.250000    0.01562500  20 t-inv F spinflp
  0.250000  0.500000 -0.250000    0.01562500  21 t-inv F spinflp
 -0.250000  0.000000 -0.500000    0.01562500  23 t-inv F spinflp
 -0.250000  0.250000 -0.500000    0.01562500  26 t-inv F spinflp
 -0.250000  0.500000 -0.500000    0.01562500  29 t-inv F spinflp
  0.000000 -0.250000  0.000000    0.01562500   4 t-inv T
 -0.250000 -0.250000  0.000000    0.01562500   5 t-inv T
  0.250000 -0.250000 -0.000000    0.01562500   5 t-inv T spinflp
 -0.500000 -0.250000  0.000000    0.01562500   6 t-inv T
 -0.000000 -0.250000 -0.250000    0.01562500  14 t-inv T
  0.000000 -0.250000  0.250000    0.01562500  14 t-inv T spinflp
 -0.250000 -0.250000 -0.250000    0.01562500  15 t-inv T
  0.250000 -0.250000  0.250000    0.01562500  15 t-inv T spinflp
 -0.500000 -0.250000 -0.250000    0.01562500  16 t-inv T
  0.500000 -0.250000  0.250000    0.01562500  16 t-inv T spinflp
  0.250000 -0.250000 -0.250000    0.01562500  17 t-inv T
 -0.250000 -0.250000  0.250000    0.01562500  17 t-inv T spinflp
 -0.000000 -0.250000 -0.500000    0.01562500  25 t-inv T
 -0.250000 -0.250000 -0.500000    0.01562500  26 t-inv T
  0.250000 -0.250000  0.500000    0.01562500  26 t-inv T spinflp
 -0.500000 -0.250000 -0.500000    0.01562500  27 t-inv T


--------------------------------------------------------------------------------------------------------




 Dimension of arrays:
   k-points           NKPTS =     30   k-points in BZ     NKDIM =     30   number of bands    NBANDS=    512
   number of dos      NEDOS =    301   number of ions     NIONS =     64
   non local maximal  LDIM  =      6   non local SUM 2l+1 LMDIM =     18
   total plane-waves  NPLWV = 829440
   max r-space proj   IRMAX =      1   max aug-charges    IRDMAX=  22897
   dimension x,y,z NGX =    96 NGY =   96 NGZ =   90
   dimension x,y,z NGXF=   192 NGYF=  192 NGZF=  180
   support grid    NGXF=   192 NGYF=  192 NGZF=  180
   ions per type =              32  16  16
   NGX,Y,Z   is equivalent  to a cutoff of  15.18, 15.18, 14.37 a.u.
   NGXF,Y,Z  is equivalent  to a cutoff of  30.35, 30.35, 28.74 a.u.

 SYSTEM =  CuFeS2                                  
 POSCAR =  Fe16 Cu16 S32                           

 Startparameter for this run:
   NWRITE =      2    write-flag & timer
   PREC   = accura    normal or accurate (medium, high low for compatibility)
   ISTART =      0    job   : 0-new  1-cont  2-samecut
   ICHARG =      1    charge: 1-file 2-atom 10-const
   ISPIN  =      2    spin polarized calculation?
   LNONCOLLINEAR =      F non collinear calculations
   LSORBIT =      F    spin-orbit coupling
   INIWAV =      1    electr: 0-lowe 1-rand  2-diag
   LASPH  =      F    aspherical Exc in radial PAW
   METAGGA=      F    non-selfconsistent MetaGGA calc.

 Electronic Relaxation 1
   ENCUT  =  700.0 eV  51.45 Ry    7.17 a.u.  22.69 22.69 22.46*2*pi/ulx,y,z
   ENINI  =  700.0     initial cutoff
   ENAUG  =  758.2 eV  augmentation charge cutoff
   NELM   =    500;   NELMIN=  2; NELMDL=  0     # of ELM steps 
   EDIFF  = 0.1E-07   stopping-criterion for ELM
   LREAL  =      F    real-space projection
   NLSPLINE    = F    spline interpolate recip. space projectors
   LCOMPAT=      F    compatible to vasp.4.4
   GGA_COMPAT  = T    GGA compatible to vasp.4.4-vasp.4.6
   LMAXPAW     = -100 max onsite density
   LMAXMIX     =    4 max onsite mixed and CHGCAR
   VOSKOWN=      0    Vosko Wilk Nusair interpolation
   ROPT   =    0.00000   0.00000   0.00000
 Ionic relaxation
   EDIFFG = -.1E-04   stopping-criterion for IOM
   NSW    =      0    number of steps for IOM
   NBLOCK =      1;   KBLOCK =      1    inner block; outer block 
   IBRION =     -1    ionic relax: 0-MD 1-quasi-New 2-CG
   NFREE  =      0    steps in history (QN), initial steepest desc. (CG)
   ISIF   =      2    stress and relaxation
   IWAVPR =     10    prediction:  0-non 1-charg 2-wave 3-comb
   ISYM   =      2    0-nonsym 1-usesym 2-fastsym
   LCORR  =      T    Harris-Foulkes like correction to forces

   POTIM  = 0.5000    time-step for ionic-motion
   TEIN   =    0.0    initial temperature
   TEBEG  =    0.0;   TEEND  =   0.0 temperature during run
   SMASS  =  -3.00    Nose mass-parameter (am)
   estimated Nose-frequenzy (Omega)   =  0.10E-29 period in steps =****** mass=  -0.253E-26a.u.
   SCALEE = 1.0000    scale energy and forces
   NPACO  =    256;   APACO  = 16.0  distance and # of slots for P.C.
   PSTRESS=    0.0 pullay stress

  Mass of Ions in am
   POMASS =  32.07 63.55 55.85
  Ionic Valenz
   ZVAL   =   6.00 17.00 14.00
  Atomic Wigner-Seitz radii
   RWIGS  =  -1.00 -1.00 -1.00
  virtual crystal weights 
   VCA    =   1.00  1.00  1.00
   NELECT =     688.0000    total number of electrons
   NUPDOWN=      -1.0000    fix difference up-down

 DOS related values:
   EMIN   =  10.00;   EMAX   =-10.00  energy-range for DOS
   EFERMI =   0.00
   ISMEAR =    -5;   SIGMA  =   0.03  broadening in eV -4-tet -1-fermi 0-gaus

 Electronic relaxation 2 (details)
   IALGO  =     38    algorithm
   LDIAG  =      T    sub-space diagonalisation (order eigenvalues)
   LSUBROT=      F    optimize rotation matrix (better conditioning)
   TURBO    =      0    0=normal 1=particle mesh
   IRESTART =      0    0=no restart 2=restart with 2 vectors
   NREBOOT  =      0    no. of reboots
   NMIN     =      0    reboot dimension
   EREF     =   0.00    reference energy to select bands
   IMIX   =      4    mixing-type and parameters
     AMIX     =   0.40;   BMIX     =  1.00
     AMIX_MAG =   1.60;   BMIX_MAG =  1.00
     AMIN     =   0.10
     WC   =   100.;   INIMIX=   1;  MIXPRE=   1;  MAXMIX= -45

 Intra band minimization:
   WEIMIN = 0.0000     energy-eigenvalue tresh-hold
   EBREAK =  0.49E-11  absolut break condition
   DEPER  =   0.30     relativ break condition  

   TIME   =   0.40     timestep for ELM

  volume/ion in A,a.u.               =      17.99       121.38
  Fermi-wavevector in a.u.,A,eV,Ry     =   1.378992  2.605917 25.873097  1.901619
  Thomas-Fermi vector in A             =   2.504003
 
 Write flags
   LWAVE        =      T    write WAVECAR
   LDOWNSAMPLE  =      F    k-point downsampling of WAVECAR
   LCHARG       =      T    write CHGCAR
   LVTOT        =      F    write LOCPOT, total local potential
   LVHAR        =      F    write LOCPOT, Hartree potential only
   LELF         =      F    write electronic localiz. function (ELF)
   LORBIT       =     11    0 simple, 1 ext, 2 COOP (PROOUT), +10 PAW based schemes


 Dipole corrections
   LMONO  =      F    monopole corrections only (constant potential shift)
   LDIPOL =      F    correct potential (dipole corrections)
   IDIPOL =      0    1-x, 2-y, 3-z, 4-all directions 
   EPSILON=  1.0000000 bulk dielectric constant

 LDA+U is selected, type is set to LDAUTYPE =  2
   angular momentum for each species LDAUL =     2    2    2
   U (eV)           for each species LDAUU =   0.0  0.1  4.7
   J (eV)           for each species LDAUJ =   0.0  0.0  0.0
 Exchange correlation treatment:
   GGA     =    PS    GGA type
   LEXCH   =    14    internal setting for exchange type
   VOSKOWN=      0    Vosko Wilk Nusair interpolation
   LHFCALC =     F    Hartree Fock is set to
   LHFONE  =     F    Hartree Fock one center treatment
   AEXX    =    0.0000 exact exchange contribution

 Linear response parameters
   LEPSILON=     F    determine dielectric tensor
   LRPA    =     F    only Hartree local field effects (RPA)
   LNABLA  =     F    use nabla operator in PAW spheres
   LVEL    =     F    velocity operator in full k-point grid
   LINTERFAST=   F  fast interpolation
   KINTER  =     0    interpolate to denser k-point grid
   CSHIFT  =0.1000    complex shift for real part using Kramers Kronig
   OMEGAMAX=  -1.0    maximum frequency
   DEG_THRESHOLD= 0.2000000E-02 threshold for treating states as degnerate
   RTIME   =   -0.100 relaxation time in fs
  (WPLASMAI=    0.000 imaginary part of plasma frequency in eV, 0.658/RTIME)
   DFIELD  = 0.0000000 0.0000000 0.0000000 field for delta impulse in time
 
 Orbital magnetization related:
   ORBITALMAG=     F  switch on orbital magnetization
   LCHIMAG   =     F  perturbation theory with respect to B field
   DQ        =  0.001000  dq finite difference perturbation B field
   LLRAUG    =     F  two centre corrections for induced B field

 PEAD related settings:
   LPEAD      =     T    switch on PEAD
   IPEAD      =     4    finite difference order for dpsi/dk
   LCALCPOL   =     T    calculate macroscopic polarization
   LCALCEPS   =     F    calculate dielectric tensor
   EFIELD_PEAD=    0.0000    0.0000    0.0000
   SKIP_EDOTP =     F
   LRPA       =     F
   SKIP_SCF   =     F


--------------------------------------------------------------------------------------------------------


 Static calculation
 charge density and potential will be updated during run
 spin polarized calculation
 Variant of blocked Davidson
 Davidson routine will perform the subspace rotation
 perform sub-space diagonalisation
    after iterative eigenvector-optimisation
 modified Broyden-mixing scheme, WC =      100.0
 initial mixing is a Kerker type mixing with AMIX =  0.4000 and BMIX =      1.0000
 Hartree-type preconditioning will be used
 using additional bands          168
 reciprocal scheme for non local part
 use partial core corrections
 calculate Harris-corrections to forces 
   (improved forces if not selfconsistent)
 use gradient corrections 
 use of overlap-Matrix (Vanderbilt PP)
 Fermi weights with tetrahedron method with Bloechl corrections


--------------------------------------------------------------------------------------------------------


  energy-cutoff  :      700.00
  volume of cell :     1151.14
      direct lattice vectors                 reciprocal lattice vectors
    10.515535000  0.000000000  0.091768000     0.095104639  0.000000000 -0.000829968
     0.000000000 10.516217000  0.000000000     0.000000000  0.095091229  0.000000000
     0.090851000  0.000000000 10.410458000    -0.000838346  0.000000000  0.096064569

  length of vectors
    10.515935417 10.516217000 10.410854416     0.095108261  0.095091229  0.096068227


 
 k-points in units of 2pi/SCALE and weight: Automatic mesh                          
   0.00000000  0.00000000  0.00000000       0.016
   0.02377616  0.00000000 -0.00020749       0.031
   0.04755232  0.00000000 -0.00041498       0.016
   0.00000000  0.02377281  0.00000000       0.031
   0.02377616  0.02377281 -0.00020749       0.062
   0.04755232  0.02377281 -0.00041498       0.031
   0.00000000  0.04754561  0.00000000       0.016
   0.02377616  0.04754561 -0.00020749       0.031
   0.04755232  0.04754561 -0.00041498       0.016
  -0.00020959  0.00000000  0.02401614       0.031
   0.02356657  0.00000000  0.02380865       0.031
   0.04734273  0.00000000  0.02360116       0.031
  -0.02398575  0.00000000  0.02422363       0.031
  -0.00020959  0.02377281  0.02401614       0.062
   0.02356657  0.02377281  0.02380865       0.062
   0.04734273  0.02377281  0.02360116       0.062
  -0.02398575  0.02377281  0.02422363       0.062
  -0.00020959  0.04754561  0.02401614       0.031
   0.02356657  0.04754561  0.02380865       0.031
   0.04734273  0.04754561  0.02360116       0.031
  -0.02398575  0.04754561  0.02422363       0.031
  -0.00041917  0.00000000  0.04803228       0.016
   0.02335699  0.00000000  0.04782479       0.031
   0.04713315  0.00000000  0.04761730       0.016
  -0.00041917  0.02377281  0.04803228       0.031
   0.02335699  0.02377281  0.04782479       0.062
   0.04713315  0.02377281  0.04761730       0.031
  -0.00041917  0.04754561  0.04803228       0.016
   0.02335699  0.04754561  0.04782479       0.031
   0.04713315  0.04754561  0.04761730       0.016
 
 k-points in reciprocal lattice and weights: Automatic mesh                          
   0.00000000  0.00000000  0.00000000       0.016
   0.25000000  0.00000000 -0.00000000       0.031
   0.50000000  0.00000000 -0.00000000       0.016
   0.00000000  0.25000000  0.00000000       0.031
   0.25000000  0.25000000 -0.00000000       0.062
   0.50000000  0.25000000 -0.00000000       0.031
   0.00000000  0.50000000  0.00000000       0.016
   0.25000000  0.50000000 -0.00000000       0.031
   0.50000000  0.50000000 -0.00000000       0.016
   0.00000000  0.00000000  0.25000000       0.031
   0.25000000  0.00000000  0.25000000       0.031
   0.50000000  0.00000000  0.25000000       0.031
  -0.25000000  0.00000000  0.25000000       0.031
   0.00000000  0.25000000  0.25000000       0.062
   0.25000000  0.25000000  0.25000000       0.062
   0.50000000  0.25000000  0.25000000       0.062
  -0.25000000  0.25000000  0.25000000       0.062
   0.00000000  0.50000000  0.25000000       0.031
   0.25000000  0.50000000  0.25000000       0.031
   0.50000000  0.50000000  0.25000000       0.031
  -0.25000000  0.50000000  0.25000000       0.031
   0.00000000  0.00000000  0.50000000       0.016
   0.25000000  0.00000000  0.50000000       0.031
   0.50000000  0.00000000  0.50000000       0.016
   0.00000000  0.25000000  0.50000000       0.031
   0.25000000  0.25000000  0.50000000       0.062
   0.50000000  0.25000000  0.50000000       0.031
   0.00000000  0.50000000  0.50000000       0.016
   0.25000000  0.50000000  0.50000000       0.031
   0.50000000  0.50000000  0.50000000       0.016
 
 position of ions in fractional coordinates (direct lattice) 
   0.12616500  0.12390700  0.12518200
   0.62616500  0.12390700  0.12518200
   0.12616500  0.62390700  0.12518200
   0.62616500  0.62390700  0.12518200
   0.37383500  0.37390700  0.12481800
   0.87383500  0.37390700  0.12481800
   0.37383500  0.87390700  0.12481800
   0.87383500  0.87390700  0.12481800
   0.12500000  0.37308700  0.87500000
   0.62500000  0.37308700  0.87500000
   0.12500000  0.87308700  0.87500000
   0.62500000  0.87308700  0.87500000
   0.37500000  0.12538000  0.87500000
   0.87500000  0.12538000  0.87500000
   0.37500000  0.62538000  0.87500000
   0.87500000  0.62538000  0.87500000
   0.12383500  0.12390700  0.62481800
   0.62383500  0.12390700  0.62481800
   0.12383500  0.62390700  0.62481800
   0.62383500  0.62390700  0.62481800
   0.37616500  0.37390700  0.62518200
   0.87616500  0.37390700  0.62518200
   0.37616500  0.87390700  0.62518200
   0.87616500  0.87390700  0.62518200
   0.37500000  0.12308700  0.37500000
   0.87500000  0.12308700  0.37500000
   0.37500000  0.62308700  0.37500000
   0.87500000  0.62308700  0.37500000
   0.12500000  0.37538000  0.37500000
   0.62500000  0.37538000  0.37500000
   0.12500000  0.87538000  0.37500000
   0.62500000  0.87538000  0.37500000
   0.99966500  0.00094400  0.49999600
   0.49966500  0.00094400  0.49999600
   0.99966500  0.50094400  0.49999600
   0.49966500  0.50094400  0.49999600
   0.25033500  0.00094400  0.25000400
   0.75033500  0.00094400  0.25000400
   0.25033500  0.50094400  0.25000400
   0.75033500  0.50094400  0.25000400
   0.24966500  0.25094400  0.99999600
   0.74966500  0.25094400  0.99999600
   0.24966500  0.75094400  0.99999600
   0.74966500  0.75094400  0.99999600
   0.00033500  0.25094400  0.75000400
   0.50033500  0.25094400  0.75000400
   0.00033500  0.75094400  0.75000400
   0.50033500  0.75094400  0.75000400
   0.99983500  0.00091600  0.00001700
   0.49983500  0.00091600  0.00001700
   0.99983500  0.50091600  0.00001700
   0.49983500  0.50091600  0.00001700
   0.25016500  0.00091600  0.74998300
   0.75016500  0.00091600  0.74998300
   0.25016500  0.50091600  0.74998300
   0.75016500  0.50091600  0.74998300
   0.24983500  0.25091600  0.50001700
   0.74983500  0.25091600  0.50001700
   0.24983500  0.75091600  0.50001700
   0.74983500  0.75091600  0.50001700
   0.00016500  0.25091600  0.24998300
   0.50016500  0.25091600  0.24998300
   0.00016500  0.75091600  0.24998300
   0.50016500  0.75091600  0.24998300
 
 position of ions in cartesian coordinates  (Angst):
   1.33806538  1.30303290  1.31477986
   6.59583288  1.30303290  1.36066386
   1.33806538  6.56114140  1.31477986
   6.59583288  6.56114140  1.36066386
   3.94241487  3.93208715  1.33371864
   9.20018237  3.93208715  1.37960264
   3.94241487  9.19019565  1.33371864
   9.20018237  9.19019565  1.37960264
   1.39393650  3.92346385  9.12062175
   6.65170400  3.92346385  9.16650575
   1.39393650  9.18157235  9.12062175
   6.65170400  9.18157235  9.16650575
   4.02282025  1.31852329  9.14356375
   9.28058775  1.31852329  9.18944775
   4.02282025  6.57663179  9.14356375
   9.28058775  6.57663179  9.18944775
   1.35895662  1.30303290  6.51600564
   6.61672412  1.30303290  6.56188964
   1.35895662  6.56114140  6.51600564
   6.61672412  6.56114140  6.56188964
   4.01237463  3.93208715  6.54295086
   9.27014213  3.93208715  6.58883486
   4.01237463  9.19019565  6.54295086
   9.27014213  9.19019565  6.58883486
   3.97739475  1.29440960  3.93833475
   9.23516225  1.29440960  3.98421875
   3.97739475  6.55251810  3.93833475
   9.23516225  6.55251810  3.98421875
   1.34851100  3.94757754  3.91539275
   6.60627850  3.94757754  3.96127675
   1.34851100  9.20568604  3.91539275
   6.60627850  9.20568604  3.96127675
  10.55743743  0.00992731  5.29692462
   5.29966993  0.00992731  5.25104062
  10.55743743  5.26803581  5.29692462
   5.29966993  5.26803581  5.25104062
   2.65511957  0.00992731  2.62562888
   7.91288707  0.00992731  2.67151288
   2.65511957  5.26803581  2.62562888
   7.91288707  5.26803581  2.67151288
   2.71621168  2.63898156 10.43332762
   7.97397918  2.63898156 10.47921162
   2.71621168  7.89709006 10.43332762
   7.97397918  7.89709006 10.47921162
   0.07166132  2.63898156  7.80791588
   5.32942882  2.63898156  7.85379988
   0.07166132  7.89709006  7.80791588
   5.32942882  7.89709006  7.85379988
  10.51380148  0.00963285  0.09192984
   5.25603398  0.00963285  0.04604584
  10.51380148  5.26774135  0.09192984
   5.25603398  5.26774135  0.04604584
   2.69875552  0.00963285  7.83062366
   7.95652302  0.00963285  7.87650766
   2.69875552  5.26774135  7.83062366
   7.95652302  5.26774135  7.87650766
   2.67257573  2.63868710  5.22833284
   7.93034323  2.63868710  5.27421684
   2.67257573  7.89679560  5.22833284
   7.93034323  7.89679560  5.27421684
   0.02444627  2.63868710  2.60245266
   5.28221377  2.63868710  2.64833666
   0.02444627  7.89679560  2.60245266
   5.28221377  7.89679560  2.64833666
 


--------------------------------------------------------------------------------------------------------


 k-point  1 :   0.0000 0.0000 0.0000  plane waves:   48447
 k-point  2 :   0.2500 0.0000-0.0000  plane waves:   48427
 k-point  3 :   0.5000 0.0000-0.0000  plane waves:   48440
 k-point  4 :   0.0000 0.2500 0.0000  plane waves:   48413
 k-point  5 :   0.2500 0.2500-0.0000  plane waves:   48418
 k-point  6 :   0.5000 0.2500-0.0000  plane waves:   48412
 k-point  7 :   0.0000 0.5000 0.0000  plane waves:   48462
 k-point  8 :   0.2500 0.5000-0.0000  plane waves:   48426
 k-point  9 :   0.5000 0.5000-0.0000  plane waves:   48396
 k-point 10 :   0.0000 0.0000 0.2500  plane waves:   48414
 k-point 11 :   0.2500 0.0000 0.2500  plane waves:   48415
 k-point 12 :   0.5000 0.0000 0.2500  plane waves:   48444
 k-point 13 :  -0.2500 0.0000 0.2500  plane waves:   48423
 k-point 14 :   0.0000 0.2500 0.2500  plane waves:   48403
 k-point 15 :   0.2500 0.2500 0.2500  plane waves:   48420
 k-point 16 :   0.5000 0.2500 0.2500  plane waves:   48395
 k-point 17 :  -0.2500 0.2500 0.2500  plane waves:   48400
 k-point 18 :   0.0000 0.5000 0.2500  plane waves:   48434
 k-point 19 :   0.2500 0.5000 0.2500  plane waves:   48426
 k-point 20 :   0.5000 0.5000 0.2500  plane waves:   48398
 k-point 21 :  -0.2500 0.5000 0.2500  plane waves:   48406
 k-point 22 :   0.0000 0.0000 0.5000  plane waves:   48394
 k-point 23 :   0.2500 0.0000 0.5000  plane waves:   48412
 k-point 24 :   0.5000 0.0000 0.5000  plane waves:   48414
 k-point 25 :   0.0000 0.2500 0.5000  plane waves:   48406
 k-point 26 :   0.2500 0.2500 0.5000  plane waves:   48386
 k-point 27 :   0.5000 0.2500 0.5000  plane waves:   48398
 k-point 28 :   0.0000 0.5000 0.5000  plane waves:   48392
 k-point 29 :   0.2500 0.5000 0.5000  plane waves:   48362
 k-point 30 :   0.5000 0.5000 0.5000  plane waves:   48364

 maximum and minimum number of plane-waves per node :     48462    48362

 maximum number of plane-waves:     48462
 maximum index in each direction: 
   IXMAX=   22   IYMAX=   22   IZMAX=   22
   IXMIN=  -23   IYMIN=  -23   IZMIN=  -22


 serial   3D FFT for wavefunctions
 parallel 3D FFT for charge:
    minimum data exchange during FFTs selected (reduces bandwidth)


 total amount of memory used by VASP MPI-rank0   881832. kBytes
=======================================================================

   base      :      30000. kBytes
   nonl-proj :     680181. kBytes
   fftplans  :       4588. kBytes
   grid      :      69719. kBytes
   one-center:       1990. kBytes
   wavefun   :      95354. kBytes
 
     INWAV:  cpu time    0.0000: real time    0.0001
 Broyden mixing: mesh for mixing (old mesh)
   NGX = 45   NGY = 45   NGZ = 45
  (NGX  =192   NGY  =192   NGZ  =180)
  gives a total of  91125 points

 initial charge density was supplied:
 charge density of overlapping atoms calculated
 number of electron     688.0000000 magnetization      -0.0000000
 keeping initial charge density in first step


--------------------------------------------------------------------------------------------------------


 Maximum index for augmentation-charges          895 (set IRDMAX)


--------------------------------------------------------------------------------------------------------


 First call to EWALD:  gamma=   0.169
 Maximum number of real-space cells 3x 3x 3
 Maximum number of reciprocal cells 3x 3x 3

    FEWALD:  cpu time    0.0026: real time    0.0030


--------------------------------------- Iteration      1(   1)  ---------------------------------------


    POTLOK:  cpu time    0.3283: real time    0.3828
    SETDIJ:  cpu time    0.0150: real time    0.0151
     EDDAV:  cpu time  319.4004: real time  322.0789
 BZINTS: Fermi energy: 16.802773;688.000000 electrons
         Band energy:***********;  BLOECHL correction: -0.014613
       DOS:  cpu time    0.3436: real time    0.3451
    --------------------------------------------
      LOOP:  cpu time  320.0874: real time  322.8219

 eigenvalue-minimisations  : 61440
 total energy-change (2. order) : 0.6200962E+04  (-0.5040242E+05)
 number of electron     688.0000000 magnetization      -0.0000000
 augmentation part      688.0000000 magnetization      -0.0000000

 Free energy of the ion-electron system (eV)
  ---------------------------------------------------
  alpha Z        PSCENC =      2355.19007033
  Ewald energy   TEWEN  =    -62459.98137077
  -Hartree energ DENC   =    -44326.46472624
  -exchange      EXHF   =         0.00000000
  -V(xc)+E(xc)   XCENC  =      3320.12021134
  PAW double counting   =     94592.23312189   -98164.79192727
  entropy T*S    EENTRO =         0.00000000
  eigenvalues    EBANDS =     -3135.40820876
  atomic energy  EATOM  =    114020.06510763
  Solvation  Ediel_sol  =         0.00000000
  ---------------------------------------------------
  free energy    TOTEN  =      6200.96227815 eV

  energy without entropy =     6200.96227815  energy(sigma->0) =     6200.96227815


--------------------------------------------------------------------------------------------------------




--------------------------------------- Iteration      1(   2)  ---------------------------------------


     EDDAV:  cpu time  358.2139: real time  360.9144
 BZINTS: Fermi energy:  6.597463;688.000000 electrons
         Band energy:***********;  BLOECHL correction:  0.000000
       DOS:  cpu time    0.0482: real time    0.0485
    --------------------------------------------
      LOOP:  cpu time  358.2621: real time  360.9628

 eigenvalue-minimisations  : 65280
 total energy-change (2. order) :-0.6290946E+04  (-0.6159970E+04)
 number of electron     688.0000000 magnetization      -0.0000000
 augmentation part      688.0000000 magnetization      -0.0000000

 Free energy of the ion-electron system (eV)
  ---------------------------------------------------
  alpha Z        PSCENC =      2355.19007033
  Ewald energy   TEWEN  =    -62459.98137077
  -Hartree energ DENC   =    -44326.46472624
  -exchange      EXHF   =         0.00000000
  -V(xc)+E(xc)   XCENC  =      3320.12021134
  PAW double counting   =     94592.23312189   -98164.79192727
  entropy T*S    EENTRO =         0.00000000
  eigenvalues    EBANDS =     -9426.35465117
  atomic energy  EATOM  =    114020.06510763
  Solvation  Ediel_sol  =         0.00000000
  ---------------------------------------------------
  free energy    TOTEN  =       -89.98416426 eV

  energy without entropy =      -89.98416426  energy(sigma->0) =      -89.98416426


--------------------------------------------------------------------------------------------------------




--------------------------------------- Iteration      1(   3)  ---------------------------------------


     EDDAV:  cpu time  623.9843: real time  628.2109
 BZINTS: Fermi energy:  6.120269;688.000000 electrons
         Band energy:***********;  BLOECHL correction:  0.000000
       DOS:  cpu time    0.0483: real time    0.0485
    --------------------------------------------
      LOOP:  cpu time  624.0326: real time  628.2595

 eigenvalue-minimisations  : 87808
 total energy-change (2. order) :-0.2823930E+03  (-0.2811180E+03)
 number of electron     688.0000000 magnetization      -0.0000000
 augmentation part      688.0000000 magnetization      -0.0000000

 Free energy of the ion-electron system (eV)
  ---------------------------------------------------
  alpha Z        PSCENC =      2355.19007033
  Ewald energy   TEWEN  =    -62459.98137077
  -Hartree energ DENC   =    -44326.46472624
  -exchange      EXHF   =         0.00000000
  -V(xc)+E(xc)   XCENC  =      3320.12021134
  PAW double counting   =     94592.23312189   -98164.79192727
  entropy T*S    EENTRO =         0.00000000
  eigenvalues    EBANDS =     -9708.74762181
  atomic energy  EATOM  =    114020.06510763
  Solvation  Ediel_sol  =         0.00000000
  ---------------------------------------------------
  free energy    TOTEN  =      -372.37713490 eV

  energy without entropy =     -372.37713490  energy(sigma->0) =     -372.37713490


--------------------------------------------------------------------------------------------------------




--------------------------------------- Iteration      1(   4)  ---------------------------------------


     EDDAV:  cpu time  389.1148: real time  391.9878
 BZINTS: Fermi energy:  6.191708;688.000000 electrons
         Band energy:***********;  BLOECHL correction:  0.000000
       DOS:  cpu time    0.0484: real time    0.0486
    --------------------------------------------
      LOOP:  cpu time  389.1632: real time  392.0364

 eigenvalue-minimisations  : 67328
 total energy-change (2. order) :-0.3935671E+01  (-0.3935442E+01)
 number of electron     688.0000000 magnetization      -0.0000000
 augmentation part      688.0000000 magnetization      -0.0000000

 Free energy of the ion-electron system (eV)
  ---------------------------------------------------
  alpha Z        PSCENC =      2355.19007033
  Ewald energy   TEWEN  =    -62459.98137077
  -Hartree energ DENC   =    -44326.46472624
  -exchange      EXHF   =         0.00000000
  -V(xc)+E(xc)   XCENC  =      3320.12021134
  PAW double counting   =     94592.23312189   -98164.79192727
  entropy T*S    EENTRO =         0.00000000
  eigenvalues    EBANDS =     -9712.68329323
  atomic energy  EATOM  =    114020.06510763
  Solvation  Ediel_sol  =         0.00000000
  ---------------------------------------------------
  free energy    TOTEN  =      -376.31280632 eV

  energy without entropy =     -376.31280632  energy(sigma->0) =     -376.31280632


--------------------------------------------------------------------------------------------------------




--------------------------------------- Iteration      1(   5)  ---------------------------------------


     EDDAV:  cpu time  612.5701: real time  616.7251
 BZINTS: Fermi energy:  6.094406;688.000000 electrons
         Band energy:***********;  BLOECHL correction:  0.000000
       DOS:  cpu time    0.0487: real time    0.0490
    CHARGE:  cpu time    4.0161: real time    4.0459
    MIXING:  cpu time    0.0023: real time    0.0023
    --------------------------------------------
      LOOP:  cpu time  616.6373: real time  620.8223

 eigenvalue-minimisations  : 86016
 total energy-change (2. order) :-0.1043356E+00  (-0.1043346E+00)
 number of electron     688.0000429 magnetization      -0.0000000
 augmentation part      261.0329936 magnetization      -0.0000000

 Broyden mixing:
  rms(total) = 0.74970E+01    rms(broyden)= 0.74970E+01
  rms(prec ) = 0.89740E+01
  weight for this iteration     100.00

 Free energy of the ion-electron system (eV)
  ---------------------------------------------------
  alpha Z        PSCENC =      2355.19007033
  Ewald energy   TEWEN  =    -62459.98137077
  -Hartree energ DENC   =    -44326.46472624
  -exchange      EXHF   =         0.00000000
  -V(xc)+E(xc)   XCENC  =      3320.12021134
  PAW double counting   =     94592.23312189   -98164.79192727
  entropy T*S    EENTRO =         0.00000000
  eigenvalues    EBANDS =     -9712.78762883
  atomic energy  EATOM  =    114020.06510763
  Solvation  Ediel_sol  =         0.00000000
  ---------------------------------------------------
  free energy    TOTEN  =      -376.41714192 eV

  energy without entropy =     -376.41714192  energy(sigma->0) =     -376.41714192


--------------------------------------------------------------------------------------------------------




--------------------------------------- Iteration      1(   6)  ---------------------------------------


    POTLOK:  cpu time    0.1282: real time    0.1291
    SETDIJ:  cpu time    0.0131: real time    0.0131
     EDDAV:  cpu time  324.9208: real time  327.4130
 BZINTS: Fermi energy:  4.291497;688.000000 electrons
         Band energy:***********;  BLOECHL correction:  0.000000
       DOS:  cpu time    0.1024: real time    0.1029
    CHARGE:  cpu time    3.9875: real time    4.0125
    MIXING:  cpu time    0.0026: real time    0.1038
    --------------------------------------------
      LOOP:  cpu time  329.1545: real time  331.7744

 eigenvalue-minimisations  : 61440
 total energy-change (2. order) : 0.4156115E+02  (-0.5902037E+02)
 number of electron     688.0000465 magnetization      -0.0000000
 augmentation part      296.1658065 magnetization      -0.0000000

 Broyden mixing:
  rms(total) = 0.99909E+01    rms(broyden)= 0.99908E+01
  rms(prec ) = 0.10431E+02
  weight for this iteration     100.00

 eigenvalues of (default mixing * dielectric matrix)
  average eigenvalue GAMMA=   0.1669
  0.1669

 Free energy of the ion-electron system (eV)
  ---------------------------------------------------
  alpha Z        PSCENC =      2355.19007033
  Ewald energy   TEWEN  =    -62459.98137077
  -Hartree energ DENC   =    -42370.86345412
  -exchange      EXHF   =         0.00000000
  -V(xc)+E(xc)   XCENC  =      3267.54975600
  PAW double counting   =     96416.04696843   -99775.37905935
  entropy T*S    EENTRO =         0.00000000
  eigenvalues    EBANDS =    -11787.48400534
  atomic energy  EATOM  =    114020.06510763
  Solvation  Ediel_sol  =         0.00000000
  ---------------------------------------------------
  free energy    TOTEN  =      -334.85598719 eV

  energy without entropy =     -334.85598719  energy(sigma->0) =     -334.85598719


--------------------------------------------------------------------------------------------------------




--------------------------------------- Iteration      1(   7)  ---------------------------------------


    POTLOK:  cpu time    0.1298: real time    0.1307
    SETDIJ:  cpu time    0.0128: real time    0.0129
     EDDAV:  cpu time  329.9312: real time  332.4688
 BZINTS: Fermi energy:  4.587603;688.000000 electrons
         Band energy:***********;  BLOECHL correction:  0.000000
       DOS:  cpu time    0.0495: real time    0.0498
    CHARGE:  cpu time    4.0003: real time    4.0256
    MIXING:  cpu time    0.0014: real time    0.0349
    --------------------------------------------
      LOOP:  cpu time  334.1250: real time  336.7227

 eigenvalue-minimisations  : 61952
 total energy-change (2. order) : 0.4989123E+01  (-0.1085480E+02)
 number of electron     688.0000453 magnetization       0.0000000
 augmentation part      286.1183244 magnetization       0.0000000

 Broyden mixing:
  rms(total) = 0.43623E+01    rms(broyden)= 0.43623E+01
  rms(prec ) = 0.44361E+01
  weight for this iteration     100.00

 eigenvalues of (default mixing * dielectric matrix)
  average eigenvalue GAMMA=   0.6169
  0.7615  0.4722

 Free energy of the ion-electron system (eV)
  ---------------------------------------------------
  alpha Z        PSCENC =      2355.19007033
  Ewald energy   TEWEN  =    -62459.98137077
  -Hartree energ DENC   =    -42851.24286081
  -exchange      EXHF   =         0.00000000
  -V(xc)+E(xc)   XCENC  =      3278.96873134
  PAW double counting   =     99826.51256022  -103342.40220059
  entropy T*S    EENTRO =         0.00000000
  eigenvalues    EBANDS =    -11156.97690173
  atomic energy  EATOM  =    114020.06510763
  Solvation  Ediel_sol  =         0.00000000
  ---------------------------------------------------
  free energy    TOTEN  =      -329.86686438 eV

  energy without entropy =     -329.86686438  energy(sigma->0) =     -329.86686438


--------------------------------------------------------------------------------------------------------




--------------------------------------- Iteration      1(   8)  ---------------------------------------


    POTLOK:  cpu time    0.1286: real time    0.1294
    SETDIJ:  cpu time    0.0127: real time    0.0127
     EDDAV:  cpu time  533.2133: real time  536.9260
 BZINTS: Fermi energy:  5.091331;688.000000 electrons
         Band energy:***********;  BLOECHL correction:  0.000000
       DOS:  cpu time    0.0488: real time    0.0490
    CHARGE:  cpu time    3.9947: real time    4.0202
    MIXING:  cpu time    0.0013: real time    0.0013
    --------------------------------------------
      LOOP:  cpu time  537.3994: real time  541.1386

 eigenvalue-minimisations  : 79616
 total energy-change (2. order) : 0.2497517E+00  (-0.3338839E+01)
 number of electron     688.0000447 magnetization       0.0000000
 augmentation part      281.4675509 magnetization       0.0000000

 Broyden mixing:
  rms(total) = 0.31403E+01    rms(broyden)= 0.31403E+01
  rms(prec ) = 0.33758E+01
  weight for this iteration     100.00

 eigenvalues of (default mixing * dielectric matrix)
  average eigenvalue GAMMA=   0.8926
  1.6000  0.6200  0.4579

 Free energy of the ion-electron system (eV)
  ---------------------------------------------------
  alpha Z        PSCENC =      2355.19007033
  Ewald energy   TEWEN  =    -62459.98137077
  -Hartree energ DENC   =    -43108.85500695
  -exchange      EXHF   =         0.00000000
  -V(xc)+E(xc)   XCENC  =      3291.05250013
  PAW double counting   =    105322.79021432  -108938.52781033
  entropy T*S    EENTRO =         0.00000000
  eigenvalues    EBANDS =    -10811.35081707
  atomic energy  EATOM  =    114020.06510763
  Solvation  Ediel_sol  =         0.00000000
  ---------------------------------------------------
  free energy    TOTEN  =      -329.61711271 eV

  energy without entropy =     -329.61711271  energy(sigma->0) =     -329.61711271


--------------------------------------------------------------------------------------------------------




--------------------------------------- Iteration      1(   9)  ---------------------------------------


    POTLOK:  cpu time    0.1283: real time    0.1292
    SETDIJ:  cpu time    0.0128: real time    0.0129
     EDDAV:  cpu time  470.8942: real time  474.3793
 BZINTS: Fermi energy:  4.555628;688.000000 electrons
         Band energy:***********;  BLOECHL correction:  0.000000
       DOS:  cpu time    0.0506: real time    0.0519
    CHARGE:  cpu time    4.0142: real time    4.0400
    MIXING:  cpu time    0.0076: real time    0.0517
    --------------------------------------------
      LOOP:  cpu time  475.1080: real time  478.6652

 eigenvalue-minimisations  : 76288
 total energy-change (2. order) :-0.1932897E+01  (-0.9296314E+01)
 number of electron     688.0000449 magnetization      -0.0000000
 augmentation part      282.1104102 magnetization      -0.0000000

 Broyden mixing:
  rms(total) = 0.23131E+01    rms(broyden)= 0.23130E+01
  rms(prec ) = 0.27537E+01
  weight for this iteration     100.00

 eigenvalues of (default mixing * dielectric matrix)
  average eigenvalue GAMMA=   0.9818
  2.3968  0.5958  0.5958  0.3388

 Free energy of the ion-electron system (eV)
  ---------------------------------------------------
  alpha Z        PSCENC =      2355.19007033
  Ewald energy   TEWEN  =    -62459.98137077
  -Hartree energ DENC   =    -42896.50334797
  -exchange      EXHF   =         0.00000000
  -V(xc)+E(xc)   XCENC  =      3284.02243058
  PAW double counting   =    109912.61767608  -113566.43833209
  entropy T*S    EENTRO =         0.00000000
  eigenvalues    EBANDS =    -10980.52224320
  atomic energy  EATOM  =    114020.06510763
  Solvation  Ediel_sol  =         0.00000000
  ---------------------------------------------------
  free energy    TOTEN  =      -331.55000940 eV

  energy without entropy =     -331.55000940  energy(sigma->0) =     -331.55000940


--------------------------------------------------------------------------------------------------------




--------------------------------------- Iteration      1(  10)  ---------------------------------------


    POTLOK:  cpu time    0.1360: real time    0.1384
    SETDIJ:  cpu time    0.0144: real time    0.0146
     EDDAV:  cpu time  525.4162: real time  529.1190
 BZINTS: Fermi energy:  4.992064;688.000000 electrons
         Band energy:***********;  BLOECHL correction:  0.000000
       DOS:  cpu time    0.0488: real time    0.0490
    CHARGE:  cpu time    4.0035: real time    4.0285
    MIXING:  cpu time    0.0014: real time    0.0014
    --------------------------------------------
      LOOP:  cpu time  529.6201: real time  533.3507

 eigenvalue-minimisations  : 80896
 total energy-change (2. order) : 0.3585578E+01  (-0.2163985E+01)
 number of electron     688.0000447 magnetization       0.0000000
 augmentation part      282.3864623 magnetization       0.0000000

 Broyden mixing:
  rms(total) = 0.28537E+00    rms(broyden)= 0.28531E+00
  rms(prec ) = 0.30193E+00
  weight for this iteration     100.00

 eigenvalues of (default mixing * dielectric matrix)
  average eigenvalue GAMMA=   0.9176
  2.3642  0.7583  0.5693  0.5693  0.3269

 Free energy of the ion-electron system (eV)
  ---------------------------------------------------
  alpha Z        PSCENC =      2355.19007033
  Ewald energy   TEWEN  =    -62459.98137077
  -Hartree energ DENC   =    -42928.99186687
  -exchange      EXHF   =         0.00000000
  -V(xc)+E(xc)   XCENC  =      3287.38198450
  PAW double counting   =    113300.15617495  -116997.55356602
  entropy T*S    EENTRO =         0.00000000
  eigenvalues    EBANDS =    -10904.23096535
  atomic energy  EATOM  =    114020.06510763
  Solvation  Ediel_sol  =         0.00000000
  ---------------------------------------------------
  free energy    TOTEN  =      -327.96443158 eV

  energy without entropy =     -327.96443158  energy(sigma->0) =     -327.96443158


--------------------------------------------------------------------------------------------------------




--------------------------------------- Iteration      1(  11)  ---------------------------------------


    POTLOK:  cpu time    0.1256: real time    0.1263
    SETDIJ:  cpu time    0.0127: real time    0.0128
     EDDAV:  cpu time  520.1010: real time  523.7352
 BZINTS: Fermi energy:  4.999861;688.000000 electrons
         Band energy:***********;  BLOECHL correction:  0.000000
       DOS:  cpu time    0.0491: real time    0.0493
    CHARGE:  cpu time    3.9725: real time    3.9976
    MIXING:  cpu time    0.0015: real time    0.0015
    --------------------------------------------
      LOOP:  cpu time  524.2624: real time  527.9226

 eigenvalue-minimisations  : 79104
 total energy-change (2. order) :-0.1284532E+00  (-0.1085512E+00)
 number of electron     688.0000447 magnetization       0.0000000
 augmentation part      282.3512280 magnetization       0.0000000

 Broyden mixing:
  rms(total) = 0.35237E+00    rms(broyden)= 0.35236E+00
  rms(prec ) = 0.38851E+00
  weight for this iteration     100.00

 eigenvalues of (default mixing * dielectric matrix)
  average eigenvalue GAMMA=   0.9026
  2.2600  0.7431  0.7431  0.7348  0.5913  0.3435

 Free energy of the ion-electron system (eV)
  ---------------------------------------------------
  alpha Z        PSCENC =      2355.19007033
  Ewald energy   TEWEN  =    -62459.98137077
  -Hartree energ DENC   =    -42945.13866238
  -exchange      EXHF   =         0.00000000
  -V(xc)+E(xc)   XCENC  =      3287.04526295
  PAW double counting   =    113088.56605377  -116785.98311963
  entropy T*S    EENTRO =         0.00000000
  eigenvalues    EBANDS =    -10887.85622674
  atomic energy  EATOM  =    114020.06510763
  Solvation  Ediel_sol  =         0.00000000
  ---------------------------------------------------
  free energy    TOTEN  =      -328.09288483 eV

  energy without entropy =     -328.09288483  energy(sigma->0) =     -328.09288483


--------------------------------------------------------------------------------------------------------




--------------------------------------- Iteration      1(  12)  ---------------------------------------


    POTLOK:  cpu time    0.1253: real time    0.1261
    SETDIJ:  cpu time    0.0128: real time    0.0129
     EDDAV:  cpu time  564.8476: real time  568.7741
 BZINTS: Fermi energy:  4.981110;688.000000 electrons
         Band energy:***********;  BLOECHL correction:  0.000000
       DOS:  cpu time    0.0491: real time    0.0493
    CHARGE:  cpu time    3.9670: real time    3.9920
    MIXING:  cpu time    0.0017: real time    0.0017
    --------------------------------------------
      LOOP:  cpu time  569.0036: real time  572.9562

 eigenvalue-minimisations  : 83200
 total energy-change (2. order) : 0.1268473E-01  (-0.4779108E-01)
 number of electron     688.0000447 magnetization      -0.0000000
 augmentation part      282.2532432 magnetization      -0.0000000

 Broyden mixing:
  rms(total) = 0.13501E+00    rms(broyden)= 0.13500E+00
  rms(prec ) = 0.14897E+00
  weight for this iteration     100.00

 eigenvalues of (default mixing * dielectric matrix)
  average eigenvalue GAMMA=   0.9373
  2.2792  1.0638  1.0638  0.6137  0.6137  0.5833  0.3436

 Free energy of the ion-electron system (eV)
  ---------------------------------------------------
  alpha Z        PSCENC =      2355.19007033
  Ewald energy   TEWEN  =    -62459.98137077
  -Hartree energ DENC   =    -42943.88534074
  -exchange      EXHF   =         0.00000000
  -V(xc)+E(xc)   XCENC  =      3286.56702826
  PAW double counting   =    112700.59598129  -116395.14190901
  entropy T*S    EENTRO =         0.00000000
  eigenvalues    EBANDS =    -10891.48976710
  atomic energy  EATOM  =    114020.06510763
  Solvation  Ediel_sol  =         0.00000000
  ---------------------------------------------------
  free energy    TOTEN  =      -328.08020010 eV

  energy without entropy =     -328.08020010  energy(sigma->0) =     -328.08020010


--------------------------------------------------------------------------------------------------------




--------------------------------------- Iteration      1(  13)  ---------------------------------------


    POTLOK:  cpu time    0.1257: real time    0.1264
    SETDIJ:  cpu time    0.0127: real time    0.0128
     EDDAV:  cpu time  480.8804: real time  484.3044
 BZINTS: Fermi energy:  4.984163;688.000000 electrons
         Band energy:***********;  BLOECHL correction:  0.000000
       DOS:  cpu time    0.0491: real time    0.0494
    CHARGE:  cpu time    3.9798: real time    4.0052
    MIXING:  cpu time    0.0017: real time    0.0017
    --------------------------------------------
      LOOP:  cpu time  485.0494: real time  488.4998

 eigenvalue-minimisations  : 75776
 total energy-change (2. order) :-0.4702989E-02  (-0.5041204E-02)
 number of electron     688.0000446 magnetization      -0.0000000
 augmentation part      282.2536630 magnetization      -0.0000000

 Broyden mixing:
  rms(total) = 0.94128E-01    rms(broyden)= 0.94127E-01
  rms(prec ) = 0.95634E-01
  weight for this iteration     100.00

 eigenvalues of (default mixing * dielectric matrix)
  average eigenvalue GAMMA=   1.1240
  2.5381  2.5381  0.3437  0.8442  0.8442  0.6472  0.6472  0.5889

 Free energy of the ion-electron system (eV)
  ---------------------------------------------------
  alpha Z        PSCENC =      2355.19007033
  Ewald energy   TEWEN  =    -62459.98137077
  -Hartree energ DENC   =    -42950.51330053
  -exchange      EXHF   =         0.00000000
  -V(xc)+E(xc)   XCENC  =      3286.63722392
  PAW double counting   =    112441.55109425  -116135.98466972
  entropy T*S    EENTRO =         0.00000000
  eigenvalues    EBANDS =    -10885.04905820
  atomic energy  EATOM  =    114020.06510763
  Solvation  Ediel_sol  =         0.00000000
  ---------------------------------------------------
  free energy    TOTEN  =      -328.08490309 eV

  energy without entropy =     -328.08490309  energy(sigma->0) =     -328.08490309


--------------------------------------------------------------------------------------------------------




--------------------------------------- Iteration      1(  14)  ---------------------------------------


    POTLOK:  cpu time    0.1247: real time    0.1253
    SETDIJ:  cpu time    0.0127: real time    0.0128
     EDDAV:  cpu time  643.1340: real time  647.4799
 BZINTS: Fermi energy:  4.986510;688.000000 electrons
         Band energy:***********;  BLOECHL correction:  0.000000
       DOS:  cpu time    0.0491: real time    0.0494
    CHARGE:  cpu time    3.9609: real time    3.9857
    MIXING:  cpu time    0.0016: real time    0.0016
    --------------------------------------------
      LOOP:  cpu time  647.2829: real time  651.6547

 eigenvalue-minimisations  : 89088
 total energy-change (2. order) :-0.9529605E-02  (-0.4793490E-02)
 number of electron     688.0000446 magnetization       0.0000000
 augmentation part      282.2135235 magnetization       0.0000000

 Broyden mixing:
  rms(total) = 0.39624E-01    rms(broyden)= 0.39618E-01
  rms(prec ) = 0.44254E-01
  weight for this iteration     100.00

 eigenvalues of (default mixing * dielectric matrix)
  average eigenvalue GAMMA=   1.0511
  2.3550  2.3550  0.9406  0.9406  0.3436  0.6396  0.6396  0.5734  0.6721

 Free energy of the ion-electron system (eV)
  ---------------------------------------------------
  alpha Z        PSCENC =      2355.19007033
  Ewald energy   TEWEN  =    -62459.98137077
  -Hartree energ DENC   =    -42958.71432980
  -exchange      EXHF   =         0.00000000
  -V(xc)+E(xc)   XCENC  =      3286.44254078
  PAW double counting   =    112149.51978111  -115843.57933729
  entropy T*S    EENTRO =         0.00000000
  eigenvalues    EBANDS =    -10877.03689469
  atomic energy  EATOM  =    114020.06510763
  Solvation  Ediel_sol  =         0.00000000
  ---------------------------------------------------
  free energy    TOTEN  =      -328.09443269 eV

  energy without entropy =     -328.09443269  energy(sigma->0) =     -328.09443269


--------------------------------------------------------------------------------------------------------




--------------------------------------- Iteration      1(  15)  ---------------------------------------


    POTLOK:  cpu time    0.1251: real time    0.1258
    SETDIJ:  cpu time    0.0128: real time    0.0128
     EDDAV:  cpu time  385.0732: real time  387.9314
[...]
   -.421E+02 0.609E+01 -.516E+00   0.430E+02 -.613E+01 0.523E+00   -.860E+00 0.400E-01 -.619E-02   -.434E-04 -.197E-05 -.251E-05
   -.421E+02 0.609E+01 -.516E+00   0.430E+02 -.613E+01 0.523E+00   -.860E+00 0.400E-01 -.619E-02   -.434E-04 -.197E-05 -.251E-05
   -.421E+02 0.609E+01 -.516E+00   0.430E+02 -.613E+01 0.523E+00   -.860E+00 0.400E-01 -.619E-02   -.434E-04 -.197E-05 -.251E-05
   -.421E+02 0.609E+01 -.516E+00   0.430E+02 -.613E+01 0.523E+00   -.860E+00 0.400E-01 -.619E-02   -.434E-04 -.197E-05 -.251E-05
   0.421E+02 0.609E+01 0.516E+00   -.430E+02 -.613E+01 -.523E+00   0.860E+00 0.400E-01 0.619E-02   0.434E-04 -.197E-05 0.251E-05
   0.421E+02 0.609E+01 0.516E+00   -.430E+02 -.613E+01 -.523E+00   0.860E+00 0.400E-01 0.619E-02   0.434E-04 -.197E-05 0.251E-05
   0.421E+02 0.609E+01 0.516E+00   -.430E+02 -.613E+01 -.523E+00   0.860E+00 0.400E-01 0.619E-02   0.434E-04 -.197E-05 0.251E-05
   0.421E+02 0.609E+01 0.516E+00   -.430E+02 -.613E+01 -.523E+00   0.860E+00 0.400E-01 0.619E-02   0.434E-04 -.197E-05 0.251E-05
   0.603E-07 -.375E+02 0.170E-06   -.782E-13 0.383E+02 -.639E-13   -.668E-18 -.824E+00 -.271E-18   0.353E-13 -.414E-04 0.286E-12
   0.603E-07 -.375E+02 0.170E-06   -.639E-13 0.383E+02 -.924E-13   0.712E-19 -.824E+00 -.651E-18   0.158E-13 -.414E-04 0.301E-12
   0.603E-07 -.375E+02 0.170E-06   -.568E-13 0.383E+02 -.568E-13   -.263E-18 -.824E+00 0.651E-18   0.235E-14 -.414E-04 0.363E-12
   0.603E-07 -.375E+02 0.170E-06   -.426E-13 0.383E+02 -.853E-13   -.322E-18 -.824E+00 -.542E-19   0.758E-13 -.414E-04 0.250E-12
   0.871E-08 0.469E+02 -.102E-06   0.426E-13 -.478E+02 -.128E-12   -.206E-17 0.899E+00 -.434E-18   0.121E-13 0.444E-04 0.301E-12
   0.871E-08 0.469E+02 -.102E-06   0.142E-13 -.478E+02 -.121E-12   0.279E-17 0.899E+00 0.651E-18   0.121E-12 0.444E-04 0.274E-12
   0.871E-08 0.469E+02 -.102E-06   0.426E-13 -.478E+02 -.639E-13   -.847E-20 0.899E+00 -.260E-17   0.157E-12 0.444E-04 0.283E-12
   0.871E-08 0.469E+02 -.102E-06   0.000E+00 -.478E+02 -.568E-13   -.108E-17 0.899E+00 0.304E-17   0.302E-13 0.444E-04 0.275E-12
   0.128E+01 -.576E+01 0.456E-01   -.126E+01 0.553E+01 -.467E-01   -.166E-01 0.231E+00 0.108E-02   -.577E-05 0.875E-05 -.872E-06
   0.128E+01 -.576E+01 0.456E-01   -.126E+01 0.553E+01 -.467E-01   -.166E-01 0.231E+00 0.108E-02   -.577E-05 0.875E-05 -.872E-06
   0.128E+01 -.576E+01 0.456E-01   -.126E+01 0.553E+01 -.467E-01   -.166E-01 0.231E+00 0.108E-02   -.577E-05 0.875E-05 -.872E-06
   0.128E+01 -.576E+01 0.456E-01   -.126E+01 0.553E+01 -.467E-01   -.166E-01 0.231E+00 0.108E-02   -.577E-05 0.875E-05 -.872E-06
   -.128E+01 -.576E+01 -.456E-01   0.126E+01 0.553E+01 0.467E-01   0.166E-01 0.231E+00 -.108E-02   0.577E-05 0.875E-05 0.872E-06
   -.128E+01 -.576E+01 -.456E-01   0.126E+01 0.553E+01 0.467E-01   0.166E-01 0.231E+00 -.108E-02   0.577E-05 0.875E-05 0.872E-06
   -.128E+01 -.576E+01 -.456E-01   0.126E+01 0.553E+01 0.467E-01   0.166E-01 0.231E+00 -.108E-02   0.577E-05 0.875E-05 0.872E-06
   -.128E+01 -.576E+01 -.456E-01   0.126E+01 0.553E+01 0.467E-01   0.166E-01 0.231E+00 -.108E-02   0.577E-05 0.875E-05 0.872E-06
   0.128E+01 -.576E+01 0.456E-01   -.126E+01 0.553E+01 -.467E-01   -.166E-01 0.231E+00 0.108E-02   -.577E-05 0.875E-05 -.872E-06
   0.128E+01 -.576E+01 0.456E-01   -.126E+01 0.553E+01 -.467E-01   -.166E-01 0.231E+00 0.108E-02   -.577E-05 0.875E-05 -.872E-06
   0.128E+01 -.576E+01 0.456E-01   -.126E+01 0.553E+01 -.467E-01   -.166E-01 0.231E+00 0.108E-02   -.577E-05 0.875E-05 -.872E-06
   0.128E+01 -.576E+01 0.456E-01   -.126E+01 0.553E+01 -.467E-01   -.166E-01 0.231E+00 0.108E-02   -.577E-05 0.875E-05 -.872E-06
   -.128E+01 -.576E+01 -.456E-01   0.126E+01 0.553E+01 0.467E-01   0.166E-01 0.231E+00 -.108E-02   0.577E-05 0.875E-05 0.872E-06
   -.128E+01 -.576E+01 -.456E-01   0.126E+01 0.553E+01 0.467E-01   0.166E-01 0.231E+00 -.108E-02   0.577E-05 0.875E-05 0.872E-06
   -.128E+01 -.576E+01 -.456E-01   0.126E+01 0.553E+01 0.467E-01   0.166E-01 0.231E+00 -.108E-02   0.577E-05 0.875E-05 0.872E-06
   -.128E+01 -.576E+01 -.456E-01   0.126E+01 0.553E+01 0.467E-01   0.166E-01 0.231E+00 -.108E-02   0.577E-05 0.875E-05 0.872E-06
   -.148E+01 -.562E+01 0.819E-01   0.145E+01 0.532E+01 -.842E-01   0.316E-01 0.308E+00 0.242E-02   0.819E-05 -.254E-04 -.193E-05
   -.148E+01 -.562E+01 0.819E-01   0.145E+01 0.532E+01 -.842E-01   0.316E-01 0.308E+00 0.242E-02   0.819E-05 -.254E-04 -.193E-05
   -.148E+01 -.562E+01 0.819E-01   0.145E+01 0.532E+01 -.842E-01   0.316E-01 0.308E+00 0.242E-02   0.819E-05 -.254E-04 -.193E-05
   -.148E+01 -.562E+01 0.819E-01   0.145E+01 0.532E+01 -.842E-01   0.316E-01 0.308E+00 0.242E-02   0.819E-05 -.254E-04 -.193E-05
   0.148E+01 -.562E+01 -.819E-01   -.145E+01 0.532E+01 0.842E-01   -.316E-01 0.308E+00 -.242E-02   -.819E-05 -.254E-04 0.193E-05
   0.148E+01 -.562E+01 -.819E-01   -.145E+01 0.532E+01 0.842E-01   -.316E-01 0.308E+00 -.242E-02   -.819E-05 -.254E-04 0.193E-05
   0.148E+01 -.562E+01 -.819E-01   -.145E+01 0.532E+01 0.842E-01   -.316E-01 0.308E+00 -.242E-02   -.819E-05 -.254E-04 0.193E-05
   0.148E+01 -.562E+01 -.819E-01   -.145E+01 0.532E+01 0.842E-01   -.316E-01 0.308E+00 -.242E-02   -.819E-05 -.254E-04 0.193E-05
   -.148E+01 -.562E+01 0.819E-01   0.145E+01 0.532E+01 -.842E-01   0.316E-01 0.308E+00 0.242E-02   0.819E-05 -.254E-04 -.193E-05
   -.148E+01 -.562E+01 0.819E-01   0.145E+01 0.532E+01 -.842E-01   0.316E-01 0.308E+00 0.242E-02   0.819E-05 -.254E-04 -.193E-05
   -.148E+01 -.562E+01 0.819E-01   0.145E+01 0.532E+01 -.842E-01   0.316E-01 0.308E+00 0.242E-02   0.819E-05 -.254E-04 -.193E-05
   -.148E+01 -.562E+01 0.819E-01   0.145E+01 0.532E+01 -.842E-01   0.316E-01 0.308E+00 0.242E-02   0.819E-05 -.254E-04 -.193E-05
   0.148E+01 -.562E+01 -.819E-01   -.145E+01 0.532E+01 0.842E-01   -.316E-01 0.308E+00 -.242E-02   -.819E-05 -.254E-04 0.193E-05
   0.148E+01 -.562E+01 -.819E-01   -.145E+01 0.532E+01 0.842E-01   -.316E-01 0.308E+00 -.242E-02   -.819E-05 -.254E-04 0.193E-05
   0.148E+01 -.562E+01 -.819E-01   -.145E+01 0.532E+01 0.842E-01   -.316E-01 0.308E+00 -.242E-02   -.819E-05 -.254E-04 0.193E-05
   0.148E+01 -.562E+01 -.819E-01   -.145E+01 0.532E+01 0.842E-01   -.316E-01 0.308E+00 -.242E-02   -.819E-05 -.254E-04 0.193E-05
 -----------------------------------------------------------------------------------------------
   -.385E-06 -.989E+01 0.301E-03   -.628E-13 0.320E-12 -.789E-12   -.645E-15 0.988E+01 0.260E-17   -.485E-11 -.274E-03 0.271E-11
 
 
 POSITION                                       TOTAL-FORCE (eV/Angst)
 -----------------------------------------------------------------------------------
      1.33807      1.30303      1.31478        -0.000070      0.000037      0.000071
      6.59583      1.30303      1.36066        -0.000070      0.000037      0.000071
      1.33807      6.56114      1.31478        -0.000070      0.000037      0.000071
      6.59583      6.56114      1.36066        -0.000070      0.000037      0.000071
      3.94241      3.93209      1.33372         0.000070      0.000037     -0.000071
      9.20018      3.93209      1.37960         0.000070      0.000037     -0.000071
      3.94241      9.19020      1.33372         0.000070      0.000037     -0.000071
      9.20018      9.19020      1.37960         0.000070      0.000037     -0.000071
      1.39394      3.92346      9.12062        -0.000000     -0.000041      0.000000
      6.65170      3.92346      9.16651        -0.000000     -0.000041      0.000000
      1.39394      9.18157      9.12062        -0.000000     -0.000041      0.000000
      6.65170      9.18157      9.16651        -0.000000     -0.000041      0.000000
      4.02282      1.31852      9.14356        -0.000000      0.000064      0.000000
      9.28059      1.31852      9.18945        -0.000000      0.000064      0.000000
      4.02282      6.57663      9.14356        -0.000000      0.000064      0.000000
      9.28059      6.57663      9.18945        -0.000000      0.000064      0.000000
      1.35896      1.30303      6.51601         0.000070      0.000037     -0.000071
      6.61672      1.30303      6.56189         0.000070      0.000037     -0.000071
      1.35896      6.56114      6.51601         0.000070      0.000037     -0.000071
      6.61672      6.56114      6.56189         0.000070      0.000037     -0.000071
      4.01237      3.93209      6.54295        -0.000070      0.000037      0.000071
      9.27014      3.93209      6.58883        -0.000070      0.000037      0.000071
      4.01237      9.19020      6.54295        -0.000070      0.000037      0.000071
      9.27014      9.19020      6.58883        -0.000070      0.000037      0.000071
      3.97739      1.29441      3.93833        -0.000000     -0.000041      0.000000
      9.23516      1.29441      3.98422        -0.000000     -0.000041      0.000000
      3.97739      6.55252      3.93833        -0.000000     -0.000041      0.000000
      9.23516      6.55252      3.98422        -0.000000     -0.000041      0.000000
      1.34851      3.94758      3.91539        -0.000000      0.000064      0.000000
      6.60628      3.94758      3.96128        -0.000000      0.000064      0.000000
      1.34851      9.20569      3.91539        -0.000000      0.000064      0.000000
      6.60628      9.20569      3.96128        -0.000000      0.000064      0.000000
     10.55744      0.00993      5.29692        -0.000054     -0.000033     -0.000002
      5.29967      0.00993      5.25104        -0.000054     -0.000033     -0.000002
     10.55744      5.26804      5.29692        -0.000054     -0.000033     -0.000002
      5.29967      5.26804      5.25104        -0.000054     -0.000033     -0.000002
      2.65512      0.00993      2.62563         0.000054     -0.000033      0.000002
      7.91289      0.00993      2.67151         0.000054     -0.000033      0.000002
      2.65512      5.26804      2.62563         0.000054     -0.000033      0.000002
      7.91289      5.26804      2.67151         0.000054     -0.000033      0.000002
      2.71621      2.63898     10.43333        -0.000054     -0.000033     -0.000002
      7.97398      2.63898     10.47921        -0.000054     -0.000033     -0.000002
      2.71621      7.89709     10.43333        -0.000054     -0.000033     -0.000002
      7.97398      7.89709     10.47921        -0.000054     -0.000033     -0.000002
      0.07166      2.63898      7.80792         0.000054     -0.000033      0.000002
      5.32943      2.63898      7.85380         0.000054     -0.000033      0.000002
      0.07166      7.89709      7.80792         0.000054     -0.000033      0.000002
      5.32943      7.89709      7.85380         0.000054     -0.000033      0.000002
     10.51380      0.00963      0.09193         0.000008     -0.000015      0.000084
      5.25603      0.00963      0.04605         0.000008     -0.000015      0.000084
     10.51380      5.26774      0.09193         0.000008     -0.000015      0.000084
      5.25603      5.26774      0.04605         0.000008     -0.000015      0.000084
      2.69876      0.00963      7.83062        -0.000008     -0.000015     -0.000084
      7.95652      0.00963      7.87651        -0.000008     -0.000015     -0.000084
      2.69876      5.26774      7.83062        -0.000008     -0.000015     -0.000084
      7.95652      5.26774      7.87651        -0.000008     -0.000015     -0.000084
      2.67258      2.63869      5.22833         0.000008     -0.000015      0.000084
      7.93034      2.63869      5.27422         0.000008     -0.000015      0.000084
      2.67258      7.89680      5.22833         0.000008     -0.000015      0.000084
      7.93034      7.89680      5.27422         0.000008     -0.000015      0.000084
      0.02445      2.63869      2.60245        -0.000008     -0.000015     -0.000084
      5.28221      2.63869      2.64834        -0.000008     -0.000015     -0.000084
      0.02445      7.89680      2.60245        -0.000008     -0.000015     -0.000084
      5.28221      7.89680      2.64834        -0.000008     -0.000015     -0.000084
 -----------------------------------------------------------------------------------
    total drift:                               -0.000000     -0.018265      0.000301


--------------------------------------------------------------------------------------------------------



  FREE ENERGIE OF THE ION-ELECTRON SYSTEM (eV)
  ---------------------------------------------------
  free  energy   TOTEN  =      -328.09456834 eV

  energy  without entropy=     -328.09456834  energy(sigma->0) =     -328.09456834
 


--------------------------------------------------------------------------------------------------------


    POTLOK:  cpu time    0.1430: real time    0.1438


--------------------------------------------------------------------------------------------------------


 writing wavefunctions
     LOOP+:  cpu time13980.3670: real time14090.4524
    4ORBIT:  cpu time    0.0001: real time    0.0022
 


 total charge     
 
# of ion       s       p       d       tot
------------------------------------------
    1        1.314   2.410   0.000   3.724
    2        1.314   2.410   0.000   3.724
    3        1.314   2.410   0.000   3.724
    4        1.314   2.410   0.000   3.724
    5        1.313   2.410   0.000   3.723
    6        1.313   2.410   0.000   3.723
    7        1.313   2.410   0.000   3.723
    8        1.313   2.410   0.000   3.723
    9        1.314   2.409   0.000   3.723
   10        1.314   2.409   0.000   3.723
   11        1.314   2.409   0.000   3.723
   12        1.314   2.409   0.000   3.723
   13        1.313   2.411   0.000   3.724
   14        1.313   2.411   0.000   3.724
   15        1.313   2.411   0.000   3.724
   16        1.313   2.411   0.000   3.724
   17        1.313   2.410   0.000   3.723
   18        1.313   2.410   0.000   3.723
   19        1.313   2.410   0.000   3.723
   20        1.313   2.410   0.000   3.723
   21        1.314   2.410   0.000   3.724
   22        1.314   2.410   0.000   3.724
   23        1.314   2.410   0.000   3.724
   24        1.314   2.410   0.000   3.724
   25        1.314   2.409   0.000   3.723
   26        1.314   2.409   0.000   3.723
   27        1.314   2.409   0.000   3.723
   28        1.314   2.409   0.000   3.723
   29        1.313   2.411   0.000   3.724
   30        1.313   2.411   0.000   3.724
   31        1.313   2.411   0.000   3.724
   32        1.313   2.411   0.000   3.724
   33        0.260   6.202   8.917  15.378
   34        0.260   6.202   8.917  15.378
   35        0.260   6.202   8.917  15.378
   36        0.260   6.202   8.917  15.378
   37        0.260   6.202   8.917  15.378
   38        0.260   6.202   8.917  15.378
   39        0.260   6.202   8.917  15.378
   40        0.260   6.202   8.917  15.378
   41        0.260   6.202   8.917  15.378
   42        0.260   6.202   8.917  15.378
   43        0.260   6.202   8.917  15.378
   44        0.260   6.202   8.917  15.378
   45        0.260   6.202   8.917  15.378
   46        0.260   6.202   8.917  15.378
   47        0.260   6.202   8.917  15.378
   48        0.260   6.202   8.917  15.378
   49        0.350   6.351   5.820  12.521
   50        0.350   6.351   5.820  12.521
   51        0.350   6.351   5.820  12.521
   52        0.350   6.351   5.820  12.521
   53        0.350   6.351   5.820  12.521
   54        0.350   6.351   5.820  12.521
   55        0.350   6.351   5.820  12.521
   56        0.350   6.351   5.820  12.521
   57        0.350   6.351   5.820  12.521
   58        0.350   6.351   5.820  12.521
   59        0.350   6.351   5.820  12.521
   60        0.350   6.351   5.820  12.521
   61        0.350   6.351   5.820  12.521
   62        0.350   6.351   5.820  12.521
   63        0.350   6.351   5.820  12.521
   64        0.350   6.351   5.820  12.521
--------------------------------------------------
tot         51.789 277.969 235.779 565.537
 


 magnetization (x)
 
# of ion       s       p       d       tot
------------------------------------------
    1        0.000  -0.004   0.000  -0.004
    2        0.000  -0.004   0.000  -0.004
    3        0.000  -0.004   0.000  -0.004
    4        0.000  -0.004   0.000  -0.004
    5        0.000   0.004   0.000   0.004
    6        0.000   0.004   0.000   0.004
    7        0.000   0.004   0.000   0.004
    8        0.000   0.004   0.000   0.004
    9       -0.000   0.000   0.000   0.000
   10       -0.000   0.000   0.000   0.000
   11       -0.000   0.000   0.000   0.000
   12       -0.000   0.000   0.000   0.000
   13       -0.000   0.000   0.000   0.000
   14       -0.000   0.000   0.000   0.000
   15       -0.000   0.000   0.000   0.000
   16       -0.000   0.000   0.000   0.000
   17        0.000   0.004   0.000   0.004
   18        0.000   0.004   0.000   0.004
   19        0.000   0.004   0.000   0.004
   20        0.000   0.004   0.000   0.004
   21        0.000  -0.004   0.000  -0.004
   22        0.000  -0.004   0.000  -0.004
   23        0.000  -0.004   0.000  -0.004
   24        0.000  -0.004   0.000  -0.004
   25       -0.000   0.000   0.000   0.000
   26       -0.000   0.000   0.000   0.000
   27       -0.000   0.000   0.000   0.000
   28       -0.000   0.000   0.000   0.000
   29       -0.000   0.000   0.000   0.000
   30       -0.000   0.000   0.000   0.000
   31       -0.000   0.000   0.000   0.000
   32       -0.000   0.000   0.000   0.000
   33        0.000   0.001  -0.001   0.000
   34        0.000   0.001  -0.001   0.000
   35        0.000   0.001  -0.001   0.000
   36        0.000   0.001  -0.001   0.000
   37       -0.000  -0.001   0.001   0.000
   38       -0.000  -0.001   0.001   0.000
   39       -0.000  -0.001   0.001   0.000
   40       -0.000  -0.001   0.001   0.000
   41        0.000   0.001  -0.001   0.000
   42        0.000   0.001  -0.001   0.000
   43        0.000   0.001  -0.001   0.000
   44        0.000   0.001  -0.001   0.000
   45       -0.000  -0.001   0.001   0.000
   46       -0.000  -0.001   0.001   0.000
   47       -0.000  -0.001   0.001   0.000
   48       -0.000  -0.001   0.001   0.000
   49        0.020   0.054   3.671   3.744
   50        0.020   0.054   3.671   3.744
   51        0.020   0.054   3.671   3.744
   52        0.020   0.054   3.671   3.744
   53       -0.020  -0.054  -3.671  -3.744
   54       -0.020  -0.054  -3.671  -3.744
   55       -0.020  -0.054  -3.671  -3.744
   56       -0.020  -0.054  -3.671  -3.744
   57        0.020   0.054   3.671   3.744
   58        0.020   0.054   3.671   3.744
   59        0.020   0.054   3.671   3.744
   60        0.020   0.054   3.671   3.744
   61       -0.020  -0.054  -3.671  -3.744
   62       -0.020  -0.054  -3.671  -3.744
   63       -0.020  -0.054  -3.671  -3.744
   64       -0.020  -0.054  -3.671  -3.744
--------------------------------------------------
tot         -0.000   0.000   0.000   0.000
 
 BZINTS: Fermi energy:  4.984640;688.000000 electrons
         Band energy:***********;  BLOECHL correction:  0.000000

 total amount of memory used by VASP MPI-rank0   881832. kBytes
=======================================================================

   base      :      30000. kBytes
   nonl-proj :     680181. kBytes
   fftplans  :       4588. kBytes
   grid      :      69719. kBytes
   one-center:       1990. kBytes
   wavefun   :      95354. kBytes
 
  
  
 General timing and accounting informations for this job:
 ========================================================
  
                  Total CPU time used (sec):    14132.462
                            User time (sec):    14104.367
                          System time (sec):       28.094
                         Elapsed time (sec):    14246.905
  
                   Maximum memory used (kb):     1496480.
                   Average memory used (kb):           0.
  
                          Minor page faults:      2450597
                          Major page faults:        37394
                 Voluntary context switches:        45864
