       N       E                     dE             d eps       ncg     rms          rms(c)
DAV:   1    -0.298378662796E+03   -0.29838E+03   -0.17496E+03 18944   0.242E+02    0.415E+01
DAV:   2    -0.327528950755E+03   -0.29150E+02   -0.29219E+02 14080   0.272E+01    0.168E+01
DAV:   3    -0.327853174180E+03   -0.32422E+00   -0.51675E+00 19456   0.482E+00    0.125E+01
DAV:   4    -0.327834103077E+03    0.19071E-01   -0.53329E-01 14592   0.205E+00    0.105E+01
DAV:   5    -0.327833758223E+03    0.34485E-03   -0.36133E-02 14592   0.573E-01    0.910E+00
DAV:   6    -0.327833369418E+03    0.38881E-03   -0.39598E-03 16128   0.165E-01    0.722E+00
DAV:   7    -0.327831274409E+03    0.20950E-02   -0.73971E-03 16128   0.258E-01    0.162E+00
DAV:   8    -0.327831298180E+03   -0.23771E-04   -0.33672E-04 13824   0.414E-02    0.110E+00
DAV:   9    -0.327831284014E+03    0.14166E-04   -0.28628E-05 17920   0.113E-02    0.956E-01
DAV:  10    -0.327831248940E+03    0.35074E-04   -0.51483E-04 13312   0.464E-02    0.207E-02
DAV:  11    -0.327831251474E+03   -0.25338E-05   -0.14286E-05 15872   0.665E-03    0.383E-02
DAV:  12    -0.327831252620E+03   -0.11468E-05   -0.17718E-06 16640   0.165E-03    0.502E-02
DAV:  13    -0.327831254022E+03   -0.14014E-05   -0.36624E-06 16896   0.216E-03    0.459E-02
DAV:  14    -0.327831254476E+03   -0.45428E-06   -0.32732E-07 13312   0.990E-04    0.211E-02
DAV:  15    -0.327831254804E+03   -0.32822E-06   -0.45205E-07 16896   0.661E-04    0.901E-03
DAV:  16    -0.327831254903E+03   -0.99113E-07   -0.22814E-07 14336   0.478E-04    0.218E-03
DAV:  17    -0.327831254902E+03    0.96043E-09   -0.31272E-08 11776   0.282E-04
   1 F= -.32783125E+03 E0= -.32783125E+03  d E =-.473610E-11  mag=     0.0000
