       N       E                     dE             d eps       ncg     rms          rms(c)
DAV:   1     0.605058985437E+04    0.60506E+04   -0.51601E+05 16384   0.197E+03
DAV:   2    -0.807518370421E+02   -0.61313E+04   -0.60208E+04 18432   0.446E+02
DAV:   3    -0.323636975697E+03   -0.24289E+03   -0.24208E+03 22528   0.965E+01
DAV:   4    -0.326994272256E+03   -0.33573E+01   -0.33571E+01 19968   0.114E+01
DAV:   5    -0.327096602080E+03   -0.10233E+00   -0.10233E+00 20992   0.195E+00    0.867E+00
DAV:   6    -0.326259701351E+03    0.83690E+00   -0.13841E+00 26624   0.417E+00    0.495E+00
DAV:   7    -0.326085514509E+03    0.17419E+00   -0.15265E+00 20480   0.376E+00    0.390E+00
DAV:   8    -0.326008969922E+03    0.76545E-01   -0.17859E+00 23552   0.378E+00    0.380E+00
DAV:   9    -0.325966167391E+03    0.42803E-01   -0.35524E-01 20992   0.165E+00    0.930E-01
DAV:  10    -0.325966668494E+03   -0.50110E-03   -0.30015E-02 23808   0.317E-01    0.545E-01
DAV:  11    -0.325968095623E+03   -0.14271E-02   -0.76491E-03 18944   0.185E-01    0.265E-01
DAV:  12    -0.325969061799E+03   -0.96618E-03   -0.28347E-03 23040   0.749E-02    0.107E-01
DAV:  13    -0.325969276077E+03   -0.21428E-03   -0.49834E-04 18944   0.351E-02    0.749E-02
DAV:  14    -0.325969411327E+03   -0.13525E-03   -0.37977E-04 23808   0.274E-02    0.415E-02
DAV:  15    -0.325969495131E+03   -0.83803E-04   -0.28632E-04 20480   0.176E-02    0.236E-02
DAV:  16    -0.325969522879E+03   -0.27749E-04   -0.10359E-04 19968   0.121E-02    0.158E-02
DAV:  17    -0.325969536228E+03   -0.13348E-04   -0.77263E-05 22016   0.871E-03    0.892E-03
DAV:  18    -0.325969539234E+03   -0.30064E-05   -0.30156E-05 23808   0.598E-03    0.393E-03
DAV:  19    -0.325969539465E+03   -0.23107E-06   -0.18156E-06 20736   0.164E-03    0.251E-03
DAV:  20    -0.325969539529E+03   -0.63490E-07   -0.38756E-07 21760   0.834E-04    0.118E-03
DAV:  21    -0.325969539571E+03   -0.41939E-07   -0.18691E-07 22272   0.542E-04    0.650E-04
DAV:  22    -0.325969539604E+03   -0.32873E-07   -0.66370E-08 20992   0.324E-04    0.431E-04
DAV:  23    -0.325969539619E+03   -0.14974E-07   -0.24041E-08 12288   0.166E-04    0.209E-04
DAV:  24    -0.325969539625E+03   -0.66211E-08   -0.10205E-08 14336   0.106E-04
   1 F= -.32596954E+03 E0= -.32596954E+03  d E =0.000000E+00  mag=     0.0000
