 vasp.5.4.4.18Apr17-6-g9f103f2a35 (build Oct 30 2023 17:30:16) complex          
  
 executed on             LinuxIFC date 2024.06.30  05:18:16
 running on  256 total cores
 distrk:  each k-point on  256 cores,    1 groups
 distr:  one band on NCORES_PER_BAND=   1 cores,  256 groups


--------------------------------------------------------------------------------------------------------


 INCAR:
 POTCAR:    PAW_PBE S 06Sep2000                   
 POTCAR:     PAW_PBE Cu_pv 06Sep2000              
 POTCAR:     PAW_PBE Fe_pv 02Aug2007              

 ----------------------------------------------------------------------------- 
|                                                                             |
|           W    W    AA    RRRRR   N    N  II  N    N   GGGG   !!!           |
|           W    W   A  A   R    R  NN   N  II  NN   N  G    G  !!!           |
|           W    W  A    A  R    R  N N  N  II  N N  N  G       !!!           |
|           W WW W  AAAAAA  RRRRR   N  N N  II  N  N N  G  GGG   !            |
|           WW  WW  A    A  R   R   N   NN  II  N   NN  G    G                |
|           W    W  A    A  R    R  N    N  II  N    N   GGGG   !!!           |
|                                                                             |
|      For optimal performance we recommend to set                            |
|        NCORE= 4 - approx SQRT( number of cores)                             |
|      NCORE specifies how many cores store one orbital (NPAR=cpu/NCORE).     |
|      This setting can  greatly improve the performance of VASP for DFT.     |
|      The default,   NCORE=1            might be grossly inefficient         |
|      on modern multi-core architectures or massively parallel machines.     |
|      Do your own testing !!!!                                               |
|      Unfortunately you need to use the default for GW and RPA calculations. |
|      (for HF NCORE is supported but not extensively tested yet)             |
|                                                                             |
 ----------------------------------------------------------------------------- 

 POTCAR:    PAW_PBE S 06Sep2000                   
   SHA256 =  0fc7481fb0695f01bdc6462160264c5c84044ae9ec85a907d398b887a2bc3132 S/
   COPYR  = (c) Copyright 06Sep2000 Georg Kresse                                
   COPYR  = This file is part of the software VASP. Any use, copying, and all ot
   COPYR  = If you do not have a valid VASP license, you may not use, copy or di
   VRHFIN =S : s2p4                                                             
   LEXCH  = PE                                                                  
   EATOM  =   276.8230 eV,   20.3459 Ry                                         
                                                                                
   TITEL  = PAW_PBE S 06Sep2000                                                 
   LULTRA =        F    use ultrasoft PP ?                                      
   IUNSCR =        1    unscreen: 0-lin 1-nonlin 2-no                           
   RPACOR =    1.500    partial core radius                                     
   POMASS =   32.066; ZVAL   =    6.000    mass and valenz                      
   RCORE  =    1.900    outmost cutoff radius                                   
   RWIGS  =    2.200; RWIGS  =    1.164    wigner-seitz radius (au A)           
   ENMAX  =  258.689; ENMIN  =  194.016 eV                                      
   ICORE  =        2    local potential                                         
   LCOR   =        T    correct aug charges                                     
   LPAW   =        T    paw PP                                                  
   EAUG   =  335.092                                                            
   DEXC   =    0.000                                                            
   RMAX   =    1.942    core radius for proj-oper                               
   RAUG   =    1.300    factor for augmentation sphere                          
   RDEP   =    1.954    radius for radial grids                                 
   RDEPT  =    1.744    core radius for aug-charge                              
                                                                                
   Atomic configuration                                                         
    6 entries                                                                   
     n  l   j            E        occ.                                          
     1  0  0.50     -2405.8406   2.0000                                         
     2  0  0.50      -211.7007   2.0000                                         
     2  1  1.50      -156.4958   6.0000                                         
     3  0  0.50       -17.2562   2.0000                                         
     3  1  0.50        -7.0085   4.0000                                         
     3  2  1.50        -6.8029   0.0000                                         
   Description                                                                  
     l       E           TYP  RCUT    TYP  RCUT                                 
     0    -17.2561641     23  1.900                                             
     0    -15.8743224     23  1.900                                             
     1     -7.0085400     23  1.900                                             
     1     -2.7779785     23  1.900                                             
     2     -6.8029130     23  1.900                                             
  local pseudopotential read in
  partial core-charges read in
  partial kinetic energy density read in
  atomic valenz-charges read in
  non local Contribution for L=           0  read in
    real space projection operators read in
  non local Contribution for L=           0  read in
    real space projection operators read in
  non local Contribution for L=           1  read in
    real space projection operators read in
  non local Contribution for L=           1  read in
    real space projection operators read in
    PAW grid and wavefunctions read in
 
   number of l-projection  operators is LMAX  =           4
   number of lm-projection operators is LMMAX =           8
 
 POTCAR:     PAW_PBE Cu_pv 06Sep2000              
   SHA256 =  cb7b504e2ea725fe1f25c85a9ac77d4012ce94cd394135b722c4e25ec297f1cb Cu
   COPYR  = (c) Copyright 06Sep2000 Georg Kresse                                
   COPYR  = This file is part of the software VASP. Any use, copying, and all ot
   COPYR  = If you do not have a valid VASP license, you may not use, copy or di
   VRHFIN =Cu: d10 p1                                                           
   LEXCH  = PE                                                                  
   EATOM  =  4120.1201 eV,  302.8203 Ry                                         
                                                                                
   TITEL  = PAW_PBE Cu_pv 06Sep2000                                             
   LULTRA =        F    use ultrasoft PP ?                                      
   IUNSCR =        1    unscreen: 0-lin 1-nonlin 2-no                           
   RPACOR =    1.500    partial core radius                                     
   POMASS =   63.546; ZVAL   =   17.000    mass and valenz                      
   RCORE  =    2.000    outmost cutoff radius                                   
   RWIGS  =    2.000; RWIGS  =    1.058    wigner-seitz radius (au A)           
   ENMAX  =  368.648; ENMIN  =  276.486 eV                                      
   RCLOC  =    1.304    cutoff for local pot                                    
   LCOR   =        T    correct aug charges                                     
   LPAW   =        T    paw PP                                                  
   EAUG   =  758.233                                                            
   DEXC   =    0.000                                                            
   RMAX   =    2.046    core radius for proj-oper                               
   RAUG   =    1.300    factor for augmentation sphere                          
   RDEP   =    2.025    radius for radial grids                                 
   RDEPT  =    1.558    core radius for aug-charge                              
                                                                                
   Atomic configuration                                                         
    8 entries                                                                   
     n  l   j            E        occ.                                          
     1  0  0.50     -8850.2467   2.0000                                         
     2  0  0.50     -1062.3498   2.0000                                         
     2  1  1.50      -916.8226   6.0000                                         
     3  0  0.50      -114.6929   2.0000                                         
     3  1  1.50       -72.1325   6.0000                                         
     3  2  2.50        -5.0394  10.0000                                         
     4  0  0.50        -4.6097   1.0000                                         
     4  3  2.50        -1.3606   0.0000                                         
   Description                                                                  
     l       E           TYP  RCUT    TYP  RCUT                                 
     1    -72.1324777     23  1.700                                             
     1     -1.3605826     23  1.700                                             
     2     -5.0393776     23  2.000                                             
     2     -6.3999602     23  2.000                                             
     0     -4.6097062     23  1.800                                             
     0     14.1620818     23  1.800                                             
  local pseudopotential read in
  partial core-charges read in
  partial kinetic energy density read in
  atomic valenz-charges read in
  non local Contribution for L=           1  read in
    real space projection operators read in
  non local Contribution for L=           1  read in
    real space projection operators read in
  non local Contribution for L=           2  read in
    real space projection operators read in
  non local Contribution for L=           2  read in
    real space projection operators read in
  non local Contribution for L=           0  read in
    real space projection operators read in
  non local Contribution for L=           0  read in
    real space projection operators read in
    PAW grid and wavefunctions read in
 
   number of l-projection  operators is LMAX  =           6
   number of lm-projection operators is LMMAX =          18
 
 POTCAR:     PAW_PBE Fe_pv 02Aug2007              
   SHA256 =  5d22e414b1f82158bf2c7ecb8b97b28fd0923e48cadc1c3bf74d524558f5dd32 Fe
   COPYR  = (c) Copyright 02Aug2007 Georg Kresse                                
   COPYR  = This file is part of the software VASP. Any use, copying, and all ot
   COPYR  = If you do not have a valid VASP license, you may not use, copy or di
   VRHFIN =Fe:  3pd7s1                                                          
   LEXCH  = PE                                                                  
   EATOM  =  2457.4239 eV,  180.6156 Ry                                         
                                                                                
   TITEL  = PAW_PBE Fe_pv 02Aug2007                                             
   LULTRA =        F    use ultrasoft PP ?                                      
   IUNSCR =        1    unscreen: 0-lin 1-nonlin 2-no                           
   RPACOR =    1.750    partial core radius                                     
   POMASS =   55.847; ZVAL   =   14.000    mass and valenz                      
   RCORE  =    2.200    outmost cutoff radius                                   
   RWIGS  =    2.200; RWIGS  =    1.164    wigner-seitz radius (au A)           
   ENMAX  =  293.238; ENMIN  =  219.928 eV                                      
   ICORE  =        3    local potential                                         
   LCOR   =        T    correct aug charges                                     
   LPAW   =        T    paw PP                                                  
   EAUG   =  578.342                                                            
   DEXC   =    0.000                                                            
   RMAX   =    2.249    core radius for proj-oper                               
   RAUG   =    1.300    factor for augmentation sphere                          
   RDEP   =    2.296    radius for radial grids                                 
   RDEPT  =    1.766    core radius for aug-charge                              
                                                                                
   Atomic configuration                                                         
    8 entries                                                                   
     n  l   j            E        occ.                                          
     1  0  0.50     -6993.8440   2.0000                                         
     2  0  0.50      -814.6047   2.0000                                         
     2  1  1.50      -693.3689   6.0000                                         
     3  0  0.50       -89.4732   2.0000                                         
     3  1  1.50       -55.6373   6.0000                                         
     3  2  2.50        -3.8151   7.0000                                         
     4  0  0.50        -4.2551   1.0000                                         
     4  3  2.50        -1.3606   0.0000                                         
   Description                                                                  
     l       E           TYP  RCUT    TYP  RCUT                                 
     1    -55.6372668     23  2.000                                             
     1     -5.4423304     23  2.000                                             
     2     -3.8151096     23  2.200                                             
     2     -5.1756922     23  2.200                                             
     0     -4.2550951     23  2.200                                             
     0     27.2116520     23  2.200                                             
     3     -1.3605826     23  2.200                                             
  local pseudopotential read in
  partial core-charges read in
  partial kinetic energy density read in
  atomic valenz-charges read in
  non local Contribution for L=           1  read in
    real space projection operators read in
  non local Contribution for L=           1  read in
    real space projection operators read in
  non local Contribution for L=           2  read in
    real space projection operators read in
  non local Contribution for L=           2  read in
    real space projection operators read in
  non local Contribution for L=           0  read in
    real space projection operators read in
  non local Contribution for L=           0  read in
    real space projection operators read in
    PAW grid and wavefunctions read in
 
   number of l-projection  operators is LMAX  =           6
   number of lm-projection operators is LMMAX =          18
 

 ----------------------------------------------------------------------------- 
|                                                                             |
|  ADVICE TO THIS USER RUNNING 'VASP/VAMP'   (HEAR YOUR MASTER'S VOICE ...):  |
|                                                                             |
|      You have a (more or less) 'large supercell' and for larger cells       |
|      it might be more efficient to use real space projection opertators     |
|      So try LREAL= Auto  in the INCAR   file.                               |
|      Mind:          For very  accurate calculation you might also keep the  |
|      reciprocal projection scheme          (i.e. LREAL=.FALSE.)             |
|                                                                             |
 ----------------------------------------------------------------------------- 


 ----------------------------------------------------------------------------- 
|                                                                             |
|  ADVICE TO THIS USER RUNNING 'VASP/VAMP'   (HEAR YOUR MASTER'S VOICE ...):  |
|                                                                             |
|      You enforced a specific xc-type in the INCAR file,                     |
|      a different type was found on the POTCAR file                          |
|          I HOPE YOU KNOW, WHAT YOU ARE  DOING                               |
|                                                                             |
 ----------------------------------------------------------------------------- 

  PAW_PBE S 06Sep2000                   :
 energy of atom  1       EATOM= -276.8230
 kinetic energy error for atom=    0.0007 (will be added to EATOM!!)
   PAW_PBE Cu_pv 06Sep2000              :
 energy of atom  2       EATOM=-4120.1201
 kinetic energy error for atom=    0.0094 (will be added to EATOM!!)
   PAW_PBE Fe_pv 02Aug2007              :
 energy of atom  3       EATOM=-2457.4239
 kinetic energy error for atom=    0.0025 (will be added to EATOM!!)
 
 
 POSCAR: Fe16 Cu16 S32                           
  positions in direct lattice
  No initial velocities read in
 exchange correlation table for  LEXCH =       14
   RHO(1)=    0.500       N(1)  =     2000
   RHO(2)=  100.500       N(2)  =     4000
 


--------------------------------------------------------------------------------------------------------


 ion  position               nearest neighbor table
   1  0.127  0.116  0.126-  41 2.25  61 2.25  37 2.29  49 2.31
   2  0.627  0.116  0.126-  42 2.25  62 2.25  38 2.29  50 2.31
   3  0.127  0.616  0.126-  43 2.25  63 2.25  39 2.29  51 2.31
   4  0.627  0.616  0.126-  44 2.25  64 2.25  40 2.29  52 2.31
   5  0.373  0.366  0.124-  39 2.25  52 2.25  41 2.29  62 2.31
   6  0.873  0.366  0.124-  40 2.25  51 2.25  42 2.29  61 2.31
   7  0.373  0.866  0.124-  37 2.25  50 2.25  43 2.29  64 2.31
   8  0.873  0.866  0.124-  38 2.25  49 2.25  44 2.29  63 2.31
   9  0.125  0.369  0.875-  51 2.27  55 2.27  41 2.27  45 2.27
  10  0.625  0.369  0.875-  52 2.27  56 2.27  42 2.27  46 2.27
  11  0.125  0.869  0.875-  49 2.27  53 2.27  43 2.27  47 2.27
  12  0.625  0.869  0.875-  50 2.27  54 2.27  44 2.27  48 2.27
  13  0.375  0.120  0.875-  41 2.26  46 2.26  50 2.30  53 2.30
  14  0.875  0.120  0.875-  42 2.26  45 2.26  49 2.30  54 2.30
  15  0.375  0.620  0.875-  43 2.26  48 2.26  52 2.30  55 2.30
  16  0.875  0.620  0.875-  44 2.26  47 2.26  51 2.30  56 2.30
  17  0.123  0.116  0.624-  45 2.25  57 2.25  33 2.29  53 2.31
  18  0.623  0.116  0.624-  46 2.25  58 2.25  34 2.29  54 2.31
  19  0.123  0.616  0.624-  47 2.25  59 2.25  35 2.29  55 2.31
  20  0.623  0.616  0.624-  48 2.25  60 2.25  36 2.29  56 2.31
  21  0.377  0.366  0.626-  36 2.25  55 2.25  46 2.29  57 2.31
  22  0.877  0.366  0.626-  35 2.25  56 2.25  45 2.29  58 2.31
  23  0.377  0.866  0.626-  34 2.25  53 2.25  48 2.29  59 2.31
  24  0.877  0.866  0.626-  33 2.25  54 2.25  47 2.29  60 2.31
  25  0.375  0.119  0.375-  57 2.27  62 2.27  34 2.27  37 2.27
  26  0.875  0.119  0.375-  58 2.27  61 2.27  33 2.27  38 2.27
  27  0.375  0.619  0.375-  59 2.27  64 2.27  36 2.27  39 2.27
  28  0.875  0.619  0.375-  60 2.27  63 2.27  35 2.27  40 2.27
  29  0.125  0.370  0.375-  35 2.26  39 2.26  57 2.30  61 2.30
  30  0.625  0.370  0.375-  36 2.26  40 2.26  58 2.30  62 2.30
  31  0.125  0.870  0.375-  33 2.26  37 2.26  59 2.30  63 2.30
  32  0.625  0.870  0.375-  34 2.26  38 2.26  60 2.30  64 2.30
  33  0.996  0.007  0.500-  24 2.25  31 2.26  26 2.27  17 2.29
  34  0.496  0.007  0.500-  23 2.25  32 2.26  25 2.27  18 2.29
  35  0.996  0.507  0.500-  22 2.25  29 2.26  28 2.27  19 2.29
  36  0.496  0.507  0.500-  21 2.25  30 2.26  27 2.27  20 2.29
  37  0.254  0.007  0.250-   7 2.25  31 2.26  25 2.27   1 2.29
  38  0.754  0.007  0.250-   8 2.25  32 2.26  26 2.27   2 2.29
  39  0.254  0.507  0.250-   5 2.25  29 2.26  27 2.27   3 2.29
  40  0.754  0.507  0.250-   6 2.25  30 2.26  28 2.27   4 2.29
  41  0.246  0.257  0.000-   1 2.25  13 2.26   9 2.27   5 2.29
  42  0.746  0.257  0.000-   2 2.25  14 2.26  10 2.27   6 2.29
  43  0.246  0.757  0.000-   3 2.25  15 2.26  11 2.27   7 2.29
  44  0.746  0.757  0.000-   4 2.25  16 2.26  12 2.27   8 2.29
  45  0.004  0.257  0.750-  17 2.25  14 2.26   9 2.27  22 2.29
  46  0.504  0.257  0.750-  18 2.25  13 2.26  10 2.27  21 2.29
  47  0.004  0.757  0.750-  19 2.25  16 2.26  11 2.27  24 2.29
  48  0.504  0.757  0.750-  20 2.25  15 2.26  12 2.27  23 2.29
  49  0.998  0.007  0.002-   8 2.25  11 2.27  14 2.30   1 2.31
  50  0.498  0.007  0.002-   7 2.25  12 2.27  13 2.30   2 2.31
  51  0.998  0.507  0.002-   6 2.25   9 2.27  16 2.30   3 2.31
  52  0.498  0.507  0.002-   5 2.25  10 2.27  15 2.30   4 2.31
  53  0.252  0.007  0.748-  23 2.25  11 2.27  13 2.30  17 2.31
  54  0.752  0.007  0.748-  24 2.25  12 2.27  14 2.30  18 2.31
  55  0.252  0.507  0.748-  21 2.25   9 2.27  15 2.30  19 2.31
  56  0.752  0.507  0.748-  22 2.25  10 2.27  16 2.30  20 2.31
  57  0.248  0.257  0.502-  17 2.25  25 2.27  29 2.30  21 2.31
  58  0.748  0.257  0.502-  18 2.25  26 2.27  30 2.30  22 2.31
  59  0.248  0.757  0.502-  19 2.25  27 2.27  31 2.30  23 2.31
  60  0.748  0.757  0.502-  20 2.25  28 2.27  32 2.30  24 2.31
  61  0.002  0.257  0.248-   1 2.25  26 2.27  29 2.30   6 2.31
  62  0.502  0.257  0.248-   2 2.25  25 2.27  30 2.30   5 2.31
  63  0.002  0.757  0.248-   3 2.25  28 2.27  31 2.30   8 2.31
  64  0.502  0.757  0.248-   4 2.25  27 2.27  32 2.30   7 2.31
 
  LATTYP: Found a simple monoclinic cell.
 ALAT       =    15.8014600653
 B/A-ratio  =     0.6669789979
 C/A-ratio  =     1.5572556384
 COS(beta)  =    -0.9604068104
  
  Lattice vectors:
  
 A1 = ( -11.2218980000,   0.0000000000, -11.1245290000)
 A2 = (   0.0000000000, -10.5392420000,   0.0000000000)
 A3 = (  11.9570410000,   0.0000000000,  21.5064950000)


Analysis of symmetry for initial positions (statically):
=====================================================================
 Subroutine PRICEL returns following result:
 
  LATTYP: Found a base centered monoclinic cell.
 ALAT       =    10.9789791176
 B/A-ratio  =     0.4799736791
 C/A-ratio  =     0.9479898760
 COS(beta)  =    -0.7938206789
  
  Lattice vectors:
  
 A1 = (  -2.2541172500,  -2.6348105000,   5.0053422500)
 A2 = (  -2.2541172500,   2.6348105000,   5.0053422500)
 A3 = (  -0.7351430000,   0.0000000000, -10.3819660000)
 
   8 primitive cells build up your supercell.
 

 Routine SETGRP: Setting up the symmetry group for a 
 simple monoclinic supercell.


 Subroutine GETGRP returns: Found  2 space group operations
 (whereof  1 operations were pure point group operations)
 out of a pool of  4 trial point group operations.


The static configuration has the point symmetry C_1 .
 The point group associated with its full space group is C_2 .


Analysis of symmetry for dynamics (positions and initial velocities):
=====================================================================
 Subroutine PRICEL returns following result:
 
  LATTYP: Found a base centered monoclinic cell.
 ALAT       =    10.9789791176
 B/A-ratio  =     0.4799736791
 C/A-ratio  =     0.9479898760
 COS(beta)  =    -0.7938206789
  
  Lattice vectors:
  
 A1 = (  -2.2541172500,  -2.6348105000,   5.0053422500)
 A2 = (  -2.2541172500,   2.6348105000,   5.0053422500)
 A3 = (  -0.7351430000,   0.0000000000, -10.3819660000)
 
   8 primitive cells build up your supercell.
 

 Routine SETGRP: Setting up the symmetry group for a 
 simple monoclinic supercell.


 Subroutine GETGRP returns: Found  2 space group operations
 (whereof  1 operations were pure point group operations)
 out of a pool of  4 trial point group operations.


The dynamic configuration has the point symmetry C_1 .
 The point group associated with its full space group is C_2 .


Analysis of structural, dynamic, and magnetic symmetry:
=====================================================================
 Subroutine PRICEL returns following result:
 
  LATTYP: Found a base centered monoclinic cell.
 ALAT       =    10.9789791176
 B/A-ratio  =     0.4799736791
 C/A-ratio  =     0.9479898760
 COS(beta)  =    -0.7938206789
  
  Lattice vectors:
  
 A1 = (  -2.2541172500,  -2.6348105000,   5.0053422500)
 A2 = (  -2.2541172500,   2.6348105000,   5.0053422500)
 A3 = (  -0.7351430000,   0.0000000000, -10.3819660000)
 
   8 primitive cells build up your supercell.
 

 Routine SETGRP: Setting up the symmetry group for a 
 simple monoclinic supercell.


 Subroutine GETGRP returns: Found  2 space group operations
 (whereof  1 operations were pure point group operations)
 out of a pool of  4 trial point group operations.


The magnetic configuration has the point symmetry C_1 .
 The point group associated with its full space group is C_2 .


 Subroutine INISYM returns: Found  2 space group operations
 (whereof  1 operations are pure point group operations),
 and found     8 'primitive' translations

 
 
 KPOINTS: Automatic mesh                          

Automatic generation of k-mesh.
Space group operators:
 irot       det(A)        alpha          n_x          n_y          n_z        tau_x        tau_y        tau_z
    1     1.000000     0.000001     1.000000     0.000000     0.000000     0.000000     0.000000     0.000000
    2     1.000000   180.000000     0.000000     1.000000     0.000000    -0.250000    -0.000000    -0.250000
 
 Subroutine IBZKPT returns following result:
 ===========================================
 
 Found      8 irreducible k-points:
 
 Following reciprocal coordinates:
            Coordinates               Weight
  0.000000  0.000000  0.000000      1.000000
  0.500000  0.000000 -0.000000      1.000000
  0.000000  0.500000  0.000000      1.000000
  0.500000  0.500000 -0.000000      1.000000
  0.000000  0.000000  0.500000      1.000000
  0.500000  0.000000  0.500000      1.000000
  0.000000  0.500000  0.500000      1.000000
  0.500000  0.500000  0.500000      1.000000
 
 Following cartesian coordinates:
            Coordinates               Weight
  0.000000  0.000000  0.000000      1.000000
  0.047919  0.000000 -0.003393      1.000000
  0.000000  0.047442  0.000000      1.000000
  0.047919  0.047442 -0.003393      1.000000
 -0.003427  0.000000  0.048403      1.000000
  0.044492  0.000000  0.045010      1.000000
 -0.003427  0.047442  0.048403      1.000000
  0.044492  0.047442  0.045010      1.000000
 
 TETIRR: Found     24 inequivalent tetrahedra from       48
 
 Subroutine IBZKPT_HF returns following result:
 ==============================================
 
 Found      8 k-points in 1st BZ
 the following      8 k-points will be used (e.g. in the exchange kernel)
 Following reciprocal coordinates:   # in IRBZ
  0.000000  0.000000  0.000000    0.12500000   1 t-inv F
  0.500000  0.000000 -0.000000    0.12500000   2 t-inv F
  0.000000  0.500000  0.000000    0.12500000   3 t-inv F
  0.500000  0.500000 -0.000000    0.12500000   4 t-inv F
  0.000000  0.000000  0.500000    0.12500000   5 t-inv F
  0.500000  0.000000  0.500000    0.12500000   6 t-inv F
  0.000000  0.500000  0.500000    0.12500000   7 t-inv F
  0.500000  0.500000  0.500000    0.12500000   8 t-inv F


--------------------------------------------------------------------------------------------------------




 Dimension of arrays:
   k-points           NKPTS =      8   k-points in BZ     NKDIM =      8   number of bands    NBANDS=    512
   number of dos      NEDOS =    301   number of ions     NIONS =     64
   non local maximal  LDIM  =      6   non local SUM 2l+1 LMDIM =     18
   total plane-waves  NPLWV = 829440
   max r-space proj   IRMAX =      1   max aug-charges    IRDMAX=  23085
   dimension x,y,z NGX =    96 NGY =   96 NGZ =   90
   dimension x,y,z NGXF=   192 NGYF=  192 NGZF=  180
   support grid    NGXF=   192 NGYF=  192 NGZF=  180
   ions per type =              32  16  16
   NGX,Y,Z   is equivalent  to a cutoff of  15.18, 15.14, 14.38 a.u.
   NGXF,Y,Z  is equivalent  to a cutoff of  30.36, 30.29, 28.75 a.u.

 SYSTEM =  CuFeS2                                  
 POSCAR =  Fe16 Cu16 S32                           

 Startparameter for this run:
   NWRITE =      2    write-flag & timer
   PREC   = accura    normal or accurate (medium, high low for compatibility)
   ISTART =      0    job   : 0-new  1-cont  2-samecut
   ICHARG =      1    charge: 1-file 2-atom 10-const
   ISPIN  =      2    spin polarized calculation?
   LNONCOLLINEAR =      F non collinear calculations
   LSORBIT =      F    spin-orbit coupling
   INIWAV =      1    electr: 0-lowe 1-rand  2-diag
   LASPH  =      F    aspherical Exc in radial PAW
   METAGGA=      F    non-selfconsistent MetaGGA calc.

 Electronic Relaxation 1
   ENCUT  =  700.0 eV  51.45 Ry    7.17 a.u.  22.68 22.74 22.45*2*pi/ulx,y,z
   ENINI  =  700.0     initial cutoff
   ENAUG  =  758.2 eV  augmentation charge cutoff
   NELM   =    500;   NELMIN=  2; NELMDL=  0     # of ELM steps 
   EDIFF  = 0.1E-07   stopping-criterion for ELM
   LREAL  =      F    real-space projection
   NLSPLINE    = F    spline interpolate recip. space projectors
   LCOMPAT=      F    compatible to vasp.4.4
   GGA_COMPAT  = T    GGA compatible to vasp.4.4-vasp.4.6
   LMAXPAW     = -100 max onsite density
   LMAXMIX     =    4 max onsite mixed and CHGCAR
   VOSKOWN=      0    Vosko Wilk Nusair interpolation
   ROPT   =    0.00000   0.00000   0.00000
 Ionic relaxation
   EDIFFG = -.1E-04   stopping-criterion for IOM
   NSW    =      0    number of steps for IOM
   NBLOCK =      1;   KBLOCK =      1    inner block; outer block 
   IBRION =     -1    ionic relax: 0-MD 1-quasi-New 2-CG
   NFREE  =      0    steps in history (QN), initial steepest desc. (CG)
   ISIF   =      2    stress and relaxation
   IWAVPR =     10    prediction:  0-non 1-charg 2-wave 3-comb
   ISYM   =      2    0-nonsym 1-usesym 2-fastsym
   LCORR  =      T    Harris-Foulkes like correction to forces

   POTIM  = 0.5000    time-step for ionic-motion
   TEIN   =    0.0    initial temperature
   TEBEG  =    0.0;   TEEND  =   0.0 temperature during run
   SMASS  =  -3.00    Nose mass-parameter (am)
   estimated Nose-frequenzy (Omega)   =  0.10E-29 period in steps =****** mass=  -0.253E-26a.u.
   SCALEE = 1.0000    scale energy and forces
   NPACO  =    256;   APACO  = 16.0  distance and # of slots for P.C.
   PSTRESS=    0.0 pullay stress

  Mass of Ions in am
   POMASS =  32.07 63.55 55.85
  Ionic Valenz
   ZVAL   =   6.00 17.00 14.00
  Atomic Wigner-Seitz radii
   RWIGS  =  -1.00 -1.00 -1.00
  virtual crystal weights 
   VCA    =   1.00  1.00  1.00
   NELECT =     688.0000    total number of electrons
   NUPDOWN=      -1.0000    fix difference up-down

 DOS related values:
   EMIN   =  10.00;   EMAX   =-10.00  energy-range for DOS
   EFERMI =   0.00
   ISMEAR =    -5;   SIGMA  =   0.03  broadening in eV -4-tet -1-fermi 0-gaus

 Electronic relaxation 2 (details)
   IALGO  =     38    algorithm
   LDIAG  =      T    sub-space diagonalisation (order eigenvalues)
   LSUBROT=      F    optimize rotation matrix (better conditioning)
   TURBO    =      0    0=normal 1=particle mesh
   IRESTART =      0    0=no restart 2=restart with 2 vectors
   NREBOOT  =      0    no. of reboots
   NMIN     =      0    reboot dimension
   EREF     =   0.00    reference energy to select bands
   IMIX   =      4    mixing-type and parameters
     AMIX     =   0.40;   BMIX     =  1.00
     AMIX_MAG =   1.60;   BMIX_MAG =  1.00
     AMIN     =   0.10
     WC   =   100.;   INIMIX=   1;  MIXPRE=   1;  MAXMIX= -45

 Intra band minimization:
   WEIMIN = 0.0000     energy-eigenvalue tresh-hold
   EBREAK =  0.49E-11  absolut break condition
   DEPER  =   0.30     relativ break condition  

   TIME   =   0.40     timestep for ELM

  volume/ion in A,a.u.               =      17.84       120.38
  Fermi-wavevector in a.u.,A,eV,Ry     =   1.382787  2.613089 26.015698  1.912100
  Thomas-Fermi vector in A             =   2.507446
 
 Write flags
   LWAVE        =      T    write WAVECAR
   LDOWNSAMPLE  =      F    k-point downsampling of WAVECAR
   LCHARG       =      T    write CHGCAR
   LVTOT        =      F    write LOCPOT, total local potential
   LVHAR        =      F    write LOCPOT, Hartree potential only
   LELF         =      F    write electronic localiz. function (ELF)
   LORBIT       =     11    0 simple, 1 ext, 2 COOP (PROOUT), +10 PAW based schemes


 Dipole corrections
   LMONO  =      F    monopole corrections only (constant potential shift)
   LDIPOL =      F    correct potential (dipole corrections)
   IDIPOL =      0    1-x, 2-y, 3-z, 4-all directions 
   EPSILON=  1.0000000 bulk dielectric constant

 LDA+U is selected, type is set to LDAUTYPE =  2
   angular momentum for each species LDAUL =     2    2    2
   U (eV)           for each species LDAUU =   0.0  0.1  4.7
   J (eV)           for each species LDAUJ =   0.0  0.0  0.0
 Exchange correlation treatment:
   GGA     =    PS    GGA type
   LEXCH   =    14    internal setting for exchange type
   VOSKOWN=      0    Vosko Wilk Nusair interpolation
   LHFCALC =     F    Hartree Fock is set to
   LHFONE  =     F    Hartree Fock one center treatment
   AEXX    =    0.0000 exact exchange contribution

 Linear response parameters
   LEPSILON=     F    determine dielectric tensor
   LRPA    =     F    only Hartree local field effects (RPA)
   LNABLA  =     F    use nabla operator in PAW spheres
   LVEL    =     F    velocity operator in full k-point grid
   LINTERFAST=   F  fast interpolation
   KINTER  =     0    interpolate to denser k-point grid
   CSHIFT  =0.1000    complex shift for real part using Kramers Kronig
   OMEGAMAX=  -1.0    maximum frequency
   DEG_THRESHOLD= 0.2000000E-02 threshold for treating states as degnerate
   RTIME   =   -0.100 relaxation time in fs
  (WPLASMAI=    0.000 imaginary part of plasma frequency in eV, 0.658/RTIME)
   DFIELD  = 0.0000000 0.0000000 0.0000000 field for delta impulse in time
 
 Orbital magnetization related:
   ORBITALMAG=     F  switch on orbital magnetization
   LCHIMAG   =     F  perturbation theory with respect to B field
   DQ        =  0.001000  dq finite difference perturbation B field
   LLRAUG    =     F  two centre corrections for induced B field

 PEAD related settings:
   LPEAD      =     T    switch on PEAD
   IPEAD      =     4    finite difference order for dpsi/dk
   LCALCPOL   =     T    calculate macroscopic polarization
   LCALCEPS   =     F    calculate dielectric tensor
   EFIELD_PEAD=    0.0000    0.0000    0.0000
   SKIP_EDOTP =     F
   LRPA       =     F
   SKIP_SCF   =     F


--------------------------------------------------------------------------------------------------------


 Static calculation
 charge density and potential will be updated during run
 spin polarized calculation
 Variant of blocked Davidson
 Davidson routine will perform the subspace rotation
 perform sub-space diagonalisation
    after iterative eigenvector-optimisation
 modified Broyden-mixing scheme, WC =      100.0
 initial mixing is a Kerker type mixing with AMIX =  0.4000 and BMIX =      1.0000
 Hartree-type preconditioning will be used
 using additional bands          168
 reciprocal scheme for non local part
 use partial core corrections
 calculate Harris-corrections to forces 
   (improved forces if not selfconsistent)
 use gradient corrections 
 use of overlap-Matrix (Vanderbilt PP)
 Fermi weights with tetrahedron method with Bloechl corrections


--------------------------------------------------------------------------------------------------------


  energy-cutoff  :      700.00
  volume of cell :     1141.69
      direct lattice vectors                 reciprocal lattice vectors
    10.486755000  0.000000000  0.742563000     0.095838919  0.000000000 -0.006786317
     0.000000000 10.539242000  0.000000000     0.000000000  0.094883484  0.000000000
     0.735143000  0.000000000 10.381966000    -0.006854813  0.000000000  0.096806257

  length of vectors
    10.513012425 10.539242000 10.407961052     0.096078887  0.094883484  0.097048647


 
 k-points in units of 2pi/SCALE and weight: Automatic mesh                          
   0.00000000  0.00000000  0.00000000       0.125
   0.04791946  0.00000000 -0.00339316       0.125
   0.00000000  0.04744174  0.00000000       0.125
   0.04791946  0.04744174 -0.00339316       0.125
  -0.00342741  0.00000000  0.04840313       0.125
   0.04449205  0.00000000  0.04500997       0.125
  -0.00342741  0.04744174  0.04840313       0.125
   0.04449205  0.04744174  0.04500997       0.125
 
 k-points in reciprocal lattice and weights: Automatic mesh                          
   0.00000000  0.00000000  0.00000000       0.125
   0.50000000  0.00000000 -0.00000000       0.125
   0.00000000  0.50000000  0.00000000       0.125
   0.50000000  0.50000000 -0.00000000       0.125
   0.00000000  0.00000000  0.50000000       0.125
   0.50000000  0.00000000  0.50000000       0.125
   0.00000000  0.50000000  0.50000000       0.125
   0.50000000  0.50000000  0.50000000       0.125
 
 position of ions in fractional coordinates (direct lattice) 
   0.12672300  0.11571000  0.12632700
   0.62672300  0.11571000  0.12632700
   0.12672300  0.61571000  0.12632700
   0.62672300  0.61571000  0.12632700
   0.37327700  0.36571000  0.12367300
   0.87327700  0.36571000  0.12367300
   0.37327700  0.86571000  0.12367300
   0.87327700  0.86571000  0.12367300
   0.12500000  0.36919600  0.87500000
   0.62500000  0.36919600  0.87500000
   0.12500000  0.86919600  0.87500000
   0.62500000  0.86919600  0.87500000
   0.37500000  0.12010700  0.87500000
   0.87500000  0.12010700  0.87500000
   0.37500000  0.62010700  0.87500000
   0.87500000  0.62010700  0.87500000
   0.12327700  0.11571000  0.62367300
   0.62327700  0.11571000  0.62367300
   0.12327700  0.61571000  0.62367300
   0.62327700  0.61571000  0.62367300
   0.37672300  0.36571000  0.62632700
   0.87672300  0.36571000  0.62632700
   0.37672300  0.86571000  0.62632700
   0.87672300  0.86571000  0.62632700
   0.37500000  0.11919600  0.37500000
   0.87500000  0.11919600  0.37500000
   0.37500000  0.61919600  0.37500000
   0.87500000  0.61919600  0.37500000
   0.12500000  0.37010700  0.37500000
   0.62500000  0.37010700  0.37500000
   0.12500000  0.87010700  0.37500000
   0.62500000  0.87010700  0.37500000
   0.99620600  0.00735200  0.50003300
   0.49620600  0.00735200  0.50003300
   0.99620600  0.50735200  0.50003300
   0.49620600  0.50735200  0.50003300
   0.25379400  0.00735200  0.24996700
   0.75379400  0.00735200  0.24996700
   0.25379400  0.50735200  0.24996700
   0.75379400  0.50735200  0.24996700
   0.24620600  0.25735200  0.00003300
   0.74620600  0.25735200  0.00003300
   0.24620600  0.75735200  0.00003300
   0.74620600  0.75735200  0.00003300
   0.00379400  0.25735200  0.74996700
   0.50379400  0.25735200  0.74996700
   0.00379400  0.75735200  0.74996700
   0.50379400  0.75735200  0.74996700
   0.99763100  0.00728600  0.00158300
   0.49763100  0.00728600  0.00158300
   0.99763100  0.50728600  0.00158300
   0.49763100  0.50728600  0.00158300
   0.25236900  0.00728600  0.74841700
   0.75236900  0.00728600  0.74841700
   0.25236900  0.50728600  0.74841700
   0.75236900  0.50728600  0.74841700
   0.24763100  0.25728600  0.50158300
   0.74763100  0.25728600  0.50158300
   0.24763100  0.75728600  0.50158300
   0.74763100  0.75728600  0.50158300
   0.00236900  0.25728600  0.24841700
   0.50236900  0.25728600  0.24841700
   0.00236900  0.75728600  0.24841700
   0.50236900  0.75728600  0.24841700
 
 position of ions in cartesian coordinates  (Angst):
   1.42178146  1.21949569  1.40562243
   6.66515896  1.21949569  1.77690393
   1.42178146  6.48911669  1.40562243
   6.66515896  6.48911669  1.77690393
   4.00538179  3.85430619  1.56115057
   9.24875929  3.85430619  1.93243207
   4.00538179  9.12392719  1.56115057
   9.24875929  9.12392719  1.93243207
   1.95409450  3.89104599  9.17704063
   7.19747200  3.89104599  9.54832213
   1.95409450  9.16066699  9.17704063
   7.19747200  9.16066699  9.54832213
   4.57578325  1.26583674  9.36268137
   9.81916075  1.26583674  9.73396287
   4.57578325  6.53545774  9.36268137
   9.81916075  6.53545774  9.73396287
   1.75126454  1.21949569  6.56649282
   6.99464204  1.21949569  6.93777432
   1.75126454  6.48911669  6.56649282
   6.99464204  6.48911669  6.93777432
   4.41104171  3.85430619  6.78224618
   9.65441921  3.85430619  7.15352768
   4.41104171  9.12392719  6.78224618
   9.65441921  9.12392719  7.15352768
   4.20821175  1.25623549  4.17169838
   9.45158925  1.25623549  4.54297988
   4.20821175  6.52585649  4.17169838
   9.45158925  6.52585649  4.54297988
   1.58652300  3.90064724  3.98605763
   6.82990050  3.90064724  4.35733913
   1.58652300  9.17026824  3.98605763
   6.82990050  9.17026824  4.35733913
  10.81456401  0.07748451  5.93107132
   5.57118651  0.07748451  5.55978982
  10.81456401  5.34710551  5.93107132
   5.57118651  5.34710551  5.55978982
   2.84523699  0.07748451  2.78360693
   8.08861449  0.07748451  3.15488843
   2.84523699  5.34710551  2.78360693
   8.08861449  5.34710551  3.15488843
   2.58192626  2.71229501  0.18316607
   7.82530376  2.71229501  0.55444757
   2.58192626  7.98191601  0.18316607
   7.82530376  7.98191601  0.55444757
   0.59111974  2.71229501  7.78894918
   5.83449724  2.71229501  8.16023068
   0.59111974  7.98191601  7.78894918
   5.83449724  7.98191601  8.16023068
  10.46307561  0.07678892  0.75723852
   5.21969811  0.07678892  0.38595702
  10.46307561  5.34640992  0.75723852
   5.21969811  5.34640992  0.38595702
   3.19672539  0.07678892  7.95743973
   8.44010289  0.07678892  8.32872123
   3.19672539  5.34640992  7.95743973
   8.44010289  5.34640992  8.32872123
   2.96558086  2.71159942  5.39129927
   8.20895836  2.71159942  5.76258077
   2.96558086  7.98122042  5.39129927
   8.20895836  7.98122042  5.76258077
   0.20746514  2.71159942  2.58081598
   5.45084264  2.71159942  2.95209748
   0.20746514  7.98122042  2.58081598
   5.45084264  7.98122042  2.95209748
 


--------------------------------------------------------------------------------------------------------


 k-point  1 :   0.0000 0.0000 0.0000  plane waves:   48023
 k-point  2 :   0.5000 0.0000-0.0000  plane waves:   48000
 k-point  3 :   0.0000 0.5000 0.0000  plane waves:   48090
 k-point  4 :   0.5000 0.5000-0.0000  plane waves:   48052
 k-point  5 :   0.0000 0.0000 0.5000  plane waves:   48054
 k-point  6 :   0.5000 0.0000 0.5000  plane waves:   48030
 k-point  7 :   0.0000 0.5000 0.5000  plane waves:   47960
 k-point  8 :   0.5000 0.5000 0.5000  plane waves:   47968

 maximum and minimum number of plane-waves per node :     48090    47960

 maximum number of plane-waves:     48090
 maximum index in each direction: 
   IXMAX=   22   IYMAX=   22   IZMAX=   22
   IXMIN=  -23   IYMIN=  -23   IZMIN=  -22


 serial   3D FFT for wavefunctions
 parallel 3D FFT for charge:
    minimum data exchange during FFTs selected (reduces bandwidth)


 total amount of memory used by VASP MPI-rank0   347075. kBytes
=======================================================================

   base      :      30000. kBytes
   nonl-proj :     215613. kBytes
   fftplans  :       4588. kBytes
   grid      :      69719. kBytes
   one-center:       1990. kBytes
   wavefun   :      25165. kBytes
 
     INWAV:  cpu time    0.0000: real time    0.0000
 Broyden mixing: mesh for mixing (old mesh)
   NGX = 45   NGY = 45   NGZ = 45
  (NGX  =192   NGY  =192   NGZ  =180)
  gives a total of  91125 points

 initial charge density was supplied:
 number of electron     687.9999938 magnetization      -0.0000000
 keeping initial charge density in first step


--------------------------------------------------------------------------------------------------------


 Maximum index for augmentation-charges          894 (set IRDMAX)


--------------------------------------------------------------------------------------------------------


 First call to EWALD:  gamma=   0.170
 Maximum number of real-space cells 3x 3x 3
 Maximum number of reciprocal cells 3x 3x 3

    FEWALD:  cpu time    0.0027: real time    0.0032


--------------------------------------- Iteration      1(   1)  ---------------------------------------


    POTLOK:  cpu time    0.3190: real time    0.3681
    SETDIJ:  cpu time    0.0148: real time    0.0149
     EDDAV:  cpu time   84.2790: real time   85.2032
 BZINTS: Fermi energy: 15.046174;688.000000 electrons
         Band energy:***********;  BLOECHL correction: -0.005708
       DOS:  cpu time    0.0404: real time    0.0406
    --------------------------------------------
      LOOP:  cpu time   84.6533: real time   85.6269

 eigenvalue-minimisations  : 16384
 total energy-change (2. order) : 0.6050590E+04  (-0.5160063E+05)
 number of electron     687.9999938 magnetization      -0.0000000
 augmentation part      687.9999938 magnetization      -0.0000000

 Free energy of the ion-electron system (eV)
  ---------------------------------------------------
  alpha Z        PSCENC =      2374.68803085
  Ewald energy   TEWEN  =    -62707.72033438
  -Hartree energ DENC   =    -42766.45195110
  -exchange      EXHF   =         0.00000000
  -V(xc)+E(xc)   XCENC  =      3284.84782576
  PAW double counting   =    112052.39469906  -115742.30158738
  entropy T*S    EENTRO =         0.00000000
  eigenvalues    EBANDS =     -4464.93193607
  atomic energy  EATOM  =    114020.06510763
  Solvation  Ediel_sol  =         0.00000000
  ---------------------------------------------------
  free energy    TOTEN  =      6050.58985437 eV

  energy without entropy =     6050.58985437  energy(sigma->0) =     6050.58985437


--------------------------------------------------------------------------------------------------------




--------------------------------------- Iteration      1(   2)  ---------------------------------------


     EDDAV:  cpu time  103.1915: real time  103.9546
 BZINTS: Fermi energy:  5.672025;688.000000 electrons
         Band energy:***********;  BLOECHL correction:  0.000000
       DOS:  cpu time    0.0062: real time    0.0063
    --------------------------------------------
      LOOP:  cpu time  103.1977: real time  103.9608

 eigenvalue-minimisations  : 18432
 total energy-change (2. order) :-0.6131342E+04  (-0.6020768E+04)
 number of electron     687.9999938 magnetization      -0.0000000
 augmentation part      687.9999938 magnetization      -0.0000000

 Free energy of the ion-electron system (eV)
  ---------------------------------------------------
  alpha Z        PSCENC =      2374.68803085
  Ewald energy   TEWEN  =    -62707.72033438
  -Hartree energ DENC   =    -42766.45195110
  -exchange      EXHF   =         0.00000000
  -V(xc)+E(xc)   XCENC  =      3284.84782576
  PAW double counting   =    112052.39469906  -115742.30158738
  entropy T*S    EENTRO =         0.00000000
  eigenvalues    EBANDS =    -10596.27362748
  atomic energy  EATOM  =    114020.06510763
  Solvation  Ediel_sol  =         0.00000000
  ---------------------------------------------------
  free energy    TOTEN  =       -80.75183704 eV

  energy without entropy =      -80.75183704  energy(sigma->0) =      -80.75183704


--------------------------------------------------------------------------------------------------------




--------------------------------------- Iteration      1(   3)  ---------------------------------------


     EDDAV:  cpu time  152.0312: real time  153.0786
 BZINTS: Fermi energy:  5.166583;688.000000 electrons
         Band energy:***********;  BLOECHL correction:  0.000000
       DOS:  cpu time    0.0063: real time    0.0063
    --------------------------------------------
      LOOP:  cpu time  152.0375: real time  153.0849

 eigenvalue-minimisations  : 22528
 total energy-change (2. order) :-0.2428851E+03  (-0.2420795E+03)
 number of electron     687.9999938 magnetization      -0.0000000
 augmentation part      687.9999938 magnetization      -0.0000000

 Free energy of the ion-electron system (eV)
  ---------------------------------------------------
  alpha Z        PSCENC =      2374.68803085
  Ewald energy   TEWEN  =    -62707.72033438
  -Hartree energ DENC   =    -42766.45195110
  -exchange      EXHF   =         0.00000000
  -V(xc)+E(xc)   XCENC  =      3284.84782576
  PAW double counting   =    112052.39469906  -115742.30158738
  entropy T*S    EENTRO =         0.00000000
  eigenvalues    EBANDS =    -10839.15876614
  atomic energy  EATOM  =    114020.06510763
  Solvation  Ediel_sol  =         0.00000000
  ---------------------------------------------------
  free energy    TOTEN  =      -323.63697570 eV

  energy without entropy =     -323.63697570  energy(sigma->0) =     -323.63697570


--------------------------------------------------------------------------------------------------------




--------------------------------------- Iteration      1(   4)  ---------------------------------------


     EDDAV:  cpu time  125.8547: real time  126.7556
 BZINTS: Fermi energy:  5.031251;688.000000 electrons
         Band energy:***********;  BLOECHL correction:  0.000000
       DOS:  cpu time    0.0062: real time    0.0062
    --------------------------------------------
      LOOP:  cpu time  125.8609: real time  126.7618

 eigenvalue-minimisations  : 19968
 total energy-change (2. order) :-0.3357297E+01  (-0.3357129E+01)
 number of electron     687.9999938 magnetization      -0.0000000
 augmentation part      687.9999938 magnetization      -0.0000000

 Free energy of the ion-electron system (eV)
  ---------------------------------------------------
  alpha Z        PSCENC =      2374.68803085
  Ewald energy   TEWEN  =    -62707.72033438
  -Hartree energ DENC   =    -42766.45195110
  -exchange      EXHF   =         0.00000000
  -V(xc)+E(xc)   XCENC  =      3284.84782576
  PAW double counting   =    112052.39469906  -115742.30158738
  entropy T*S    EENTRO =         0.00000000
  eigenvalues    EBANDS =    -10842.51606270
  atomic energy  EATOM  =    114020.06510763
  Solvation  Ediel_sol  =         0.00000000
  ---------------------------------------------------
  free energy    TOTEN  =      -326.99427226 eV

  energy without entropy =     -326.99427226  energy(sigma->0) =     -326.99427226


--------------------------------------------------------------------------------------------------------




--------------------------------------- Iteration      1(   5)  ---------------------------------------


     EDDAV:  cpu time  138.7740: real time  139.7373
 BZINTS: Fermi energy:  5.038332;688.000000 electrons
         Band energy:***********;  BLOECHL correction:  0.000000
       DOS:  cpu time    0.0052: real time    0.0053
    CHARGE:  cpu time    1.4038: real time    1.4122
    MIXING:  cpu time    0.0024: real time    0.0025
    --------------------------------------------
      LOOP:  cpu time  140.1855: real time  141.1573

 eigenvalue-minimisations  : 20992
 total energy-change (2. order) :-0.1023298E+00  (-0.1023293E+00)
 number of electron     687.9999896 magnetization      -0.0000000
 augmentation part      282.8739777 magnetization      -0.0000000

 Broyden mixing:
  rms(total) = 0.86690E+00    rms(broyden)= 0.86679E+00
  rms(prec ) = 0.96566E+00
  weight for this iteration     100.00

 Free energy of the ion-electron system (eV)
  ---------------------------------------------------
  alpha Z        PSCENC =      2374.68803085
  Ewald energy   TEWEN  =    -62707.72033438
  -Hartree energ DENC   =    -42766.45195110
  -exchange      EXHF   =         0.00000000
  -V(xc)+E(xc)   XCENC  =      3284.84782576
  PAW double counting   =    112052.39469906  -115742.30158738
  entropy T*S    EENTRO =         0.00000000
  eigenvalues    EBANDS =    -10842.61839252
  atomic energy  EATOM  =    114020.06510763
  Solvation  Ediel_sol  =         0.00000000
  ---------------------------------------------------
  free energy    TOTEN  =      -327.09660208 eV

  energy without entropy =     -327.09660208  energy(sigma->0) =     -327.09660208


--------------------------------------------------------------------------------------------------------




--------------------------------------- Iteration      1(   6)  ---------------------------------------


    POTLOK:  cpu time    0.1208: real time    0.1217
    SETDIJ:  cpu time    0.0127: real time    0.0127
     EDDAV:  cpu time  191.1556: real time  192.4493
 BZINTS: Fermi energy:  5.050291;688.000000 electrons
         Band energy:***********;  BLOECHL correction: -0.000000
       DOS:  cpu time    0.0052: real time    0.0052
    CHARGE:  cpu time    1.3879: real time    1.3972
    MIXING:  cpu time    0.0023: real time    0.1446
    --------------------------------------------
      LOOP:  cpu time  192.6847: real time  194.1309

 eigenvalue-minimisations  : 26624
 total energy-change (2. order) : 0.8369007E+00  (-0.1384062E+00)
 number of electron     687.9999896 magnetization      -0.0000000
 augmentation part      281.8628719 magnetization      -0.0000000

 Broyden mixing:
  rms(total) = 0.49523E+00    rms(broyden)= 0.49522E+00
  rms(prec ) = 0.55146E+00
  weight for this iteration     100.00

 eigenvalues of (default mixing * dielectric matrix)
  average eigenvalue GAMMA=   0.7964
  0.7964

 Free energy of the ion-electron system (eV)
  ---------------------------------------------------
  alpha Z        PSCENC =      2374.68803085
  Ewald energy   TEWEN  =    -62707.72033438
  -Hartree energ DENC   =    -42830.12661833
  -exchange      EXHF   =         0.00000000
  -V(xc)+E(xc)   XCENC  =      3286.98778624
  PAW double counting   =    112246.83916265  -115944.02843046
  entropy T*S    EENTRO =         0.00000000
  eigenvalues    EBANDS =    -10772.96440555
  atomic energy  EATOM  =    114020.06510763
  Solvation  Ediel_sol  =         0.00000000
  ---------------------------------------------------
  free energy    TOTEN  =      -326.25970135 eV

  energy without entropy =     -326.25970135  energy(sigma->0) =     -326.25970135


--------------------------------------------------------------------------------------------------------




--------------------------------------- Iteration      1(   7)  ---------------------------------------


    POTLOK:  cpu time    0.1191: real time    0.1223
    SETDIJ:  cpu time    0.0126: real time    0.0127
     EDDAV:  cpu time  132.6113: real time  133.5372
 BZINTS: Fermi energy:  4.997673;688.000000 electrons
         Band energy:***********;  BLOECHL correction:  0.000000
       DOS:  cpu time    0.0052: real time    0.0052
    CHARGE:  cpu time    1.3869: real time    1.3953
    MIXING:  cpu time    0.0015: real time    0.0347
    --------------------------------------------
      LOOP:  cpu time  134.1367: real time  135.1074

 eigenvalue-minimisations  : 20480
 total energy-change (2. order) : 0.1741868E+00  (-0.1526462E+00)
 number of electron     687.9999896 magnetization      -0.0000000
 augmentation part      282.5019723 magnetization      -0.0000000

 Broyden mixing:
  rms(total) = 0.39045E+00    rms(broyden)= 0.39045E+00
  rms(prec ) = 0.45379E+00
  weight for this iteration     100.00

 eigenvalues of (default mixing * dielectric matrix)
  average eigenvalue GAMMA=   1.0028
  1.4416  0.5640

 Free energy of the ion-electron system (eV)
  ---------------------------------------------------
  alpha Z        PSCENC =      2374.68803085
  Ewald energy   TEWEN  =    -62707.72033438
  -Hartree energ DENC   =    -42781.52564082
  -exchange      EXHF   =         0.00000000
  -V(xc)+E(xc)   XCENC  =      3285.63691241
  PAW double counting   =    112137.87647579  -115826.28073777
  entropy T*S    EENTRO =         0.00000000
  eigenvalues    EBANDS =    -10828.82532822
  atomic energy  EATOM  =    114020.06510763
  Solvation  Ediel_sol  =         0.00000000
  ---------------------------------------------------
  free energy    TOTEN  =      -326.08551451 eV

  energy without entropy =     -326.08551451  energy(sigma->0) =     -326.08551451


--------------------------------------------------------------------------------------------------------




--------------------------------------- Iteration      1(   8)  ---------------------------------------


    POTLOK:  cpu time    0.1214: real time    0.1221
    SETDIJ:  cpu time    0.0127: real time    0.0128
     EDDAV:  cpu time  168.8919: real time  170.0276
 BZINTS: Fermi energy:  5.232993;688.000000 electrons
         Band energy:***********;  BLOECHL correction:  0.000000
       DOS:  cpu time    0.0061: real time    0.0061
    CHARGE:  cpu time    1.3881: real time    1.3962
    MIXING:  cpu time    0.0012: real time    0.0012
    --------------------------------------------
      LOOP:  cpu time  170.4214: real time  171.5660

 eigenvalue-minimisations  : 23552
 total energy-change (2. order) : 0.7654459E-01  (-0.1785881E+00)
 number of electron     687.9999896 magnetization      -0.0000000
 augmentation part      282.4939448 magnetization      -0.0000000

 Broyden mixing:
  rms(total) = 0.38040E+00    rms(broyden)= 0.38039E+00
  rms(prec ) = 0.43594E+00
  weight for this iteration     100.00

 eigenvalues of (default mixing * dielectric matrix)
  average eigenvalue GAMMA=   0.8471
  1.7100  0.5621  0.2692

 Free energy of the ion-electron system (eV)
  ---------------------------------------------------
  alpha Z        PSCENC =      2374.68803085
  Ewald energy   TEWEN  =    -62707.72033438
  -Hartree energ DENC   =    -42803.53000055
  -exchange      EXHF   =         0.00000000
  -V(xc)+E(xc)   XCENC  =      3286.73892039
  PAW double counting   =    112127.82490602  -115817.59046262
  entropy T*S    EENTRO =         0.00000000
  eigenvalues    EBANDS =    -10806.48513727
  atomic energy  EATOM  =    114020.06510763
  Solvation  Ediel_sol  =         0.00000000
  ---------------------------------------------------
  free energy    TOTEN  =      -326.00896992 eV

  energy without entropy =     -326.00896992  energy(sigma->0) =     -326.00896992


--------------------------------------------------------------------------------------------------------




--------------------------------------- Iteration      1(   9)  ---------------------------------------


    POTLOK:  cpu time    0.1216: real time    0.1225
    SETDIJ:  cpu time    0.0127: real time    0.0128
     EDDAV:  cpu time  130.6006: real time  131.5280
 BZINTS: Fermi energy:  5.214368;688.000000 electrons
         Band energy:***********;  BLOECHL correction:  0.000000
       DOS:  cpu time    0.0061: real time    0.0061
    CHARGE:  cpu time    1.3886: real time    1.3967
    MIXING:  cpu time    0.0015: real time    0.0150
    --------------------------------------------
      LOOP:  cpu time  132.1311: real time  133.0811

 eigenvalue-minimisations  : 20992
 total energy-change (2. order) : 0.4280253E-01  (-0.3552394E-01)
 number of electron     687.9999896 magnetization       0.0000000
 augmentation part      282.3344200 magnetization       0.0000000

 Broyden mixing:
  rms(total) = 0.92995E-01    rms(broyden)= 0.92992E-01
  rms(prec ) = 0.10131E+00
  weight for this iteration     100.00

 eigenvalues of (default mixing * dielectric matrix)
  average eigenvalue GAMMA=   0.8801
  1.9759  0.7039  0.4900  0.3506

 Free energy of the ion-electron system (eV)
  ---------------------------------------------------
  alpha Z        PSCENC =      2374.68803085
  Ewald energy   TEWEN  =    -62707.72033438
  -Hartree energ DENC   =    -42805.98835811
  -exchange      EXHF   =         0.00000000
  -V(xc)+E(xc)   XCENC  =      3286.52397134
  PAW double counting   =    112128.07726503  -115819.00183159
  entropy T*S    EENTRO =         0.00000000
  eigenvalues    EBANDS =    -10802.61001818
  atomic energy  EATOM  =    114020.06510763
  Solvation  Ediel_sol  =         0.00000000
  ---------------------------------------------------
  free energy    TOTEN  =      -325.96616739 eV

  energy without entropy =     -325.96616739  energy(sigma->0) =     -325.96616739


--------------------------------------------------------------------------------------------------------




--------------------------------------- Iteration      1(  10)  ---------------------------------------


    POTLOK:  cpu time    0.1211: real time    0.1220
    SETDIJ:  cpu time    0.0129: real time    0.0130
     EDDAV:  cpu time  173.1177: real time  174.2818
 BZINTS: Fermi energy:  5.207487;688.000000 electrons
         Band energy:***********;  BLOECHL correction:  0.000000
       DOS:  cpu time    0.0060: real time    0.0060
    CHARGE:  cpu time    1.3988: real time    1.4070
    MIXING:  cpu time    0.0015: real time    0.0015
    --------------------------------------------
      LOOP:  cpu time  174.6580: real time  175.8313

 eigenvalue-minimisations  : 23808
 total energy-change (2. order) :-0.5011027E-03  (-0.3001463E-02)
 number of electron     687.9999896 magnetization      -0.0000000
 augmentation part      282.2417458 magnetization      -0.0000000

 Broyden mixing:
  rms(total) = 0.54537E-01    rms(broyden)= 0.54536E-01
  rms(prec ) = 0.56644E-01
  weight for this iteration     100.00

 eigenvalues of (default mixing * dielectric matrix)
  average eigenvalue GAMMA=   0.9664
  1.8483  1.4602  0.6257  0.5552  0.3427

 Free energy of the ion-electron system (eV)
  ---------------------------------------------------
  alpha Z        PSCENC =      2374.68803085
  Ewald energy   TEWEN  =    -62707.72033438
  -Hartree energ DENC   =    -42809.00836047
  -exchange      EXHF   =         0.00000000
  -V(xc)+E(xc)   XCENC  =      3286.53451981
  PAW double counting   =    112131.17163675  -115822.31284190
  entropy T*S    EENTRO =         0.00000000
  eigenvalues    EBANDS =    -10799.38442679
  atomic energy  EATOM  =    114020.06510763
  Solvation  Ediel_sol  =         0.00000000
  ---------------------------------------------------
  free energy    TOTEN  =      -325.96666849 eV

  energy without entropy =     -325.96666849  energy(sigma->0) =     -325.96666849


--------------------------------------------------------------------------------------------------------




--------------------------------------- Iteration      1(  11)  ---------------------------------------


    POTLOK:  cpu time    0.1208: real time    0.1227
    SETDIJ:  cpu time    0.0128: real time    0.0129
     EDDAV:  cpu time  113.7382: real time  114.5643
 BZINTS: Fermi energy:  5.204624;688.000000 electrons
         Band energy:***********;  BLOECHL correction:  0.000000
       DOS:  cpu time    0.0060: real time    0.0061
    CHARGE:  cpu time    1.4022: real time    1.4104
    MIXING:  cpu time    0.0014: real time    0.0014
    --------------------------------------------
      LOOP:  cpu time  115.2814: real time  116.1178

 eigenvalue-minimisations  : 18944
 total energy-change (2. order) :-0.1427129E-02  (-0.7649127E-03)
 number of electron     687.9999896 magnetization       0.0000000
 augmentation part      282.2774785 magnetization       0.0000000

 Broyden mixing:
  rms(total) = 0.26547E-01    rms(broyden)= 0.26546E-01
  rms(prec ) = 0.27105E-01
  weight for this iteration     100.00

 eigenvalues of (default mixing * dielectric matrix)
  average eigenvalue GAMMA=   1.0995
  2.1018  2.1018  0.3392  0.7800  0.6370  0.6370

 Free energy of the ion-electron system (eV)
  ---------------------------------------------------
  alpha Z        PSCENC =      2374.68803085
  Ewald energy   TEWEN  =    -62707.72033438
  -Hartree energ DENC   =    -42806.75673524
  -exchange      EXHF   =         0.00000000
  -V(xc)+E(xc)   XCENC  =      3286.46304535
  PAW double counting   =    112123.37076586  -115813.93363705
  entropy T*S    EENTRO =         0.00000000
  eigenvalues    EBANDS =    -10802.14433864
  atomic energy  EATOM  =    114020.06510763
  Solvation  Ediel_sol  =         0.00000000
  ---------------------------------------------------
  free energy    TOTEN  =      -325.96809562 eV

  energy without entropy =     -325.96809562  energy(sigma->0) =     -325.96809562


--------------------------------------------------------------------------------------------------------




--------------------------------------- Iteration      1(  12)  ---------------------------------------


    POTLOK:  cpu time    0.1192: real time    0.1201
    SETDIJ:  cpu time    0.0127: real time    0.0128
     EDDAV:  cpu time  165.1879: real time  166.3033
 BZINTS: Fermi energy:  5.204261;688.000000 electrons
         Band energy:***********;  BLOECHL correction:  0.000000
       DOS:  cpu time    0.0060: real time    0.0060
    CHARGE:  cpu time    1.3909: real time    1.4003
    MIXING:  cpu time    0.0015: real time    0.0015
    --------------------------------------------
      LOOP:  cpu time  166.7181: real time  167.8439

 eigenvalue-minimisations  : 23040
 total energy-change (2. order) :-0.9661764E-03  (-0.2834708E-03)
 number of electron     687.9999896 magnetization       0.0000000
 augmentation part      282.2680867 magnetization       0.0000000

 Broyden mixing:
  rms(total) = 0.10744E-01    rms(broyden)= 0.10743E-01
  rms(prec ) = 0.11339E-01
  weight for this iteration     100.00

 eigenvalues of (default mixing * dielectric matrix)
  average eigenvalue GAMMA=   1.0904
  2.2068  2.2068  0.3393  0.8855  0.7312  0.6315  0.6315

 Free energy of the ion-electron system (eV)
  ---------------------------------------------------
  alpha Z        PSCENC =      2374.68803085
  Ewald energy   TEWEN  =    -62707.72033438
  -Hartree energ DENC   =    -42807.52715558
  -exchange      EXHF   =         0.00000000
  -V(xc)+E(xc)   XCENC  =      3286.48978259
  PAW double counting   =    112113.20665010  -115803.88749960
  entropy T*S    EENTRO =         0.00000000
  eigenvalues    EBANDS =    -10801.28364342
  atomic energy  EATOM  =    114020.06510763
  Solvation  Ediel_sol  =         0.00000000
  ---------------------------------------------------
  free energy    TOTEN  =      -325.96906180 eV

  energy without entropy =     -325.96906180  energy(sigma->0) =     -325.96906180


--------------------------------------------------------------------------------------------------------




--------------------------------------- Iteration      1(  13)  ---------------------------------------


    POTLOK:  cpu time    0.1189: real time    0.1216
    SETDIJ:  cpu time    0.0129: real time    0.0130
     EDDAV:  cpu time  116.1793: real time  117.0139
 BZINTS: Fermi energy:  5.202990;688.000000 electrons
         Band energy:***********;  BLOECHL correction:  0.000000
       DOS:  cpu time    0.0060: real time    0.0061
    CHARGE:  cpu time    1.3997: real time    1.4092
    MIXING:  cpu time    0.0016: real time    0.0016
    --------------------------------------------
      LOOP:  cpu time  117.7184: real time  118.5654

 eigenvalue-minimisations  : 18944
 total energy-change (2. order) :-0.2142776E-03  (-0.4983380E-04)
 number of electron     687.9999896 magnetization       0.0000000
 augmentation part      282.2775796 magnetization       0.0000000

 Broyden mixing:
  rms(total) = 0.74935E-02    rms(broyden)= 0.74932E-02
  rms(prec ) = 0.79487E-02
  weight for this iteration     100.00

 eigenvalues of (default mixing * dielectric matrix)
  average eigenvalue GAMMA=   1.1095
  2.2607  2.2607  1.0864  1.0864  0.3394  0.5940  0.5940  0.6546

 Free energy of the ion-electron system (eV)
  ---------------------------------------------------
  alpha Z        PSCENC =      2374.68803085
  Ewald energy   TEWEN  =    -62707.72033438
  -Hartree energ DENC   =    -42807.05891408
  -exchange      EXHF   =         0.00000000
  -V(xc)+E(xc)   XCENC  =      3286.47972479
  PAW double counting   =    112108.32218460  -115798.96336554
  entropy T*S    EENTRO =         0.00000000
  eigenvalues    EBANDS =    -10801.78170996
  atomic energy  EATOM  =    114020.06510763
  Solvation  Ediel_sol  =         0.00000000
  ---------------------------------------------------
  free energy    TOTEN  =      -325.96927608 eV

  energy without entropy =     -325.96927608  energy(sigma->0) =     -325.96927608


--------------------------------------------------------------------------------------------------------




--------------------------------------- Iteration      1(  14)  ---------------------------------------


    POTLOK:  cpu time    0.1211: real time    0.1220
    SETDIJ:  cpu time    0.0127: real time    0.0127
     EDDAV:  cpu time  174.4052: real time  175.5685
 BZINTS: Fermi energy:  5.202422;688.000000 electrons
         Band energy:***********;  BLOECHL correction:  0.000000
       DOS:  cpu time    0.0061: real time    0.0061
    CHARGE:  cpu time    1.4351: real time    1.4447
    MIXING:  cpu time    0.0017: real time    0.0017
    --------------------------------------------
      LOOP:  cpu time  175.9819: real time  177.1557

 eigenvalue-minimisations  : 23808
 total energy-change (2. order) :-0.1352509E-03  (-0.3797661E-04)
 number of electron     687.9999896 magnetization       0.0000000
 augmentation part      282.2710744 magnetization       0.0000000

 Broyden mixing:
  rms(total) = 0.41533E-02    rms(broyden)= 0.41529E-02
  rms(prec ) = 0.44514E-02
  weight for this iteration     100.00

 eigenvalues of (default mixing * dielectric matrix)
  average eigenvalue GAMMA=   1.1848
  2.4396  2.4396  1.4160  1.4160  0.3394  0.5966  0.5966  0.7096  0.7096

 Free energy of the ion-electron system (eV)
  ---------------------------------------------------
  alpha Z        PSCENC =      2374.68803085
  Ewald energy   TEWEN  =    -62707.72033438
  -Hartree energ DENC   =    -42807.33491922
  -exchange      EXHF   =         0.00000000
  -V(xc)+E(xc)   XCENC  =      3286.48434602
  PAW double counting   =    112105.94828837  -115796.66196693
  entropy T*S    EENTRO =         0.00000000
  eigenvalues    EBANDS =    -10801.43796368
  atomic energy  EATOM  =    114020.06510763
  Solvation  Ediel_sol  =         0.00000000
  ---------------------------------------------------
  free energy    TOTEN  =      -325.96941133 eV

  energy without entropy =     -325.96941133  energy(sigma->0) =     -325.96941133


--------------------------------------------------------------------------------------------------------




--------------------------------------- Iteration      1(  15)  ---------------------------------------


    POTLOK:  cpu time    0.1212: real time    0.1220
    SETDIJ:  cpu time    0.0127: real time    0.0128
     EDDAV:  cpu time  132.3262: real time  133.2598
 BZINTS: Fermi energy:  5.202051;688.000000 electrons
         Band energy:***********;  BLOECHL correction:  0.000000
       DOS:  cpu time    0.0061: real time    0.0061
    CHARGE:  cpu time    1.4015: real time    1.4096
    MIXING:  cpu time    0.0017: real time    0.0017
    --------------------------------------------
      LOOP:  cpu time  133.8694: real time  134.8120

 eigenvalue-minimisations  : 20480
 total energy-change (2. order) :-0.8380316E-04  (-0.2863182E-04)
 number of electron     687.9999896 magnetization       0.0000000
 augmentation part      282.2718048 magnetization       0.0000000

 Broyden mixing:
  rms(total) = 0.23578E-02    rms(broyden)= 0.23572E-02
  rms(prec ) = 0.26087E-02
  weight for this iteration     100.00

 eigenvalues of (default mixing * dielectric matrix)
  average eigenvalue GAMMA=   1.2326
  3.0960  2.1848  2.0461  1.0602  1.0602  0.3394  0.5959  0.5959  0.7145  0.6330

 Free energy of the ion-electron system (eV)
  ---------------------------------------------------
  alpha Z        PSCENC =      2374.68803085
  Ewald energy   TEWEN  =    -62707.72033438
  -Hartree energ DENC   =    -42807.27316093
  -exchange      EXHF   =         0.00000000
  -V(xc)+E(xc)   XCENC  =      3286.48533957
  PAW double counting   =    112104.17640754  -115794.90359972
  entropy T*S    EENTRO =         0.00000000
  eigenvalues    EBANDS =    -10801.48728568
  atomic energy  EATOM  =    114020.06510763
  Solvation  Ediel_sol  =         0.00000000
  ---------------------------------------------------
  free energy    TOTEN  =      -325.96949513 eV

  energy without entropy =     -325.96949513  energy(sigma->0) =     -325.96949513


--------------------------------------------------------------------------------------------------------




--------------------------------------- Iteration      1(  16)  ---------------------------------------


    POTLOK:  cpu time    0.1211: real time    0.1221
    SETDIJ:  cpu time    0.0127: real time    0.0127
     EDDAV:  cpu time  130.5478: real time  131.4560
 BZINTS: Fermi energy:  5.201958;688.000000 electrons
         Band energy:***********;  BLOECHL correction:  0.000000
       DOS:  cpu time    0.0060: real time    0.0061
    CHARGE:  cpu time    1.3992: real time    1.4075
    MIXING:  cpu time    0.0019: real time    0.0171
    --------------------------------------------
      LOOP:  cpu time  132.0888: real time  133.0215

 eigenvalue-minimisations  : 19968
 total energy-change (2. order) :-0.2774886E-04  (-0.1035907E-04)
 number of electron     687.9999896 magnetization      -0.0000000
 augmentation part      282.2736579 magnetization      -0.0000000

 Broyden mixing:
  rms(total) = 0.15805E-02    rms(broyden)= 0.15802E-02
  rms(prec ) = 0.16867E-02
  weight for this iteration     100.00

 eigenvalues of (default mixing * dielectric matrix)
  average eigenvalue GAMMA=   1.2840
  3.3922  2.1466  2.1466  1.3436  1.3436  0.3394  0.8782  0.5924  0.5924  0.7181
  0.6306

 Free energy of the ion-electron system (eV)
  ---------------------------------------------------
  alpha Z        PSCENC =      2374.68803085
  Ewald energy   TEWEN  =    -62707.72033438
  -Hartree energ DENC   =    -42807.22450726
  -exchange      EXHF   =         0.00000000
  -V(xc)+E(xc)   XCENC  =      3286.48511188
  PAW double counting   =    112103.37157501  -115794.09578687
  entropy T*S    EENTRO =         0.00000000
  eigenvalues    EBANDS =    -10801.53871973
  atomic energy  EATOM  =    114020.06510763
  Solvation  Ediel_sol  =         0.00000000
  ---------------------------------------------------
  free energy    TOTEN  =      -325.96952288 eV

  energy without entropy =     -325.96952288  energy(sigma->0) =     -325.96952288


--------------------------------------------------------------------------------------------------------




--------------------------------------- Iteration      1(  17)  ---------------------------------------


    POTLOK:  cpu time    0.1203: real time    0.1211
    SETDIJ:  cpu time    0.0128: real time    0.0129
     EDDAV:  cpu time  156.6628: real time  157.7168
 BZINTS: Fermi energy:  5.201829;688.000000 electrons
         Band energy:***********;  BLOECHL correction:  0.000000
       DOS:  cpu time    0.0060: real time    0.0061
    CHARGE:  cpu time    1.3994: real time    1.4076
    MIXING:  cpu time    0.0019: real time    0.0019
    --------------------------------------------
      LOOP:  cpu time  158.2034: real time  159.2664

 eigenvalue-minimisations  : 22016
 total energy-change (2. order) :-0.1334831E-04  (-0.7726277E-05)
 number of electron     687.9999896 magnetization      -0.0000000
 augmentation part      282.2735051 magnetization      -0.0000000

 Broyden mixing:
  rms(total) = 0.89244E-03    rms(broyden)= 0.89202E-03
  rms(prec ) = 0.98662E-03
  weight for this iteration     100.00

 eigenvalues of (default mixing * dielectric matrix)
  average eigenvalue GAMMA=   1.3869
  4.3338  2.3464  2.3464  1.5418  1.5418  0.3394  0.8462  0.8462  0.5959  0.5959
  0.6822  0.6273

 Free energy of the ion-electron system (eV)
  ---------------------------------------------------
  alpha Z        PSCENC =      2374.68803085
  Ewald energy   TEWEN  =    -62707.72033438
  -Hartree energ DENC   =    -42807.23770174
  -exchange      EXHF   =         0.00000000
  -V(xc)+E(xc)   XCENC  =      3286.48488211
  PAW double counting   =    112103.79683379  -115794.52544133
  entropy T*S    EENTRO =         0.00000000
  eigenvalues    EBANDS =    -10801.52091316
  atomic energy  EATOM  =    114020.06510763
  Solvation  Ediel_sol  =         0.00000000
  ---------------------------------------------------
  free energy    TOTEN  =      -325.96953623 eV

  energy without entropy =     -325.96953623  energy(sigma->0) =     -325.96953623


--------------------------------------------------------------------------------------------------------




--------------------------------------- Iteration      1(  18)  ---------------------------------------


    POTLOK:  cpu time    0.1210: real time    0.1218
    SETDIJ:  cpu time    0.0126: real time    0.0127
     EDDAV:  cpu time  164.5775: real time  165.6905
 BZINTS: Fermi energy:  5.201776;688.000000 electrons
         Band energy:***********;  BLOECHL correction:  0.000000
       DOS:  cpu time    0.0060: real time    0.0060
    CHARGE:  cpu time    1.6963: real time    1.7055
    MIXING:  cpu time    0.0023: real time    0.0024
    --------------------------------------------
      LOOP:  cpu time  166.4157: real time  167.5388

 eigenvalue-minimisations  : 23808
 total energy-change (2. order) :-0.3006397E-05  (-0.3015562E-05)
 number of electron     687.9999896 magnetization      -0.0000000
 augmentation part      282.2732789 magnetization      -0.0000000

 Broyden mixing:
  rms(total) = 0.39277E-03    rms(broyden)= 0.39235E-03
  rms(prec ) = 0.40773E-03
  weight for this iteration     100.00

 eigenvalues of (default mixing * dielectric matrix)
  average eigenvalue GAMMA=   1.3858
  4.7511  2.4030  2.4030  1.6884  1.1867  1.0416  1.0416  0.3394  0.5957  0.5957
  0.7040  0.6326  0.6326

 Free energy of the ion-electron system (eV)
  ---------------------------------------------------
  alpha Z        PSCENC =      2374.68803085
  Ewald energy   TEWEN  =    -62707.72033438
  -Hartree energ DENC   =    -42807.22754377
  -exchange      EXHF   =         0.00000000
  -V(xc)+E(xc)   XCENC  =      3286.48465586
  PAW double counting   =    112104.21640331  -115794.94145832
  entropy T*S    EENTRO =         0.00000000
  eigenvalues    EBANDS =    -10801.53440042
  atomic energy  EATOM  =    114020.06510763
  Solvation  Ediel_sol  =         0.00000000
  ---------------------------------------------------
  free energy    TOTEN  =      -325.96953923 eV

  energy without entropy =     -325.96953923  energy(sigma->0) =     -325.96953923


--------------------------------------------------------------------------------------------------------




--------------------------------------- Iteration      1(  19)  ---------------------------------------


    POTLOK:  cpu time    0.1337: real time    0.1359
    SETDIJ:  cpu time    0.0165: real time    0.0166
     EDDAV:  cpu time  141.9535: real time  142.9209
 BZINTS: Fermi energy:  5.201747;688.000000 electrons
         Band energy:***********;  BLOECHL correction:  0.000000
       DOS:  cpu time    0.0059: real time    0.0060
    CHARGE:  cpu time    1.3995: real time    1.4076
    MIXING:  cpu time    0.0021: real time    0.0021
    --------------------------------------------
      LOOP:  cpu time  143.5112: real time  144.4889

 eigenvalue-minimisations  : 20736
 total energy-change (2. order) :-0.2310699E-06  (-0.1815612E-06)
 number of electron     687.9999896 magnetization      -0.0000000
 augmentation part      282.2731721 magnetization      -0.0000000

 Broyden mixing:
[...]
   -.388E+02 0.514E+02 -.286E+01   0.396E+02 -.518E+02 0.289E+01   -.753E+00 0.338E+00 -.381E-01   -.168E-04 -.161E-05 0.283E-05
   -.388E+02 0.514E+02 -.286E+01   0.396E+02 -.518E+02 0.289E+01   -.753E+00 0.338E+00 -.381E-01   -.168E-04 -.161E-05 0.284E-05
   -.388E+02 0.514E+02 -.286E+01   0.396E+02 -.518E+02 0.289E+01   -.753E+00 0.338E+00 -.381E-01   -.168E-04 -.164E-05 0.283E-05
   -.388E+02 0.514E+02 -.286E+01   0.396E+02 -.518E+02 0.289E+01   -.753E+00 0.338E+00 -.381E-01   -.168E-04 -.164E-05 0.284E-05
   0.388E+02 0.514E+02 0.286E+01   -.396E+02 -.518E+02 -.289E+01   0.753E+00 0.338E+00 0.381E-01   0.168E-04 -.163E-05 -.283E-05
   0.388E+02 0.514E+02 0.286E+01   -.396E+02 -.518E+02 -.289E+01   0.753E+00 0.338E+00 0.381E-01   0.168E-04 -.163E-05 -.283E-05
   0.388E+02 0.514E+02 0.286E+01   -.396E+02 -.518E+02 -.289E+01   0.753E+00 0.338E+00 0.381E-01   0.168E-04 -.163E-05 -.283E-05
   0.388E+02 0.514E+02 0.286E+01   -.396E+02 -.518E+02 -.289E+01   0.753E+00 0.338E+00 0.381E-01   0.168E-04 -.163E-05 -.283E-05
   0.968E-08 -.869E+01 0.152E-06   -.107E-13 0.927E+01 -.124E-12   -.181E-24 -.587E+00 0.145E-23   -.702E-09 -.180E-04 -.137E-08
   0.968E-08 -.869E+01 0.152E-06   -.130E-12 0.927E+01 -.116E-12   0.000E+00 -.587E+00 -.176E-23   0.693E-09 -.180E-04 0.137E-08
   0.968E-08 -.869E+01 0.152E-06   -.284E-13 0.927E+01 -.995E-13   0.750E-24 -.587E+00 -.827E-24   -.702E-09 -.180E-04 -.137E-08
   0.968E-08 -.869E+01 0.152E-06   -.746E-13 0.927E+01 -.639E-13   -.284E-24 -.587E+00 0.124E-23   0.693E-09 -.180E-04 0.137E-08
   -.806E-08 0.782E+02 -.849E-07   0.195E-13 -.793E+02 -.114E-12   -.119E-23 0.109E+01 0.000E+00   0.143E-07 0.210E-04 -.100E-08
   -.806E-08 0.782E+02 -.849E-07   -.231E-13 -.793E+02 -.114E-12   0.108E-23 0.109E+01 -.155E-24   -.143E-07 0.210E-04 0.100E-08
   -.806E-08 0.782E+02 -.849E-07   -.142E-13 -.793E+02 -.171E-12   0.108E-23 0.109E+01 -.517E-25   0.143E-07 0.210E-04 -.100E-08
   -.806E-08 0.782E+02 -.849E-07   0.000E+00 -.793E+02 -.114E-12   -.117E-23 0.109E+01 -.517E-25   -.143E-07 0.210E-04 0.100E-08
   0.665E+01 -.465E+02 0.697E+01   -.661E+01 0.447E+02 -.712E+01   -.389E-01 0.181E+01 0.150E+00   0.598E-05 -.163E-04 0.748E-08
   0.665E+01 -.465E+02 0.697E+01   -.661E+01 0.447E+02 -.712E+01   -.389E-01 0.181E+01 0.150E+00   0.592E-05 -.163E-04 0.109E-07
   0.665E+01 -.465E+02 0.697E+01   -.661E+01 0.447E+02 -.712E+01   -.389E-01 0.181E+01 0.150E+00   0.598E-05 -.164E-04 0.963E-08
   0.665E+01 -.465E+02 0.697E+01   -.661E+01 0.447E+02 -.712E+01   -.389E-01 0.181E+01 0.150E+00   0.592E-05 -.164E-04 0.131E-07
   -.665E+01 -.465E+02 -.697E+01   0.661E+01 0.447E+02 0.712E+01   0.389E-01 0.181E+01 -.150E+00   -.592E-05 -.163E-04 -.116E-07
   -.665E+01 -.465E+02 -.697E+01   0.661E+01 0.447E+02 0.712E+01   0.389E-01 0.181E+01 -.150E+00   -.598E-05 -.163E-04 -.674E-08
   -.665E+01 -.465E+02 -.697E+01   0.661E+01 0.447E+02 0.712E+01   0.389E-01 0.181E+01 -.150E+00   -.592E-05 -.164E-04 -.138E-07
   -.665E+01 -.465E+02 -.697E+01   0.661E+01 0.447E+02 0.712E+01   0.389E-01 0.181E+01 -.150E+00   -.598E-05 -.164E-04 -.889E-08
   0.665E+01 -.465E+02 0.697E+01   -.661E+01 0.447E+02 -.712E+01   -.389E-01 0.181E+01 0.150E+00   0.598E-05 -.163E-04 0.108E-07
   0.665E+01 -.465E+02 0.697E+01   -.661E+01 0.447E+02 -.712E+01   -.389E-01 0.181E+01 0.150E+00   0.591E-05 -.163E-04 0.731E-08
   0.665E+01 -.465E+02 0.697E+01   -.661E+01 0.447E+02 -.712E+01   -.389E-01 0.181E+01 0.150E+00   0.598E-05 -.164E-04 0.133E-07
   0.665E+01 -.465E+02 0.697E+01   -.661E+01 0.447E+02 -.712E+01   -.389E-01 0.181E+01 0.150E+00   0.591E-05 -.164E-04 0.983E-08
   -.665E+01 -.465E+02 -.697E+01   0.661E+01 0.447E+02 0.712E+01   0.389E-01 0.181E+01 -.150E+00   -.592E-05 -.163E-04 -.152E-07
   -.665E+01 -.465E+02 -.697E+01   0.661E+01 0.447E+02 0.712E+01   0.389E-01 0.181E+01 -.150E+00   -.597E-05 -.163E-04 -.290E-08
   -.665E+01 -.465E+02 -.697E+01   0.661E+01 0.447E+02 0.712E+01   0.389E-01 0.181E+01 -.150E+00   -.592E-05 -.164E-04 -.177E-07
   -.665E+01 -.465E+02 -.697E+01   0.661E+01 0.447E+02 0.712E+01   0.389E-01 0.181E+01 -.150E+00   -.597E-05 -.164E-04 -.543E-08
   -.137E+02 -.445E+02 0.966E+01   0.135E+02 0.421E+02 -.985E+01   0.208E+00 0.234E+01 0.184E+00   0.727E-05 -.680E-05 0.582E-05
   -.137E+02 -.445E+02 0.966E+01   0.135E+02 0.421E+02 -.985E+01   0.208E+00 0.234E+01 0.184E+00   0.722E-05 -.680E-05 0.583E-05
   -.137E+02 -.445E+02 0.966E+01   0.135E+02 0.421E+02 -.985E+01   0.208E+00 0.234E+01 0.184E+00   0.727E-05 -.686E-05 0.582E-05
   -.137E+02 -.445E+02 0.966E+01   0.135E+02 0.421E+02 -.985E+01   0.208E+00 0.234E+01 0.184E+00   0.722E-05 -.686E-05 0.582E-05
   0.137E+02 -.445E+02 -.966E+01   -.135E+02 0.421E+02 0.985E+01   -.208E+00 0.234E+01 -.184E+00   -.722E-05 -.680E-05 -.582E-05
   0.137E+02 -.445E+02 -.966E+01   -.135E+02 0.421E+02 0.985E+01   -.208E+00 0.234E+01 -.184E+00   -.727E-05 -.680E-05 -.582E-05
   0.137E+02 -.445E+02 -.966E+01   -.135E+02 0.421E+02 0.985E+01   -.208E+00 0.234E+01 -.184E+00   -.722E-05 -.686E-05 -.582E-05
   0.137E+02 -.445E+02 -.966E+01   -.135E+02 0.421E+02 0.985E+01   -.208E+00 0.234E+01 -.184E+00   -.727E-05 -.686E-05 -.582E-05
   -.137E+02 -.445E+02 0.966E+01   0.135E+02 0.421E+02 -.985E+01   0.208E+00 0.234E+01 0.184E+00   0.727E-05 -.680E-05 0.582E-05
   -.137E+02 -.445E+02 0.966E+01   0.135E+02 0.421E+02 -.985E+01   0.208E+00 0.234E+01 0.184E+00   0.723E-05 -.680E-05 0.583E-05
   -.137E+02 -.445E+02 0.966E+01   0.135E+02 0.421E+02 -.985E+01   0.208E+00 0.234E+01 0.184E+00   0.727E-05 -.685E-05 0.582E-05
   -.137E+02 -.445E+02 0.966E+01   0.135E+02 0.421E+02 -.985E+01   0.208E+00 0.234E+01 0.184E+00   0.723E-05 -.685E-05 0.583E-05
   0.137E+02 -.445E+02 -.966E+01   -.135E+02 0.421E+02 0.985E+01   -.208E+00 0.234E+01 -.184E+00   -.722E-05 -.680E-05 -.582E-05
   0.137E+02 -.445E+02 -.966E+01   -.135E+02 0.421E+02 0.985E+01   -.208E+00 0.234E+01 -.184E+00   -.728E-05 -.680E-05 -.582E-05
   0.137E+02 -.445E+02 -.966E+01   -.135E+02 0.421E+02 0.985E+01   -.208E+00 0.234E+01 -.184E+00   -.722E-05 -.685E-05 -.582E-05
   0.137E+02 -.445E+02 -.966E+01   -.135E+02 0.421E+02 0.985E+01   -.208E+00 0.234E+01 -.184E+00   -.728E-05 -.685E-05 -.582E-05
 -----------------------------------------------------------------------------------------------
   0.815E-05 -.760E+02 0.179E-03   0.284E-13 0.568E-13 0.838E-12   -.278E-15 0.760E+02 0.000E+00   0.487E-11 -.373E-03 0.226E-10
 
 
 POSITION                                       TOTAL-FORCE (eV/Angst)
 -----------------------------------------------------------------------------------
      1.42178      1.21950      1.40562        -0.000111     -0.008298      0.001818
      6.66516      1.21950      1.77690        -0.000111     -0.008298      0.001818
      1.42178      6.48912      1.40562        -0.000111     -0.008298      0.001818
      6.66516      6.48912      1.77690        -0.000111     -0.008298      0.001818
      4.00538      3.85431      1.56115         0.000111     -0.008298     -0.001818
      9.24876      3.85431      1.93243         0.000111     -0.008298     -0.001818
      4.00538      9.12393      1.56115         0.000111     -0.008298     -0.001818
      9.24876      9.12393      1.93243         0.000111     -0.008298     -0.001818
      1.95409      3.89105      9.17704         0.000000     -0.004837      0.000000
      7.19747      3.89105      9.54832         0.000000     -0.004837      0.000000
      1.95409      9.16067      9.17704         0.000000     -0.004837      0.000000
      7.19747      9.16067      9.54832         0.000000     -0.004837      0.000000
      4.57578      1.26584      9.36268         0.000000     -0.003688      0.000000
      9.81916      1.26584      9.73396         0.000000     -0.003688      0.000000
      4.57578      6.53546      9.36268         0.000000     -0.003688      0.000000
      9.81916      6.53546      9.73396         0.000000     -0.003688      0.000000
      1.75126      1.21950      6.56649         0.000111     -0.008298     -0.001818
      6.99464      1.21950      6.93777         0.000111     -0.008298     -0.001818
      1.75126      6.48912      6.56649         0.000111     -0.008298     -0.001818
      6.99464      6.48912      6.93777         0.000111     -0.008298     -0.001818
      4.41104      3.85431      6.78225        -0.000111     -0.008298      0.001818
      9.65442      3.85431      7.15353        -0.000111     -0.008298      0.001818
      4.41104      9.12393      6.78225        -0.000111     -0.008298      0.001818
      9.65442      9.12393      7.15353        -0.000111     -0.008298      0.001818
      4.20821      1.25624      4.17170         0.000000     -0.004837      0.000000
      9.45159      1.25624      4.54298         0.000000     -0.004837      0.000000
      4.20821      6.52586      4.17170         0.000000     -0.004837      0.000000
      9.45159      6.52586      4.54298         0.000000     -0.004837      0.000000
      1.58652      3.90065      3.98606         0.000000     -0.003688      0.000000
      6.82990      3.90065      4.35734         0.000000     -0.003688      0.000000
      1.58652      9.17027      3.98606         0.000000     -0.003688      0.000000
      6.82990      9.17027      4.35734         0.000000     -0.003688      0.000000
     10.81456      0.07748      5.93107         0.001534      0.005928     -0.003872
      5.57119      0.07748      5.55979         0.001534      0.005928     -0.003872
     10.81456      5.34711      5.93107         0.001534      0.005928     -0.003872
      5.57119      5.34711      5.55979         0.001534      0.005928     -0.003872
      2.84524      0.07748      2.78361        -0.001534      0.005928      0.003872
      8.08861      0.07748      3.15489        -0.001534      0.005928      0.003872
      2.84524      5.34711      2.78361        -0.001534      0.005928      0.003872
      8.08861      5.34711      3.15489        -0.001534      0.005928      0.003872
      2.58193      2.71230      0.18317         0.001534      0.005928     -0.003872
      7.82530      2.71230      0.55445         0.001534      0.005928     -0.003872
      2.58193      7.98192      0.18317         0.001534      0.005928     -0.003872
      7.82530      7.98192      0.55445         0.001534      0.005928     -0.003872
      0.59112      2.71230      7.78895        -0.001534      0.005928      0.003872
      5.83450      2.71230      8.16023        -0.001534      0.005928      0.003872
      0.59112      7.98192      7.78895        -0.001534      0.005928      0.003872
      5.83450      7.98192      8.16023        -0.001534      0.005928      0.003872
     10.46308      0.07679      0.75724         0.004966      0.006632     -0.011209
      5.21970      0.07679      0.38596         0.004966      0.006632     -0.011209
     10.46308      5.34641      0.75724         0.004966      0.006632     -0.011209
      5.21970      5.34641      0.38596         0.004966      0.006632     -0.011209
      3.19673      0.07679      7.95744        -0.004966      0.006632      0.011209
      8.44010      0.07679      8.32872        -0.004966      0.006632      0.011209
      3.19673      5.34641      7.95744        -0.004966      0.006632      0.011209
      8.44010      5.34641      8.32872        -0.004966      0.006632      0.011209
      2.96558      2.71160      5.39130         0.004966      0.006632     -0.011209
      8.20896      2.71160      5.76258         0.004966      0.006632     -0.011209
      2.96558      7.98122      5.39130         0.004966      0.006632     -0.011209
      8.20896      7.98122      5.76258         0.004966      0.006632     -0.011209
      0.20747      2.71160      2.58082        -0.004966      0.006632      0.011209
      5.45084      2.71160      2.95210        -0.004966      0.006632      0.011209
      0.20747      7.98122      2.58082        -0.004966      0.006632      0.011209
      5.45084      7.98122      2.95210        -0.004966      0.006632      0.011209
 -----------------------------------------------------------------------------------
    total drift:                                0.000008     -0.015456      0.000179


--------------------------------------------------------------------------------------------------------



  FREE ENERGIE OF THE ION-ELECTRON SYSTEM (eV)
  ---------------------------------------------------
  free  energy   TOTEN  =      -325.96953963 eV

  energy  without entropy=     -325.96953963  energy(sigma->0) =     -325.96953963
 


--------------------------------------------------------------------------------------------------------


    POTLOK:  cpu time    0.1289: real time    0.1295


--------------------------------------------------------------------------------------------------------


 writing wavefunctions
     LOOP+:  cpu time 3498.5373: real time 3523.5642
    4ORBIT:  cpu time    0.0000: real time    0.0000
 


 total charge     
 
# of ion       s       p       d       tot
------------------------------------------
    1        1.316   2.403   0.000   3.719
    2        1.316   2.403   0.000   3.719
    3        1.316   2.403   0.000   3.719
    4        1.316   2.403   0.000   3.719
    5        1.316   2.403   0.000   3.719
    6        1.316   2.403   0.000   3.719
    7        1.316   2.403   0.000   3.719
    8        1.316   2.403   0.000   3.719
    9        1.318   2.396   0.000   3.714
   10        1.318   2.396   0.000   3.714
   11        1.318   2.396   0.000   3.714
   12        1.318   2.396   0.000   3.714
   13        1.313   2.410   0.000   3.723
   14        1.313   2.410   0.000   3.723
   15        1.313   2.410   0.000   3.723
   16        1.313   2.410   0.000   3.723
   17        1.316   2.403   0.000   3.719
   18        1.316   2.403   0.000   3.719
   19        1.316   2.403   0.000   3.719
   20        1.316   2.403   0.000   3.719
   21        1.316   2.403   0.000   3.719
   22        1.316   2.403   0.000   3.719
   23        1.316   2.403   0.000   3.719
   24        1.316   2.403   0.000   3.719
   25        1.318   2.396   0.000   3.714
   26        1.318   2.396   0.000   3.714
   27        1.318   2.396   0.000   3.714
   28        1.318   2.396   0.000   3.714
   29        1.313   2.410   0.000   3.723
   30        1.313   2.410   0.000   3.723
   31        1.313   2.410   0.000   3.723
   32        1.313   2.410   0.000   3.723
   33        0.257   6.199   8.917  15.374
   34        0.257   6.199   8.917  15.374
   35        0.257   6.199   8.917  15.374
   36        0.257   6.199   8.917  15.374
   37        0.257   6.199   8.917  15.374
   38        0.257   6.199   8.917  15.374
   39        0.257   6.199   8.917  15.374
   40        0.257   6.199   8.917  15.374
   41        0.257   6.199   8.917  15.374
   42        0.257   6.199   8.917  15.374
   43        0.257   6.199   8.917  15.374
   44        0.257   6.199   8.917  15.374
   45        0.257   6.199   8.917  15.374
   46        0.257   6.199   8.917  15.374
   47        0.257   6.199   8.917  15.374
   48        0.257   6.199   8.917  15.374
   49        0.345   6.345   5.827  12.517
   50        0.345   6.345   5.827  12.517
   51        0.345   6.345   5.827  12.517
   52        0.345   6.345   5.827  12.517
   53        0.345   6.345   5.827  12.517
   54        0.345   6.345   5.827  12.517
   55        0.345   6.345   5.827  12.517
   56        0.345   6.345   5.827  12.517
   57        0.345   6.345   5.827  12.517
   58        0.345   6.345   5.827  12.517
   59        0.345   6.345   5.827  12.517
   60        0.345   6.345   5.827  12.517
   61        0.345   6.345   5.827  12.517
   62        0.345   6.345   5.827  12.517
   63        0.345   6.345   5.827  12.517
   64        0.345   6.345   5.827  12.517
--------------------------------------------------
tot         51.750 277.595 235.911 565.257
 


 magnetization (x)
 
# of ion       s       p       d       tot
------------------------------------------
    1       -0.000  -0.035   0.000  -0.035
    2       -0.000  -0.035   0.000  -0.035
    3       -0.000  -0.035   0.000  -0.035
    4       -0.000  -0.035   0.000  -0.035
    5        0.000   0.035   0.000   0.035
    6        0.000   0.035   0.000   0.035
    7        0.000   0.035   0.000   0.035
    8        0.000   0.035   0.000   0.035
    9       -0.000   0.000   0.000   0.000
   10        0.000  -0.000   0.000  -0.000
   11       -0.000   0.000   0.000   0.000
   12        0.000  -0.000   0.000  -0.000
   13       -0.000   0.000   0.000   0.000
   14       -0.000   0.000   0.000   0.000
   15       -0.000   0.000   0.000   0.000
   16       -0.000   0.000   0.000   0.000
   17        0.000   0.035   0.000   0.035
   18        0.000   0.035   0.000   0.035
   19        0.000   0.035   0.000   0.035
   20        0.000   0.035   0.000   0.035
   21       -0.000  -0.035   0.000  -0.035
   22       -0.000  -0.035   0.000  -0.035
   23       -0.000  -0.035   0.000  -0.035
   24       -0.000  -0.035   0.000  -0.035
   25        0.000   0.000   0.000   0.000
   26        0.000   0.000   0.000   0.000
   27        0.000   0.000   0.000   0.000
   28        0.000   0.000   0.000   0.000
   29       -0.000  -0.000   0.000  -0.000
   30       -0.000   0.000   0.000   0.000
   31       -0.000  -0.000   0.000  -0.000
   32       -0.000   0.000   0.000   0.000
   33        0.000   0.001  -0.006  -0.005
   34        0.000   0.001  -0.006  -0.005
   35        0.000   0.001  -0.006  -0.005
   36        0.000   0.001  -0.006  -0.005
   37       -0.000  -0.001   0.006   0.005
   38       -0.000  -0.001   0.006   0.005
   39       -0.000  -0.001   0.006   0.005
   40       -0.000  -0.001   0.006   0.005
   41        0.000   0.001  -0.006  -0.005
   42        0.000   0.001  -0.006  -0.005
   43        0.000   0.001  -0.006  -0.005
   44        0.000   0.001  -0.006  -0.005
   45       -0.000  -0.001   0.006   0.005
   46       -0.000  -0.001   0.006   0.005
   47       -0.000  -0.001   0.006   0.005
   48       -0.000  -0.001   0.006   0.005
   49        0.021   0.054   3.659   3.734
   50        0.021   0.054   3.659   3.734
   51        0.021   0.054   3.659   3.734
   52        0.021   0.054   3.659   3.734
   53       -0.021  -0.054  -3.659  -3.734
   54       -0.021  -0.054  -3.659  -3.734
   55       -0.021  -0.054  -3.659  -3.734
   56       -0.021  -0.054  -3.659  -3.734
   57        0.021   0.054   3.659   3.734
   58        0.021   0.054   3.659   3.734
   59        0.021   0.054   3.659   3.734
   60        0.021   0.054   3.659   3.734
   61       -0.021  -0.054  -3.659  -3.734
   62       -0.021  -0.054  -3.659  -3.734
   63       -0.021  -0.054  -3.659  -3.734
   64       -0.021  -0.054  -3.659  -3.734
--------------------------------------------------
tot         -0.000   0.000  -0.000   0.000
 
 BZINTS: Fermi energy:  5.201734;688.000000 electrons
         Band energy:***********;  BLOECHL correction:  0.000000

 total amount of memory used by VASP MPI-rank0   347075. kBytes
=======================================================================

   base      :      30000. kBytes
   nonl-proj :     215613. kBytes
   fftplans  :       4588. kBytes
   grid      :      69719. kBytes
   one-center:       1990. kBytes
   wavefun   :      25165. kBytes
 
  
  
 General timing and accounting informations for this job:
 ========================================================
  
                  Total CPU time used (sec):     3557.864
                            User time (sec):     3546.402
                          System time (sec):       11.462
                         Elapsed time (sec):     3584.733
  
                   Maximum memory used (kb):      730192.
                   Average memory used (kb):           0.
  
                          Minor page faults:       561541
                          Major page faults:         5762
                 Voluntary context switches:         7310
