       N       E                     dE             d eps       ncg     rms          rms(c)
DAV:   1     0.594130126534E+04    0.59413E+04   -0.52068E+05 16384   0.197E+03
DAV:   2    -0.200086986239E+03   -0.61414E+04   -0.60388E+04 18944   0.449E+02
DAV:   3    -0.440333308274E+03   -0.24025E+03   -0.23964E+03 22016   0.962E+01
DAV:   4    -0.443715894462E+03   -0.33826E+01   -0.33824E+01 21504   0.115E+01
DAV:   5    -0.443828205141E+03   -0.11231E+00   -0.11231E+00 20224   0.205E+00    0.866E+01
DAV:   6    -0.358317978999E+03    0.85510E+02   -0.17563E+02 19200   0.371E+01    0.539E+01
DAV:   7    -0.338237922949E+03    0.20080E+02   -0.12782E+02 20736   0.457E+01    0.530E+01
DAV:   8    -0.331058435800E+03    0.71795E+01   -0.14546E+02 24320   0.286E+01    0.232E+01
DAV:   9    -0.327851239339E+03    0.32072E+01   -0.36334E+01 21248   0.221E+01    0.128E+01
DAV:  10    -0.327754497177E+03    0.96742E-01   -0.84336E+00 22016   0.596E+00    0.619E+00
DAV:  11    -0.327914367153E+03   -0.15987E+00   -0.14239E+00 21504   0.278E+00    0.308E+00
DAV:  12    -0.328029306234E+03   -0.11494E+00   -0.36495E-01 21248   0.104E+00    0.173E+00
DAV:  13    -0.328063011147E+03   -0.33705E-01   -0.19515E-01 22528   0.985E-01    0.790E-01
DAV:  14    -0.328079395531E+03   -0.16384E-01   -0.36883E-02 17408   0.325E-01    0.440E-01
DAV:  15    -0.328086822993E+03   -0.74275E-02   -0.26083E-02 22528   0.233E-01    0.236E-01
DAV:  16    -0.328089796463E+03   -0.29735E-02   -0.11859E-02 22528   0.159E-01    0.161E-01
DAV:  17    -0.328090775862E+03   -0.97940E-03   -0.32294E-03 22016   0.682E-02    0.109E-01
DAV:  18    -0.328091172806E+03   -0.39694E-03   -0.28561E-03 19456   0.661E-02    0.351E-02
DAV:  19    -0.328091213661E+03   -0.40854E-04   -0.26170E-04 21248   0.224E-02    0.294E-02
DAV:  20    -0.328091223397E+03   -0.97367E-05   -0.42922E-05 20992   0.768E-03    0.187E-02
DAV:  21    -0.328091228500E+03   -0.51027E-05   -0.33318E-05 20992   0.758E-03    0.645E-03
DAV:  22    -0.328091229199E+03   -0.69874E-06   -0.38298E-06 23552   0.344E-03    0.384E-03
DAV:  23    -0.328091229380E+03   -0.18180E-06   -0.59242E-07 23040   0.101E-03    0.274E-03
DAV:  24    -0.328091229607E+03   -0.22688E-06   -0.49898E-07 19712   0.792E-04    0.111E-03
DAV:  25    -0.328091229691E+03   -0.83572E-07   -0.53497E-07 23040   0.785E-04    0.810E-04
DAV:  26    -0.328091229693E+03   -0.25466E-08   -0.27821E-08 17408   0.232E-04
   1 F= -.32809123E+03 E0= -.32809123E+03  d E =0.000000E+00  mag=     0.0000
