 vasp.5.4.4.18Apr17-6-g9f103f2a35 (build Oct 30 2023 17:30:16) complex          
  
 executed on             LinuxIFC date 2024.06.30  05:25:25
 running on  256 total cores
 distrk:  each k-point on  256 cores,    1 groups
 distr:  one band on NCORES_PER_BAND=   1 cores,  256 groups


--------------------------------------------------------------------------------------------------------


 INCAR:
 POTCAR:    PAW_PBE S 06Sep2000                   
 POTCAR:     PAW_PBE Cu_pv 06Sep2000              
 POTCAR:     PAW_PBE Fe_pv 02Aug2007              

 ----------------------------------------------------------------------------- 
|                                                                             |
|           W    W    AA    RRRRR   N    N  II  N    N   GGGG   !!!           |
|           W    W   A  A   R    R  NN   N  II  NN   N  G    G  !!!           |
|           W    W  A    A  R    R  N N  N  II  N N  N  G       !!!           |
|           W WW W  AAAAAA  RRRRR   N  N N  II  N  N N  G  GGG   !            |
|           WW  WW  A    A  R   R   N   NN  II  N   NN  G    G                |
|           W    W  A    A  R    R  N    N  II  N    N   GGGG   !!!           |
|                                                                             |
|      For optimal performance we recommend to set                            |
|        NCORE= 4 - approx SQRT( number of cores)                             |
|      NCORE specifies how many cores store one orbital (NPAR=cpu/NCORE).     |
|      This setting can  greatly improve the performance of VASP for DFT.     |
|      The default,   NCORE=1            might be grossly inefficient         |
|      on modern multi-core architectures or massively parallel machines.     |
|      Do your own testing !!!!                                               |
|      Unfortunately you need to use the default for GW and RPA calculations. |
|      (for HF NCORE is supported but not extensively tested yet)             |
|                                                                             |
 ----------------------------------------------------------------------------- 

 POTCAR:    PAW_PBE S 06Sep2000                   
   SHA256 =  0fc7481fb0695f01bdc6462160264c5c84044ae9ec85a907d398b887a2bc3132 S/
   COPYR  = (c) Copyright 06Sep2000 Georg Kresse                                
   COPYR  = This file is part of the software VASP. Any use, copying, and all ot
   COPYR  = If you do not have a valid VASP license, you may not use, copy or di
   VRHFIN =S : s2p4                                                             
   LEXCH  = PE                                                                  
   EATOM  =   276.8230 eV,   20.3459 Ry                                         
                                                                                
   TITEL  = PAW_PBE S 06Sep2000                                                 
   LULTRA =        F    use ultrasoft PP ?                                      
   IUNSCR =        1    unscreen: 0-lin 1-nonlin 2-no                           
   RPACOR =    1.500    partial core radius                                     
   POMASS =   32.066; ZVAL   =    6.000    mass and valenz                      
   RCORE  =    1.900    outmost cutoff radius                                   
   RWIGS  =    2.200; RWIGS  =    1.164    wigner-seitz radius (au A)           
   ENMAX  =  258.689; ENMIN  =  194.016 eV                                      
   ICORE  =        2    local potential                                         
   LCOR   =        T    correct aug charges                                     
   LPAW   =        T    paw PP                                                  
   EAUG   =  335.092                                                            
   DEXC   =    0.000                                                            
   RMAX   =    1.942    core radius for proj-oper                               
   RAUG   =    1.300    factor for augmentation sphere                          
   RDEP   =    1.954    radius for radial grids                                 
   RDEPT  =    1.744    core radius for aug-charge                              
                                                                                
   Atomic configuration                                                         
    6 entries                                                                   
     n  l   j            E        occ.                                          
     1  0  0.50     -2405.8406   2.0000                                         
     2  0  0.50      -211.7007   2.0000                                         
     2  1  1.50      -156.4958   6.0000                                         
     3  0  0.50       -17.2562   2.0000                                         
     3  1  0.50        -7.0085   4.0000                                         
     3  2  1.50        -6.8029   0.0000                                         
   Description                                                                  
     l       E           TYP  RCUT    TYP  RCUT                                 
     0    -17.2561641     23  1.900                                             
     0    -15.8743224     23  1.900                                             
     1     -7.0085400     23  1.900                                             
     1     -2.7779785     23  1.900                                             
     2     -6.8029130     23  1.900                                             
  local pseudopotential read in
  partial core-charges read in
  partial kinetic energy density read in
  atomic valenz-charges read in
  non local Contribution for L=           0  read in
    real space projection operators read in
  non local Contribution for L=           0  read in
    real space projection operators read in
  non local Contribution for L=           1  read in
    real space projection operators read in
  non local Contribution for L=           1  read in
    real space projection operators read in
    PAW grid and wavefunctions read in
 
   number of l-projection  operators is LMAX  =           4
   number of lm-projection operators is LMMAX =           8
 
 POTCAR:     PAW_PBE Cu_pv 06Sep2000              
   SHA256 =  cb7b504e2ea725fe1f25c85a9ac77d4012ce94cd394135b722c4e25ec297f1cb Cu
   COPYR  = (c) Copyright 06Sep2000 Georg Kresse                                
   COPYR  = This file is part of the software VASP. Any use, copying, and all ot
   COPYR  = If you do not have a valid VASP license, you may not use, copy or di
   VRHFIN =Cu: d10 p1                                                           
   LEXCH  = PE                                                                  
   EATOM  =  4120.1201 eV,  302.8203 Ry                                         
                                                                                
   TITEL  = PAW_PBE Cu_pv 06Sep2000                                             
   LULTRA =        F    use ultrasoft PP ?                                      
   IUNSCR =        1    unscreen: 0-lin 1-nonlin 2-no                           
   RPACOR =    1.500    partial core radius                                     
   POMASS =   63.546; ZVAL   =   17.000    mass and valenz                      
   RCORE  =    2.000    outmost cutoff radius                                   
   RWIGS  =    2.000; RWIGS  =    1.058    wigner-seitz radius (au A)           
   ENMAX  =  368.648; ENMIN  =  276.486 eV                                      
   RCLOC  =    1.304    cutoff for local pot                                    
   LCOR   =        T    correct aug charges                                     
   LPAW   =        T    paw PP                                                  
   EAUG   =  758.233                                                            
   DEXC   =    0.000                                                            
   RMAX   =    2.046    core radius for proj-oper                               
   RAUG   =    1.300    factor for augmentation sphere                          
   RDEP   =    2.025    radius for radial grids                                 
   RDEPT  =    1.558    core radius for aug-charge                              
                                                                                
   Atomic configuration                                                         
    8 entries                                                                   
     n  l   j            E        occ.                                          
     1  0  0.50     -8850.2467   2.0000                                         
     2  0  0.50     -1062.3498   2.0000                                         
     2  1  1.50      -916.8226   6.0000                                         
     3  0  0.50      -114.6929   2.0000                                         
     3  1  1.50       -72.1325   6.0000                                         
     3  2  2.50        -5.0394  10.0000                                         
     4  0  0.50        -4.6097   1.0000                                         
     4  3  2.50        -1.3606   0.0000                                         
   Description                                                                  
     l       E           TYP  RCUT    TYP  RCUT                                 
     1    -72.1324777     23  1.700                                             
     1     -1.3605826     23  1.700                                             
     2     -5.0393776     23  2.000                                             
     2     -6.3999602     23  2.000                                             
     0     -4.6097062     23  1.800                                             
     0     14.1620818     23  1.800                                             
  local pseudopotential read in
  partial core-charges read in
  partial kinetic energy density read in
  atomic valenz-charges read in
  non local Contribution for L=           1  read in
    real space projection operators read in
  non local Contribution for L=           1  read in
    real space projection operators read in
  non local Contribution for L=           2  read in
    real space projection operators read in
  non local Contribution for L=           2  read in
    real space projection operators read in
  non local Contribution for L=           0  read in
    real space projection operators read in
  non local Contribution for L=           0  read in
    real space projection operators read in
    PAW grid and wavefunctions read in
 
   number of l-projection  operators is LMAX  =           6
   number of lm-projection operators is LMMAX =          18
 
 POTCAR:     PAW_PBE Fe_pv 02Aug2007              
   SHA256 =  5d22e414b1f82158bf2c7ecb8b97b28fd0923e48cadc1c3bf74d524558f5dd32 Fe
   COPYR  = (c) Copyright 02Aug2007 Georg Kresse                                
   COPYR  = This file is part of the software VASP. Any use, copying, and all ot
   COPYR  = If you do not have a valid VASP license, you may not use, copy or di
   VRHFIN =Fe:  3pd7s1                                                          
   LEXCH  = PE                                                                  
   EATOM  =  2457.4239 eV,  180.6156 Ry                                         
                                                                                
   TITEL  = PAW_PBE Fe_pv 02Aug2007                                             
   LULTRA =        F    use ultrasoft PP ?                                      
   IUNSCR =        1    unscreen: 0-lin 1-nonlin 2-no                           
   RPACOR =    1.750    partial core radius                                     
   POMASS =   55.847; ZVAL   =   14.000    mass and valenz                      
   RCORE  =    2.200    outmost cutoff radius                                   
   RWIGS  =    2.200; RWIGS  =    1.164    wigner-seitz radius (au A)           
   ENMAX  =  293.238; ENMIN  =  219.928 eV                                      
   ICORE  =        3    local potential                                         
   LCOR   =        T    correct aug charges                                     
   LPAW   =        T    paw PP                                                  
   EAUG   =  578.342                                                            
   DEXC   =    0.000                                                            
   RMAX   =    2.249    core radius for proj-oper                               
   RAUG   =    1.300    factor for augmentation sphere                          
   RDEP   =    2.296    radius for radial grids                                 
   RDEPT  =    1.766    core radius for aug-charge                              
                                                                                
   Atomic configuration                                                         
    8 entries                                                                   
     n  l   j            E        occ.                                          
     1  0  0.50     -6993.8440   2.0000                                         
     2  0  0.50      -814.6047   2.0000                                         
     2  1  1.50      -693.3689   6.0000                                         
     3  0  0.50       -89.4732   2.0000                                         
     3  1  1.50       -55.6373   6.0000                                         
     3  2  2.50        -3.8151   7.0000                                         
     4  0  0.50        -4.2551   1.0000                                         
     4  3  2.50        -1.3606   0.0000                                         
   Description                                                                  
     l       E           TYP  RCUT    TYP  RCUT                                 
     1    -55.6372668     23  2.000                                             
     1     -5.4423304     23  2.000                                             
     2     -3.8151096     23  2.200                                             
     2     -5.1756922     23  2.200                                             
     0     -4.2550951     23  2.200                                             
     0     27.2116520     23  2.200                                             
     3     -1.3605826     23  2.200                                             
  local pseudopotential read in
  partial core-charges read in
  partial kinetic energy density read in
  atomic valenz-charges read in
  non local Contribution for L=           1  read in
    real space projection operators read in
  non local Contribution for L=           1  read in
    real space projection operators read in
  non local Contribution for L=           2  read in
    real space projection operators read in
  non local Contribution for L=           2  read in
    real space projection operators read in
  non local Contribution for L=           0  read in
    real space projection operators read in
  non local Contribution for L=           0  read in
    real space projection operators read in
    PAW grid and wavefunctions read in
 
   number of l-projection  operators is LMAX  =           6
   number of lm-projection operators is LMMAX =          18
 

 ----------------------------------------------------------------------------- 
|                                                                             |
|  ADVICE TO THIS USER RUNNING 'VASP/VAMP'   (HEAR YOUR MASTER'S VOICE ...):  |
|                                                                             |
|      You have a (more or less) 'large supercell' and for larger cells       |
|      it might be more efficient to use real space projection opertators     |
|      So try LREAL= Auto  in the INCAR   file.                               |
|      Mind:          For very  accurate calculation you might also keep the  |
|      reciprocal projection scheme          (i.e. LREAL=.FALSE.)             |
|                                                                             |
 ----------------------------------------------------------------------------- 


 ----------------------------------------------------------------------------- 
|                                                                             |
|  ADVICE TO THIS USER RUNNING 'VASP/VAMP'   (HEAR YOUR MASTER'S VOICE ...):  |
|                                                                             |
|      You enforced a specific xc-type in the INCAR file,                     |
|      a different type was found on the POTCAR file                          |
|          I HOPE YOU KNOW, WHAT YOU ARE  DOING                               |
|                                                                             |
 ----------------------------------------------------------------------------- 

  PAW_PBE S 06Sep2000                   :
 energy of atom  1       EATOM= -276.8230
 kinetic energy error for atom=    0.0007 (will be added to EATOM!!)
   PAW_PBE Cu_pv 06Sep2000              :
 energy of atom  2       EATOM=-4120.1201
 kinetic energy error for atom=    0.0094 (will be added to EATOM!!)
   PAW_PBE Fe_pv 02Aug2007              :
 energy of atom  3       EATOM=-2457.4239
 kinetic energy error for atom=    0.0025 (will be added to EATOM!!)
 
 
 POSCAR: Fe16 Cu16 S32                           
  positions in direct lattice
  No initial velocities read in
 exchange correlation table for  LEXCH =       14
   RHO(1)=    0.500       N(1)  =     2000
   RHO(2)=  100.500       N(2)  =     4000
 


--------------------------------------------------------------------------------------------------------


 ion  position               nearest neighbor table
   1  0.126  0.124  0.125-  41 2.26  37 2.26  61 2.27  49 2.28
   2  0.626  0.124  0.125-  42 2.26  38 2.26  62 2.27  50 2.28
   3  0.126  0.624  0.125-  43 2.26  39 2.26  63 2.27  51 2.28
   4  0.626  0.624  0.125-  44 2.26  40 2.26  64 2.27  52 2.28
   5  0.374  0.374  0.125-  39 2.26  41 2.26  52 2.27  62 2.28
   6  0.874  0.374  0.125-  40 2.26  42 2.26  51 2.27  61 2.28
   7  0.374  0.874  0.125-  37 2.26  43 2.26  50 2.27  64 2.28
   8  0.874  0.874  0.125-  38 2.26  44 2.26  49 2.27  63 2.28
   9  0.125  0.373  0.875-  41 2.26  45 2.26  51 2.28  55 2.28
  10  0.625  0.373  0.875-  42 2.26  46 2.26  52 2.28  56 2.28
  11  0.125  0.873  0.875-  43 2.26  47 2.26  49 2.28  53 2.28
  12  0.625  0.873  0.875-  44 2.26  48 2.26  50 2.28  54 2.28
  13  0.375  0.125  0.875-  41 2.26  46 2.26  50 2.28  53 2.28
  14  0.875  0.125  0.875-  42 2.26  45 2.26  49 2.28  54 2.28
  15  0.375  0.625  0.875-  43 2.26  48 2.26  52 2.28  55 2.28
  16  0.875  0.625  0.875-  44 2.26  47 2.26  51 2.28  56 2.28
  17  0.124  0.124  0.625-  45 2.26  33 2.26  57 2.27  53 2.28
  18  0.624  0.124  0.625-  46 2.26  34 2.26  58 2.27  54 2.28
  19  0.124  0.624  0.625-  47 2.26  35 2.26  59 2.27  55 2.28
  20  0.624  0.624  0.625-  48 2.26  36 2.26  60 2.27  56 2.28
  21  0.376  0.374  0.625-  36 2.26  46 2.26  55 2.27  57 2.28
  22  0.876  0.374  0.625-  35 2.26  45 2.26  56 2.27  58 2.28
  23  0.376  0.874  0.625-  34 2.26  48 2.26  53 2.27  59 2.28
  24  0.876  0.874  0.625-  33 2.26  47 2.26  54 2.27  60 2.28
  25  0.375  0.123  0.375-  34 2.26  37 2.26  57 2.28  62 2.28
  26  0.875  0.123  0.375-  33 2.26  38 2.26  58 2.28  61 2.28
  27  0.375  0.623  0.375-  36 2.26  39 2.26  59 2.28  64 2.28
  28  0.875  0.623  0.375-  35 2.26  40 2.26  60 2.28  63 2.28
  29  0.125  0.375  0.375-  35 2.26  39 2.26  57 2.28  61 2.28
  30  0.625  0.375  0.375-  36 2.26  40 2.26  58 2.28  62 2.28
  31  0.125  0.875  0.375-  33 2.26  37 2.26  59 2.28  63 2.28
  32  0.625  0.875  0.375-  34 2.26  38 2.26  60 2.28  64 2.28
  33  1.000  0.001  0.500-  24 2.26  31 2.26  26 2.26  17 2.26
  34  0.500  0.001  0.500-  23 2.26  32 2.26  25 2.26  18 2.26
  35  1.000  0.501  0.500-  22 2.26  29 2.26  28 2.26  19 2.26
  36  0.500  0.501  0.500-  21 2.26  30 2.26  27 2.26  20 2.26
  37  0.250  0.001  0.250-   7 2.26  31 2.26  25 2.26   1 2.26
  38  0.750  0.001  0.250-   8 2.26  32 2.26  26 2.26   2 2.26
  39  0.250  0.501  0.250-   5 2.26  29 2.26  27 2.26   3 2.26
  40  0.750  0.501  0.250-   6 2.26  30 2.26  28 2.26   4 2.26
  41  0.250  0.251  0.000-   1 2.26  13 2.26   9 2.26   5 2.26
  42  0.750  0.251  0.000-   2 2.26  14 2.26  10 2.26   6 2.26
  43  0.250  0.751  0.000-   3 2.26  15 2.26  11 2.26   7 2.26
  44  0.750  0.751  0.000-   4 2.26  16 2.26  12 2.26   8 2.26
  45  0.000  0.251  0.750-  17 2.26  14 2.26   9 2.26  22 2.26
  46  0.500  0.251  0.750-  18 2.26  13 2.26  10 2.26  21 2.26
  47  0.000  0.751  0.750-  19 2.26  16 2.26  11 2.26  24 2.26
  48  0.500  0.751  0.750-  20 2.26  15 2.26  12 2.26  23 2.26
  49  1.000  0.001  0.000-   8 2.27  11 2.28  14 2.28   1 2.28
  50  0.500  0.001  0.000-   7 2.27  12 2.28  13 2.28   2 2.28
  51  1.000  0.501  0.000-   6 2.27   9 2.28  16 2.28   3 2.28
  52  0.500  0.501  0.000-   5 2.27  10 2.28  15 2.28   4 2.28
  53  0.250  0.001  0.750-  23 2.27  11 2.28  13 2.28  17 2.28
  54  0.750  0.001  0.750-  24 2.27  12 2.28  14 2.28  18 2.28
  55  0.250  0.501  0.750-  21 2.27   9 2.28  15 2.28  19 2.28
  56  0.750  0.501  0.750-  22 2.27  10 2.28  16 2.28  20 2.28
  57  0.250  0.251  0.500-  17 2.27  25 2.28  29 2.28  21 2.28
  58  0.750  0.251  0.500-  18 2.27  26 2.28  30 2.28  22 2.28
  59  0.250  0.751  0.500-  19 2.27  27 2.28  31 2.28  23 2.28
  60  0.750  0.751  0.500-  20 2.27  28 2.28  32 2.28  24 2.28
  61  0.000  0.251  0.250-   1 2.27  26 2.28  29 2.28   6 2.28
  62  0.500  0.251  0.250-   2 2.27  25 2.28  30 2.28   5 2.28
  63  0.000  0.751  0.250-   3 2.27  28 2.28  31 2.28   8 2.28
  64  0.500  0.751  0.250-   4 2.27  27 2.28  32 2.28   7 2.28
 
  LATTYP: Found a simple monoclinic cell.
 ALAT       =    14.9209931723
 B/A-ratio  =     0.7049946929
 C/A-ratio  =     1.5737299773
 COS(beta)  =    -0.9500135564
  
  Lattice vectors:
  
 A1 = ( -10.6026700000,   0.0000000000, -10.4985440000)
 A2 = (   0.0000000000, -10.5192210000,   0.0000000000)
 A3 = (  10.6934070000,   0.0000000000,  20.9054360000)


Analysis of symmetry for initial positions (statically):
=====================================================================
 Subroutine PRICEL returns following result:
 
  LATTYP: Found a base centered monoclinic cell.
 ALAT       =    11.5771881061
 B/A-ratio  =     0.4543081145
 C/A-ratio  =     0.8989477809
 COS(beta)  =    -0.8112376718
  
  Lattice vectors:
  
 A1 = (  -2.5826147500,  -2.6298052500,   5.1805330000)
 A2 = (  -2.5826147500,   2.6298052500,   5.1805330000)
 A3 = (  -0.0907370000,   0.0000000000, -10.4068920000)
 
   8 primitive cells build up your supercell.
 

 Routine SETGRP: Setting up the symmetry group for a 
 simple monoclinic supercell.


 Subroutine GETGRP returns: Found  2 space group operations
 (whereof  1 operations were pure point group operations)
 out of a pool of  4 trial point group operations.


The static configuration has the point symmetry C_1 .
 The point group associated with its full space group is C_2 .


Analysis of symmetry for dynamics (positions and initial velocities):
=====================================================================
 Subroutine PRICEL returns following result:
 
  LATTYP: Found a base centered monoclinic cell.
 ALAT       =    11.5771881061
 B/A-ratio  =     0.4543081145
 C/A-ratio  =     0.8989477809
 COS(beta)  =    -0.8112376718
  
  Lattice vectors:
  
 A1 = (  -2.5826147500,  -2.6298052500,   5.1805330000)
 A2 = (  -2.5826147500,   2.6298052500,   5.1805330000)
 A3 = (  -0.0907370000,   0.0000000000, -10.4068920000)
 
   8 primitive cells build up your supercell.
 

 Routine SETGRP: Setting up the symmetry group for a 
 simple monoclinic supercell.


 Subroutine GETGRP returns: Found  2 space group operations
 (whereof  1 operations were pure point group operations)
 out of a pool of  4 trial point group operations.


The dynamic configuration has the point symmetry C_1 .
 The point group associated with its full space group is C_2 .


Analysis of structural, dynamic, and magnetic symmetry:
=====================================================================
 Subroutine PRICEL returns following result:
 
  LATTYP: Found a base centered monoclinic cell.
 ALAT       =    11.5771881061
 B/A-ratio  =     0.4543081145
 C/A-ratio  =     0.8989477809
 COS(beta)  =    -0.8112376718
  
  Lattice vectors:
  
 A1 = (  -2.5826147500,  -2.6298052500,   5.1805330000)
 A2 = (  -2.5826147500,   2.6298052500,   5.1805330000)
 A3 = (  -0.0907370000,   0.0000000000, -10.4068920000)
 
   8 primitive cells build up your supercell.
 

 Routine SETGRP: Setting up the symmetry group for a 
 simple monoclinic supercell.


 Subroutine GETGRP returns: Found  2 space group operations
 (whereof  1 operations were pure point group operations)
 out of a pool of  4 trial point group operations.


The magnetic configuration has the point symmetry C_1 .
 The point group associated with its full space group is C_2 .


 Subroutine INISYM returns: Found  2 space group operations
 (whereof  1 operations are pure point group operations),
 and found     8 'primitive' translations

 
 
 KPOINTS: Automatic mesh                          

Automatic generation of k-mesh.
Space group operators:
 irot       det(A)        alpha          n_x          n_y          n_z        tau_x        tau_y        tau_z
    1     1.000000     0.000001     1.000000     0.000000     0.000000     0.000000     0.000000     0.000000
    2     1.000000   180.000000     0.000000     1.000000     0.000000    -0.250000    -0.000000    -0.250000
 
 Subroutine IBZKPT returns following result:
 ===========================================
 
 Found      8 irreducible k-points:
 
 Following reciprocal coordinates:
            Coordinates               Weight
  0.000000  0.000000  0.000000      1.000000
  0.500000  0.000000 -0.000000      1.000000
  0.000000  0.500000  0.000000      1.000000
  0.500000  0.500000 -0.000000      1.000000
  0.000000  0.000000  0.500000      1.000000
  0.500000  0.000000  0.500000      1.000000
  0.000000  0.500000  0.500000      1.000000
  0.500000  0.500000  0.500000      1.000000
 
 Following cartesian coordinates:
            Coordinates               Weight
  0.000000  0.000000  0.000000      1.000000
  0.047569  0.000000 -0.000415      1.000000
  0.000000  0.047532  0.000000      1.000000
  0.047569  0.047532 -0.000415      1.000000
 -0.000419  0.000000  0.048049      1.000000
  0.047150  0.000000  0.047634      1.000000
 -0.000419  0.047532  0.048049      1.000000
  0.047150  0.047532  0.047634      1.000000
 
 TETIRR: Found     24 inequivalent tetrahedra from       48
 
 Subroutine IBZKPT_HF returns following result:
 ==============================================
 
 Found      8 k-points in 1st BZ
 the following      8 k-points will be used (e.g. in the exchange kernel)
 Following reciprocal coordinates:   # in IRBZ
  0.000000  0.000000  0.000000    0.12500000   1 t-inv F
  0.500000  0.000000 -0.000000    0.12500000   2 t-inv F
  0.000000  0.500000  0.000000    0.12500000   3 t-inv F
  0.500000  0.500000 -0.000000    0.12500000   4 t-inv F
  0.000000  0.000000  0.500000    0.12500000   5 t-inv F
  0.500000  0.000000  0.500000    0.12500000   6 t-inv F
  0.000000  0.500000  0.500000    0.12500000   7 t-inv F
  0.500000  0.500000  0.500000    0.12500000   8 t-inv F


--------------------------------------------------------------------------------------------------------




 Dimension of arrays:
   k-points           NKPTS =      8   k-points in BZ     NKDIM =      8   number of bands    NBANDS=    512
   number of dos      NEDOS =    301   number of ions     NIONS =     64
   non local maximal  LDIM  =      6   non local SUM 2l+1 LMDIM =     18
   total plane-waves  NPLWV = 829440
   max r-space proj   IRMAX =      1   max aug-charges    IRDMAX=  22906
   dimension x,y,z NGX =    96 NGY =   96 NGZ =   90
   dimension x,y,z NGXF=   192 NGYF=  192 NGZF=  180
   support grid    NGXF=   192 NGYF=  192 NGZF=  180
   ions per type =              32  16  16
   NGX,Y,Z   is equivalent  to a cutoff of  15.18, 15.17, 14.38 a.u.
   NGXF,Y,Z  is equivalent  to a cutoff of  30.36, 30.34, 28.75 a.u.

 SYSTEM =  CuFeS2                                  
 POSCAR =  Fe16 Cu16 S32                           

 Startparameter for this run:
   NWRITE =      2    write-flag & timer
   PREC   = accura    normal or accurate (medium, high low for compatibility)
   ISTART =      0    job   : 0-new  1-cont  2-samecut
   ICHARG =      1    charge: 1-file 2-atom 10-const
   ISPIN  =      2    spin polarized calculation?
   LNONCOLLINEAR =      F non collinear calculations
   LSORBIT =      F    spin-orbit coupling
   INIWAV =      1    electr: 0-lowe 1-rand  2-diag
   LASPH  =      F    aspherical Exc in radial PAW
   METAGGA=      F    non-selfconsistent MetaGGA calc.

 Electronic Relaxation 1
   ENCUT  =  700.0 eV  51.45 Ry    7.17 a.u.  22.68 22.69 22.45*2*pi/ulx,y,z
   ENINI  =  700.0     initial cutoff
   ENAUG  =  758.2 eV  augmentation charge cutoff
   NELM   =    500;   NELMIN=  2; NELMDL=  0     # of ELM steps 
   EDIFF  = 0.1E-07   stopping-criterion for ELM
   LREAL  =      F    real-space projection
   NLSPLINE    = F    spline interpolate recip. space projectors
   LCOMPAT=      F    compatible to vasp.4.4
   GGA_COMPAT  = T    GGA compatible to vasp.4.4-vasp.4.6
   LMAXPAW     = -100 max onsite density
   LMAXMIX     =    4 max onsite mixed and CHGCAR
   VOSKOWN=      0    Vosko Wilk Nusair interpolation
   ROPT   =    0.00000   0.00000   0.00000
 Ionic relaxation
   EDIFFG = -.1E-04   stopping-criterion for IOM
   NSW    =      0    number of steps for IOM
   NBLOCK =      1;   KBLOCK =      1    inner block; outer block 
   IBRION =     -1    ionic relax: 0-MD 1-quasi-New 2-CG
   NFREE  =      0    steps in history (QN), initial steepest desc. (CG)
   ISIF   =      2    stress and relaxation
   IWAVPR =     10    prediction:  0-non 1-charg 2-wave 3-comb
   ISYM   =      2    0-nonsym 1-usesym 2-fastsym
   LCORR  =      T    Harris-Foulkes like correction to forces

   POTIM  = 0.5000    time-step for ionic-motion
   TEIN   =    0.0    initial temperature
   TEBEG  =    0.0;   TEEND  =   0.0 temperature during run
   SMASS  =  -3.00    Nose mass-parameter (am)
   estimated Nose-frequenzy (Omega)   =  0.10E-29 period in steps =****** mass=  -0.253E-26a.u.
   SCALEE = 1.0000    scale energy and forces
   NPACO  =    256;   APACO  = 16.0  distance and # of slots for P.C.
   PSTRESS=    0.0 pullay stress

  Mass of Ions in am
   POMASS =  32.07 63.55 55.85
  Ionic Valenz
   ZVAL   =   6.00 17.00 14.00
  Atomic Wigner-Seitz radii
   RWIGS  =  -1.00 -1.00 -1.00
  virtual crystal weights 
   VCA    =   1.00  1.00  1.00
   NELECT =     688.0000    total number of electrons
   NUPDOWN=      -1.0000    fix difference up-down

 DOS related values:
   EMIN   =  10.00;   EMAX   =-10.00  energy-range for DOS
   EFERMI =   0.00
   ISMEAR =    -5;   SIGMA  =   0.03  broadening in eV -4-tet -1-fermi 0-gaus

 Electronic relaxation 2 (details)
   IALGO  =     38    algorithm
   LDIAG  =      T    sub-space diagonalisation (order eigenvalues)
   LSUBROT=      F    optimize rotation matrix (better conditioning)
   TURBO    =      0    0=normal 1=particle mesh
   IRESTART =      0    0=no restart 2=restart with 2 vectors
   NREBOOT  =      0    no. of reboots
   NMIN     =      0    reboot dimension
   EREF     =   0.00    reference energy to select bands
   IMIX   =      4    mixing-type and parameters
     AMIX     =   0.40;   BMIX     =  1.00
     AMIX_MAG =   1.60;   BMIX_MAG =  1.00
     AMIN     =   0.10
     WC   =   100.;   INIMIX=   1;  MIXPRE=   1;  MAXMIX= -45

 Intra band minimization:
   WEIMIN = 0.0000     energy-eigenvalue tresh-hold
   EBREAK =  0.49E-11  absolut break condition
   DEPER  =   0.30     relativ break condition  

   TIME   =   0.40     timestep for ELM

  volume/ion in A,a.u.               =      17.98       121.33
  Fermi-wavevector in a.u.,A,eV,Ry     =   1.379176  2.606264 25.879988  1.902125
  Thomas-Fermi vector in A             =   2.504169
 
 Write flags
   LWAVE        =      T    write WAVECAR
   LDOWNSAMPLE  =      F    k-point downsampling of WAVECAR
   LCHARG       =      T    write CHGCAR
   LVTOT        =      F    write LOCPOT, total local potential
   LVHAR        =      F    write LOCPOT, Hartree potential only
   LELF         =      F    write electronic localiz. function (ELF)
   LORBIT       =     11    0 simple, 1 ext, 2 COOP (PROOUT), +10 PAW based schemes


 Dipole corrections
   LMONO  =      F    monopole corrections only (constant potential shift)
   LDIPOL =      F    correct potential (dipole corrections)
   IDIPOL =      0    1-x, 2-y, 3-z, 4-all directions 
   EPSILON=  1.0000000 bulk dielectric constant

 LDA+U is selected, type is set to LDAUTYPE =  2
   angular momentum for each species LDAUL =     2    2    2
   U (eV)           for each species LDAUU =   0.0  0.1  4.7
   J (eV)           for each species LDAUJ =   0.0  0.0  0.0
 Exchange correlation treatment:
   GGA     =    PS    GGA type
   LEXCH   =    14    internal setting for exchange type
   VOSKOWN=      0    Vosko Wilk Nusair interpolation
   LHFCALC =     F    Hartree Fock is set to
   LHFONE  =     F    Hartree Fock one center treatment
   AEXX    =    0.0000 exact exchange contribution

 Linear response parameters
   LEPSILON=     F    determine dielectric tensor
   LRPA    =     F    only Hartree local field effects (RPA)
   LNABLA  =     F    use nabla operator in PAW spheres
   LVEL    =     F    velocity operator in full k-point grid
   LINTERFAST=   F  fast interpolation
   KINTER  =     0    interpolate to denser k-point grid
   CSHIFT  =0.1000    complex shift for real part using Kramers Kronig
   OMEGAMAX=  -1.0    maximum frequency
   DEG_THRESHOLD= 0.2000000E-02 threshold for treating states as degnerate
   RTIME   =   -0.100 relaxation time in fs
  (WPLASMAI=    0.000 imaginary part of plasma frequency in eV, 0.658/RTIME)
   DFIELD  = 0.0000000 0.0000000 0.0000000 field for delta impulse in time
 
 Orbital magnetization related:
   ORBITALMAG=     F  switch on orbital magnetization
   LCHIMAG   =     F  perturbation theory with respect to B field
   DQ        =  0.001000  dq finite difference perturbation B field
   LLRAUG    =     F  two centre corrections for induced B field

 PEAD related settings:
   LPEAD      =     T    switch on PEAD
   IPEAD      =     4    finite difference order for dpsi/dk
   LCALCPOL   =     T    calculate macroscopic polarization
   LCALCEPS   =     F    calculate dielectric tensor
   EFIELD_PEAD=    0.0000    0.0000    0.0000
   SKIP_EDOTP =     F
   LRPA       =     F
   SKIP_SCF   =     F


--------------------------------------------------------------------------------------------------------


 Static calculation
 charge density and potential will be updated during run
 spin polarized calculation
 Variant of blocked Davidson
 Davidson routine will perform the subspace rotation
 perform sub-space diagonalisation
    after iterative eigenvector-optimisation
 modified Broyden-mixing scheme, WC =      100.0
 initial mixing is a Kerker type mixing with AMIX =  0.4000 and BMIX =      1.0000
 Hartree-type preconditioning will be used
 using additional bands          168
 reciprocal scheme for non local part
 use partial core corrections
 calculate Harris-corrections to forces 
   (improved forces if not selfconsistent)
 use gradient corrections 
 use of overlap-Matrix (Vanderbilt PP)
 Fermi weights with tetrahedron method with Bloechl corrections


--------------------------------------------------------------------------------------------------------


  energy-cutoff  :      700.00
  volume of cell :     1150.68
      direct lattice vectors                 reciprocal lattice vectors
    10.511933000  0.000000000  0.091652000     0.095137215  0.000000000 -0.000829495
     0.000000000 10.519221000  0.000000000     0.000000000  0.095064074  0.000000000
     0.090737000  0.000000000 10.406892000    -0.000837860  0.000000000  0.096097473

  length of vectors
    10.512332543 10.519221000 10.407287557     0.095140831  0.095064074  0.096101126


 
 k-points in units of 2pi/SCALE and weight: Automatic mesh                          
   0.00000000  0.00000000  0.00000000       0.125
   0.04756861  0.00000000 -0.00041475       0.125
   0.00000000  0.04753204  0.00000000       0.125
   0.04756861  0.04753204 -0.00041475       0.125
  -0.00041893  0.00000000  0.04804874       0.125
   0.04714968  0.00000000  0.04763399       0.125
  -0.00041893  0.04753204  0.04804874       0.125
   0.04714968  0.04753204  0.04763399       0.125
 
 k-points in reciprocal lattice and weights: Automatic mesh                          
   0.00000000  0.00000000  0.00000000       0.125
   0.50000000  0.00000000 -0.00000000       0.125
   0.00000000  0.50000000  0.00000000       0.125
   0.50000000  0.50000000 -0.00000000       0.125
   0.00000000  0.00000000  0.50000000       0.125
   0.50000000  0.00000000  0.50000000       0.125
   0.00000000  0.50000000  0.50000000       0.125
   0.50000000  0.50000000  0.50000000       0.125
 
 position of ions in fractional coordinates (direct lattice) 
   0.12623500  0.12384800  0.12516300
   0.62623500  0.12384800  0.12516300
   0.12623500  0.62384800  0.12516300
   0.62623500  0.62384800  0.12516300
   0.37376500  0.37384800  0.12483700
   0.87376500  0.37384800  0.12483700
   0.37376500  0.87384800  0.12483700
   0.87376500  0.87384800  0.12483700
   0.12500000  0.37329300  0.87500000
   0.62500000  0.37329300  0.87500000
   0.12500000  0.87329300  0.87500000
   0.62500000  0.87329300  0.87500000
   0.37500000  0.12542200  0.87500000
   0.87500000  0.12542200  0.87500000
   0.37500000  0.62542200  0.87500000
   0.87500000  0.62542200  0.87500000
   0.12376500  0.12384800  0.62483700
   0.62376500  0.12384800  0.62483700
   0.12376500  0.62384800  0.62483700
   0.62376500  0.62384800  0.62483700
   0.37623500  0.37384800  0.62516300
   0.87623500  0.37384800  0.62516300
   0.37623500  0.87384800  0.62516300
   0.87623500  0.87384800  0.62516300
   0.37500000  0.12329300  0.37500000
   0.87500000  0.12329300  0.37500000
   0.37500000  0.62329300  0.37500000
   0.87500000  0.62329300  0.37500000
   0.12500000  0.37542200  0.37500000
   0.62500000  0.37542200  0.37500000
   0.12500000  0.87542200  0.37500000
   0.62500000  0.87542200  0.37500000
   0.99951100  0.00089600  0.50001100
   0.49951100  0.00089600  0.50001100
   0.99951100  0.50089600  0.50001100
   0.49951100  0.50089600  0.50001100
   0.25048900  0.00089600  0.24998900
   0.75048900  0.00089600  0.24998900
   0.25048900  0.50089600  0.24998900
   0.75048900  0.50089600  0.24998900
   0.24951100  0.25089600  0.00001100
   0.74951100  0.25089600  0.00001100
   0.24951100  0.75089600  0.00001100
   0.74951100  0.75089600  0.00001100
   0.00048900  0.25089600  0.74998900
   0.50048900  0.25089600  0.74998900
   0.00048900  0.75089600  0.74998900
   0.50048900  0.75089600  0.74998900
   0.99968700  0.00089800  0.00022200
   0.49968700  0.00089800  0.00022200
   0.99968700  0.50089800  0.00022200
   0.49968700  0.50089800  0.00022200
   0.25031300  0.00089800  0.74977800
   0.75031300  0.00089800  0.74977800
   0.25031300  0.50089800  0.74977800
   0.75031300  0.50089800  0.74977800
   0.24968700  0.25089800  0.50022200
   0.74968700  0.25089800  0.50022200
   0.24968700  0.75089800  0.50022200
   0.74968700  0.75089800  0.50022200
   0.00031300  0.25089800  0.24977800
   0.50031300  0.25089800  0.24977800
   0.00031300  0.75089800  0.24977800
   0.50031300  0.75089800  0.24977800
 
 position of ions in cartesian coordinates  (Angst):
   1.33833078  1.30278448  1.31412751
   6.59429728  1.30278448  1.35995351
   1.33833078  6.56239498  1.31412751
   6.59429728  6.56239498  1.35995351
   3.94031997  3.93258973  1.33342149
   9.19628647  3.93258973  1.37924749
   3.94031997  9.19220023  1.33342149
   9.19628647  9.19220023  1.37924749
   1.39338650  3.92675156  9.11748700
   6.64935300  3.92675156  9.16331300
   1.39338650  9.18636206  9.11748700
   6.64935300  9.18636206  9.16331300
   4.02136975  1.31934174  9.14040000
   9.27733625  1.31934174  9.18622600
   4.02136975  6.57895224  9.14040000
   9.27733625  6.57895224  9.18622600
   1.35770522  1.30278448  6.51395449
   6.61367172  1.30278448  6.55978049
   1.35770522  6.56239498  6.51395449
   6.61367172  6.56239498  6.55978049
   4.01168253  3.93258973  6.54048651
   9.26764903  3.93258973  6.58631251
   4.01168253  9.19220023  6.54048651
   9.26764903  9.19220023  6.58631251
   3.97600125  1.29694631  3.93695400
   9.23196775  1.29694631  3.98278000
   3.97600125  6.55655681  3.93695400
   9.23196775  6.55655681  3.98278000
   1.34801800  3.94914699  3.91404100
   6.60398450  3.94914699  3.95986700
   1.34801800  9.20875749  3.91404100
   6.60398450  9.20875749  3.95986700
  10.55216216  0.00942522  5.29516766
   5.29619566  0.00942522  5.24934166
  10.55216216  5.26903572  5.29516766
   5.29619566  5.26903572  5.24934166
   2.65580684  0.00942522  2.62456634
   7.91177334  0.00942522  2.67039234
   2.65580684  5.26903572  2.62456634
   7.91177334  5.26903572  2.67039234
   2.62284391  2.63923047  0.02298266
   7.87881041  2.63923047  0.06880866
   2.62284391  7.89884097  0.02298266
   7.87881041  7.89884097  0.06880866
   0.07319209  2.63923047  7.80509934
   5.32915859  2.63923047  7.85092534
   0.07319209  7.89884097  7.80509934
   5.32915859  7.89884097  7.85092534
  10.50866291  0.00944626  0.09393364
   5.25269641  0.00944626  0.04810764
  10.50866291  5.26905676  0.09393364
   5.25269641  5.26905676  0.04810764
   2.69930609  0.00944626  7.82580036
   7.95527259  0.00944626  7.87162636
   2.69930609  5.26905676  7.82580036
   7.95527259  5.26905676  7.87162636
   2.67008166  2.63925151  5.22864064
   7.92604816  2.63925151  5.27446664
   2.67008166  7.89886201  5.22864064
   7.92604816  7.89886201  5.27446664
   0.02595434  2.63925151  2.59944136
   5.28192084  2.63925151  2.64526736
   0.02595434  7.89886201  2.59944136
   5.28192084  7.89886201  2.64526736
 


--------------------------------------------------------------------------------------------------------


 k-point  1 :   0.0000 0.0000 0.0000  plane waves:   48435
 k-point  2 :   0.5000 0.0000-0.0000  plane waves:   48440
 k-point  3 :   0.0000 0.5000 0.0000  plane waves:   48434
 k-point  4 :   0.5000 0.5000-0.0000  plane waves:   48368
 k-point  5 :   0.0000 0.0000 0.5000  plane waves:   48378
 k-point  6 :   0.5000 0.0000 0.5000  plane waves:   48390
 k-point  7 :   0.0000 0.5000 0.5000  plane waves:   48368
 k-point  8 :   0.5000 0.5000 0.5000  plane waves:   48352

 maximum and minimum number of plane-waves per node :     48440    48352

 maximum number of plane-waves:     48440
 maximum index in each direction: 
   IXMAX=   22   IYMAX=   22   IZMAX=   22
   IXMIN=  -23   IYMIN=  -23   IZMIN=  -22


 serial   3D FFT for wavefunctions
 parallel 3D FFT for charge:
    minimum data exchange during FFTs selected (reduces bandwidth)


 total amount of memory used by VASP MPI-rank0   349631. kBytes
=======================================================================

   base      :      30000. kBytes
   nonl-proj :     217907. kBytes
   fftplans  :       4588. kBytes
   grid      :      69719. kBytes
   one-center:       1990. kBytes
   wavefun   :      25427. kBytes
 
     INWAV:  cpu time    0.0000: real time    0.0000
 Broyden mixing: mesh for mixing (old mesh)
   NGX = 45   NGY = 45   NGZ = 45
  (NGX  =192   NGY  =192   NGZ  =180)
  gives a total of  91125 points

 initial charge density was supplied:
 number of electron     688.0000140 magnetization      -0.0000000
 keeping initial charge density in first step


--------------------------------------------------------------------------------------------------------


 Maximum index for augmentation-charges          894 (set IRDMAX)


--------------------------------------------------------------------------------------------------------


 First call to EWALD:  gamma=   0.169
 Maximum number of real-space cells 3x 3x 3
 Maximum number of reciprocal cells 3x 3x 3

    FEWALD:  cpu time    0.0027: real time    0.0031


--------------------------------------- Iteration      1(   1)  ---------------------------------------


    POTLOK:  cpu time    0.3365: real time    0.4018
    SETDIJ:  cpu time    0.0152: real time    0.0153
     EDDAV:  cpu time   84.6337: real time   85.4194
 BZINTS: Fermi energy: 14.386254;688.000000 electrons
         Band energy:***********;  BLOECHL correction: -0.022108
       DOS:  cpu time    0.0400: real time    0.0402
    --------------------------------------------
      LOOP:  cpu time   85.0255: real time   85.8768

 eigenvalue-minimisations  : 16384
 total energy-change (2. order) : 0.5941301E+04  (-0.5206849E+05)
 number of electron     688.0000140 magnetization      -0.0000000
 augmentation part      688.0000140 magnetization      -0.0000000

 Free energy of the ion-electron system (eV)
  ---------------------------------------------------
  alpha Z        PSCENC =      2356.13102817
  Ewald energy   TEWEN  =    -62468.29050371
  -Hartree energ DENC   =    -42526.75723798
  -exchange      EXHF   =         0.00000000
  -V(xc)+E(xc)   XCENC  =      3277.42276021
  PAW double counting   =    112006.03736751  -115694.97744343
  entropy T*S    EENTRO =         0.00000000
  eigenvalues    EBANDS =     -5028.32981306
  atomic energy  EATOM  =    114020.06510763
  Solvation  Ediel_sol  =         0.00000000
  ---------------------------------------------------
  free energy    TOTEN  =      5941.30126534 eV

  energy without entropy =     5941.30126534  energy(sigma->0) =     5941.30126534


--------------------------------------------------------------------------------------------------------




--------------------------------------- Iteration      1(   2)  ---------------------------------------


     EDDAV:  cpu time  107.3357: real time  108.1160
 BZINTS: Fermi energy:  4.777042;688.000000 electrons
         Band energy:***********;  BLOECHL correction: -0.176976
       DOS:  cpu time    0.0374: real time    0.0376
    --------------------------------------------
      LOOP:  cpu time  107.3731: real time  108.1535

 eigenvalue-minimisations  : 18944
 total energy-change (2. order) :-0.6141388E+04  (-0.6038790E+04)
 number of electron     688.0000140 magnetization      -0.0000000
 augmentation part      688.0000140 magnetization      -0.0000000

 Free energy of the ion-electron system (eV)
  ---------------------------------------------------
  alpha Z        PSCENC =      2356.13102817
  Ewald energy   TEWEN  =    -62468.29050371
  -Hartree energ DENC   =    -42526.75723798
  -exchange      EXHF   =         0.00000000
  -V(xc)+E(xc)   XCENC  =      3277.42276021
  PAW double counting   =    112006.03736751  -115694.97744343
  entropy T*S    EENTRO =         0.00000000
  eigenvalues    EBANDS =    -11169.71806464
  atomic energy  EATOM  =    114020.06510763
  Solvation  Ediel_sol  =         0.00000000
  ---------------------------------------------------
  free energy    TOTEN  =      -200.08698624 eV

  energy without entropy =     -200.08698624  energy(sigma->0) =     -200.08698624


--------------------------------------------------------------------------------------------------------




--------------------------------------- Iteration      1(   3)  ---------------------------------------


     EDDAV:  cpu time  144.6110: real time  145.6099
 BZINTS: Fermi energy:  4.486201;688.000000 electrons
         Band energy:***********;  BLOECHL correction: -0.037319
       DOS:  cpu time    0.0358: real time    0.0360
    --------------------------------------------
      LOOP:  cpu time  144.6468: real time  145.6458

 eigenvalue-minimisations  : 22016
 total energy-change (2. order) :-0.2402463E+03  (-0.2396363E+03)
 number of electron     688.0000140 magnetization      -0.0000000
 augmentation part      688.0000140 magnetization      -0.0000000

 Free energy of the ion-electron system (eV)
  ---------------------------------------------------
  alpha Z        PSCENC =      2356.13102817
  Ewald energy   TEWEN  =    -62468.29050371
  -Hartree energ DENC   =    -42526.75723798
  -exchange      EXHF   =         0.00000000
  -V(xc)+E(xc)   XCENC  =      3277.42276021
  PAW double counting   =    112006.03736751  -115694.97744343
  entropy T*S    EENTRO =         0.00000000
  eigenvalues    EBANDS =    -11409.96438667
  atomic energy  EATOM  =    114020.06510763
  Solvation  Ediel_sol  =         0.00000000
  ---------------------------------------------------
  free energy    TOTEN  =      -440.33330827 eV

  energy without entropy =     -440.33330827  energy(sigma->0) =     -440.33330827


--------------------------------------------------------------------------------------------------------




--------------------------------------- Iteration      1(   4)  ---------------------------------------


     EDDAV:  cpu time  147.1799: real time  148.1741
 BZINTS: Fermi energy:  4.485660;688.000000 electrons
         Band energy:***********;  BLOECHL correction: -0.037352
       DOS:  cpu time    0.0366: real time    0.0368
    --------------------------------------------
      LOOP:  cpu time  147.2166: real time  148.2109

 eigenvalue-minimisations  : 21504
 total energy-change (2. order) :-0.3382586E+01  (-0.3382438E+01)
 number of electron     688.0000140 magnetization      -0.0000000
 augmentation part      688.0000140 magnetization      -0.0000000

 Free energy of the ion-electron system (eV)
  ---------------------------------------------------
  alpha Z        PSCENC =      2356.13102817
  Ewald energy   TEWEN  =    -62468.29050371
  -Hartree energ DENC   =    -42526.75723798
  -exchange      EXHF   =         0.00000000
  -V(xc)+E(xc)   XCENC  =      3277.42276021
  PAW double counting   =    112006.03736751  -115694.97744343
  entropy T*S    EENTRO =         0.00000000
  eigenvalues    EBANDS =    -11413.34697286
  atomic energy  EATOM  =    114020.06510763
  Solvation  Ediel_sol  =         0.00000000
  ---------------------------------------------------
  free energy    TOTEN  =      -443.71589446 eV

  energy without entropy =     -443.71589446  energy(sigma->0) =     -443.71589446


--------------------------------------------------------------------------------------------------------




--------------------------------------- Iteration      1(   5)  ---------------------------------------


     EDDAV:  cpu time  131.3182: real time  132.2257
 BZINTS: Fermi energy:  4.485658;688.000000 electrons
         Band energy:***********;  BLOECHL correction: -0.037352
       DOS:  cpu time    0.0360: real time    0.0362
    CHARGE:  cpu time    1.5057: real time    1.5158
    MIXING:  cpu time    0.0041: real time    0.0042
    --------------------------------------------
      LOOP:  cpu time  132.8640: real time  133.7819

 eigenvalue-minimisations  : 20224
 total energy-change (2. order) :-0.1123107E+00  (-0.1123101E+00)
 number of electron     688.0000432 magnetization      -0.0000000
 augmentation part      288.9936349 magnetization      -0.0000000

 Broyden mixing:
  rms(total) = 0.86631E+01    rms(broyden)= 0.86622E+01
  rms(prec ) = 0.97389E+01
  weight for this iteration     100.00

 Free energy of the ion-electron system (eV)
  ---------------------------------------------------
  alpha Z        PSCENC =      2356.13102817
  Ewald energy   TEWEN  =    -62468.29050371
  -Hartree energ DENC   =    -42526.75723798
  -exchange      EXHF   =         0.00000000
  -V(xc)+E(xc)   XCENC  =      3277.42276021
  PAW double counting   =    112006.03736751  -115694.97744343
  entropy T*S    EENTRO =         0.00000000
  eigenvalues    EBANDS =    -11413.45928354
  atomic energy  EATOM  =    114020.06510763
  Solvation  Ediel_sol  =         0.00000000
  ---------------------------------------------------
  free energy    TOTEN  =      -443.82820514 eV

  energy without entropy =     -443.82820514  energy(sigma->0) =     -443.82820514


--------------------------------------------------------------------------------------------------------




--------------------------------------- Iteration      1(   6)  ---------------------------------------


    POTLOK:  cpu time    0.1447: real time    0.1487
    SETDIJ:  cpu time    0.0132: real time    0.0133
     EDDAV:  cpu time  111.0881: real time  111.8924
 BZINTS: Fermi energy:  4.947494;688.000000 electrons
         Band energy:***********;  BLOECHL correction:  0.000000
       DOS:  cpu time    0.0076: real time    0.0077
    CHARGE:  cpu time    1.3935: real time    1.4032
    MIXING:  cpu time    0.0024: real time    0.1664
    --------------------------------------------
      LOOP:  cpu time  112.6495: real time  113.6317

 eigenvalue-minimisations  : 19200
 total energy-change (2. order) : 0.8551023E+02  (-0.1756338E+02)
 number of electron     688.0000423 magnetization      -0.0000000
 augmentation part      278.1569672 magnetization      -0.0000000

 Broyden mixing:
  rms(total) = 0.53864E+01    rms(broyden)= 0.53864E+01
  rms(prec ) = 0.60459E+01
  weight for this iteration     100.00

 eigenvalues of (default mixing * dielectric matrix)
  average eigenvalue GAMMA=   0.6358
  0.6358

 Free energy of the ion-electron system (eV)
  ---------------------------------------------------
  alpha Z        PSCENC =      2356.13102817
  Ewald energy   TEWEN  =    -62468.29050371
  -Hartree energ DENC   =    -43108.22443004
  -exchange      EXHF   =         0.00000000
  -V(xc)+E(xc)   XCENC  =      3287.71043158
  PAW double counting   =    120936.64140895  -124703.15394038
  entropy T*S    EENTRO =         0.00000000
  eigenvalues    EBANDS =    -10679.19708119
  atomic energy  EATOM  =    114020.06510763
  Solvation  Ediel_sol  =         0.00000000
  ---------------------------------------------------
  free energy    TOTEN  =      -358.31797900 eV

  energy without entropy =     -358.31797900  energy(sigma->0) =     -358.31797900


--------------------------------------------------------------------------------------------------------




--------------------------------------- Iteration      1(   7)  ---------------------------------------


    POTLOK:  cpu time    0.1381: real time    0.1416
    SETDIJ:  cpu time    0.0131: real time    0.0132
     EDDAV:  cpu time  127.8887: real time  128.7834
 BZINTS: Fermi energy:  4.948611;688.000000 electrons
         Band energy:***********;  BLOECHL correction: -0.049041
       DOS:  cpu time    0.0360: real time    0.0361
    CHARGE:  cpu time    1.3918: real time    1.4015
    MIXING:  cpu time    0.0015: real time    0.0015
    --------------------------------------------
      LOOP:  cpu time  129.4692: real time  130.3774

 eigenvalue-minimisations  : 20736
 total energy-change (2. order) : 0.2008006E+02  (-0.1278181E+02)
 number of electron     688.0000429 magnetization      -0.0000000
 augmentation part      283.0128135 magnetization      -0.0000000

 Broyden mixing:
  rms(total) = 0.52952E+01    rms(broyden)= 0.52951E+01
  rms(prec ) = 0.58691E+01
  weight for this iteration     100.00

 eigenvalues of (default mixing * dielectric matrix)
  average eigenvalue GAMMA=   0.7723
  1.1426  0.4019

 Free energy of the ion-electron system (eV)
  ---------------------------------------------------
  alpha Z        PSCENC =      2356.13102817
  Ewald energy   TEWEN  =    -62468.29050371
  -Hartree energ DENC   =    -42918.10894476
  -exchange      EXHF   =         0.00000000
  -V(xc)+E(xc)   XCENC  =      3287.28800871
  PAW double counting   =    120104.55554134  -123802.24634632
  entropy T*S    EENTRO =         0.00000000
  eigenvalues    EBANDS =    -10917.63181400
  atomic energy  EATOM  =    114020.06510763
  Solvation  Ediel_sol  =         0.00000000
  ---------------------------------------------------
  free energy    TOTEN  =      -338.23792295 eV

  energy without entropy =     -338.23792295  energy(sigma->0) =     -338.23792295


--------------------------------------------------------------------------------------------------------




--------------------------------------- Iteration      1(   8)  ---------------------------------------


    POTLOK:  cpu time    0.1431: real time    0.1455
    SETDIJ:  cpu time    0.0131: real time    0.0132
     EDDAV:  cpu time  171.6804: real time  172.8204
 BZINTS: Fermi energy:  4.559198;688.000000 electrons
         Band energy:***********;  BLOECHL correction:  0.000000
       DOS:  cpu time    0.0064: real time    0.0064
    CHARGE:  cpu time    1.3937: real time    1.4033
    MIXING:  cpu time    0.0015: real time    0.0015
    --------------------------------------------
      LOOP:  cpu time  173.2382: real time  174.3903

 eigenvalue-minimisations  : 24320
 total energy-change (2. order) : 0.7179487E+01  (-0.1454551E+02)
 number of electron     688.0000429 magnetization      -0.0000000
 augmentation part      284.0407504 magnetization      -0.0000000

 Broyden mixing:
  rms(total) = 0.23150E+01    rms(broyden)= 0.23148E+01
  rms(prec ) = 0.26831E+01
  weight for this iteration     100.00

 eigenvalues of (default mixing * dielectric matrix)
  average eigenvalue GAMMA=   0.8718
  1.5754  0.6554  0.3846

 Free energy of the ion-electron system (eV)
  ---------------------------------------------------
  alpha Z        PSCENC =      2356.13102817
  Ewald energy   TEWEN  =    -62468.29050371
  -Hartree energ DENC   =    -42765.60235153
  -exchange      EXHF   =         0.00000000
  -V(xc)+E(xc)   XCENC  =      3280.15299216
  PAW double counting   =    118159.81858548  -121841.94390444
  entropy T*S    EENTRO =         0.00000000
  eigenvalues    EBANDS =    -11071.38938955
  atomic energy  EATOM  =    114020.06510763
  Solvation  Ediel_sol  =         0.00000000
  ---------------------------------------------------
  free energy    TOTEN  =      -331.05843580 eV

  energy without entropy =     -331.05843580  energy(sigma->0) =     -331.05843580


--------------------------------------------------------------------------------------------------------




--------------------------------------- Iteration      1(   9)  ---------------------------------------


    POTLOK:  cpu time    0.1470: real time    0.1481
    SETDIJ:  cpu time    0.0131: real time    0.0131
     EDDAV:  cpu time  139.3041: real time  140.2649
 BZINTS: Fermi energy:  5.075422;688.000000 electrons
         Band energy:***********;  BLOECHL correction:  0.000000
       DOS:  cpu time    0.0064: real time    0.0064
    CHARGE:  cpu time    1.3920: real time    1.4020
    MIXING:  cpu time    0.0015: real time    0.0015
    --------------------------------------------
      LOOP:  cpu time  140.8640: real time  141.8360

 eigenvalue-minimisations  : 21248
 total energy-change (2. order) : 0.3207196E+01  (-0.3633429E+01)
 number of electron     688.0000426 magnetization       0.0000000
 augmentation part      282.6176939 magnetization       0.0000000

 Broyden mixing:
  rms(total) = 0.12794E+01    rms(broyden)= 0.12794E+01
  rms(prec ) = 0.14207E+01
  weight for this iteration     100.00

 eigenvalues of (default mixing * dielectric matrix)
  average eigenvalue GAMMA=   0.8985
  1.7976  0.8783  0.5940  0.3239

 Free energy of the ion-electron system (eV)
  ---------------------------------------------------
  alpha Z        PSCENC =      2356.13102817
  Ewald energy   TEWEN  =    -62468.29050371
  -Hartree energ DENC   =    -42963.65896720
  -exchange      EXHF   =         0.00000000
  -V(xc)+E(xc)   XCENC  =      3287.79302518
  PAW double counting   =    116512.11668834  -120214.77751212
  entropy T*S    EENTRO =         0.00000000
  eigenvalues    EBANDS =    -10857.23010562
  atomic energy  EATOM  =    114020.06510763
  Solvation  Ediel_sol  =         0.00000000
  ---------------------------------------------------
  free energy    TOTEN  =      -327.85123934 eV

  energy without entropy =     -327.85123934  energy(sigma->0) =     -327.85123934


--------------------------------------------------------------------------------------------------------




--------------------------------------- Iteration      1(  10)  ---------------------------------------


    POTLOK:  cpu time    0.1427: real time    0.1455
    SETDIJ:  cpu time    0.0131: real time    0.0131
     EDDAV:  cpu time  147.7581: real time  148.7640
 BZINTS: Fermi energy:  4.810195;688.000000 electrons
         Band energy:***********;  BLOECHL correction:  0.000000
       DOS:  cpu time    0.0055: real time    0.0056
    CHARGE:  cpu time    1.3891: real time    1.3993
    MIXING:  cpu time    0.0018: real time    0.0156
    --------------------------------------------
      LOOP:  cpu time  149.3103: real time  150.3430

 eigenvalue-minimisations  : 22016
 total energy-change (2. order) : 0.9674216E-01  (-0.8433618E+00)
 number of electron     688.0000425 magnetization      -0.0000000
 augmentation part      281.5299355 magnetization      -0.0000000

 Broyden mixing:
  rms(total) = 0.61872E+00    rms(broyden)= 0.61869E+00
  rms(prec ) = 0.65901E+00
  weight for this iteration     100.00

 eigenvalues of (default mixing * dielectric matrix)
  average eigenvalue GAMMA=   1.0324
  1.7658  1.7658  0.6555  0.6555  0.3197

 Free energy of the ion-electron system (eV)
  ---------------------------------------------------
  alpha Z        PSCENC =      2356.13102817
  Ewald energy   TEWEN  =    -62468.29050371
  -Hartree energ DENC   =    -42983.48174780
  -exchange      EXHF   =         0.00000000
  -V(xc)+E(xc)   XCENC  =      3287.21615071
  PAW double counting   =    115103.35190138  -118805.42988019
  entropy T*S    EENTRO =         0.00000000
  eigenvalues    EBANDS =    -10837.31655336
  atomic energy  EATOM  =    114020.06510763
  Solvation  Ediel_sol  =         0.00000000
  ---------------------------------------------------
  free energy    TOTEN  =      -327.75449718 eV

  energy without entropy =     -327.75449718  energy(sigma->0) =     -327.75449718


--------------------------------------------------------------------------------------------------------




--------------------------------------- Iteration      1(  11)  ---------------------------------------


    POTLOK:  cpu time    0.1438: real time    0.1460
    SETDIJ:  cpu time    0.0130: real time    0.0131
     EDDAV:  cpu time  148.7474: real time  149.7505
 BZINTS: Fermi energy:  5.010398;688.000000 electrons
         Band energy:***********;  BLOECHL correction:  0.000000
       DOS:  cpu time    0.0064: real time    0.0064
    CHARGE:  cpu time    1.3935: real time    1.4031
    MIXING:  cpu time    0.0016: real time    0.0016
    --------------------------------------------
      LOOP:  cpu time  150.3058: real time  151.3208

 eigenvalue-minimisations  : 21504
 total energy-change (2. order) :-0.1598700E+00  (-0.1423900E+00)
 number of electron     688.0000426 magnetization       0.0000000
 augmentation part      282.3829990 magnetization       0.0000000

 Broyden mixing:
  rms(total) = 0.30775E+00    rms(broyden)= 0.30774E+00
  rms(prec ) = 0.31672E+00
  weight for this iteration     100.00

 eigenvalues of (default mixing * dielectric matrix)
  average eigenvalue GAMMA=   1.0744
  2.0587  2.0587  0.7277  0.6408  0.6408  0.3198

 Free energy of the ion-electron system (eV)
  ---------------------------------------------------
  alpha Z        PSCENC =      2356.13102817
  Ewald energy   TEWEN  =    -62468.29050371
  -Hartree energ DENC   =    -42940.33291660
  -exchange      EXHF   =         0.00000000
  -V(xc)+E(xc)   XCENC  =      3286.39814456
  PAW double counting   =    113308.28055503  -117000.73941367
  entropy T*S    EENTRO =         0.00000000
  eigenvalues    EBANDS =    -10889.42636855
  atomic energy  EATOM  =    114020.06510763
  Solvation  Ediel_sol  =         0.00000000
  ---------------------------------------------------
  free energy    TOTEN  =      -327.91436715 eV

  energy without entropy =     -327.91436715  energy(sigma->0) =     -327.91436715


--------------------------------------------------------------------------------------------------------




--------------------------------------- Iteration      1(  12)  ---------------------------------------


    POTLOK:  cpu time    0.1410: real time    0.1457
    SETDIJ:  cpu time    0.0133: real time    0.0134
     EDDAV:  cpu time  140.8699: real time  141.8311
 BZINTS: Fermi energy:  5.011819;688.000000 electrons
         Band energy:***********;  BLOECHL correction:  0.000000
       DOS:  cpu time    0.0064: real time    0.0065
    CHARGE:  cpu time    1.3892: real time    1.3990
    MIXING:  cpu time    0.0017: real time    0.0017
    --------------------------------------------
      LOOP:  cpu time  142.4215: real time  143.3974

 eigenvalue-minimisations  : 21248
 total energy-change (2. order) :-0.1149391E+00  (-0.3649518E-01)
 number of electron     688.0000426 magnetization       0.0000000
 augmentation part      282.2357271 magnetization       0.0000000

 Broyden mixing:
  rms(total) = 0.17311E+00    rms(broyden)= 0.17311E+00
  rms(prec ) = 0.19659E+00
  weight for this iteration     100.00

 eigenvalues of (default mixing * dielectric matrix)
  average eigenvalue GAMMA=   1.1028
  2.2136  2.2136  1.0683  0.3205  0.6158  0.6158  0.6715

 Free energy of the ion-electron system (eV)
  ---------------------------------------------------
  alpha Z        PSCENC =      2356.13102817
  Ewald energy   TEWEN  =    -62468.29050371
  -Hartree energ DENC   =    -42954.21178936
  -exchange      EXHF   =         0.00000000
  -V(xc)+E(xc)   XCENC  =      3286.58810841
  PAW double counting   =    112656.69615320  -116350.95471642
  entropy T*S    EENTRO =         0.00000000
  eigenvalues    EBANDS =    -10874.05269414
  atomic energy  EATOM  =    114020.06510763
  Solvation  Ediel_sol  =         0.00000000
  ---------------------------------------------------
  free energy    TOTEN  =      -328.02930623 eV

  energy without entropy =     -328.02930623  energy(sigma->0) =     -328.02930623


--------------------------------------------------------------------------------------------------------




--------------------------------------- Iteration      1(  13)  ---------------------------------------


    POTLOK:  cpu time    0.1395: real time    0.1431
    SETDIJ:  cpu time    0.0131: real time    0.0132
     EDDAV:  cpu time  159.7497: real time  160.8082
 BZINTS: Fermi energy:  4.998904;688.000000 electrons
         Band energy:***********;  BLOECHL correction:  0.000000
       DOS:  cpu time    0.0064: real time    0.0065
    CHARGE:  cpu time    1.3890: real time    1.3984
    MIXING:  cpu time    0.0018: real time    0.0018
    --------------------------------------------
      LOOP:  cpu time  161.2995: real time  162.3711

 eigenvalue-minimisations  : 22528
 total energy-change (2. order) :-0.3370491E-01  (-0.1951541E-01)
 number of electron     688.0000426 magnetization       0.0000000
 augmentation part      282.2324054 magnetization       0.0000000

 Broyden mixing:
  rms(total) = 0.78993E-01    rms(broyden)= 0.78985E-01
  rms(prec ) = 0.85365E-01
  weight for this iteration     100.00

 eigenvalues of (default mixing * dielectric matrix)
  average eigenvalue GAMMA=   1.1237
  2.2596  2.2596  1.4177  0.3205  0.8474  0.6132  0.6132  0.6581

 Free energy of the ion-electron system (eV)
  ---------------------------------------------------
  alpha Z        PSCENC =      2356.13102817
  Ewald energy   TEWEN  =    -62468.29050371
  -Hartree energ DENC   =    -42950.91033062
  -exchange      EXHF   =         0.00000000
  -V(xc)+E(xc)   XCENC  =      3286.40743553
  PAW double counting   =    112363.88672187  -116057.82065175
  entropy T*S    EENTRO =         0.00000000
  eigenvalues    EBANDS =    -10877.53181827
  atomic energy  EATOM  =    114020.06510763
  Solvation  Ediel_sol  =         0.00000000
  ---------------------------------------------------
  free energy    TOTEN  =      -328.06301115 eV

  energy without entropy =     -328.06301115  energy(sigma->0) =     -328.06301115


--------------------------------------------------------------------------------------------------------




--------------------------------------- Iteration      1(  14)  ---------------------------------------


    POTLOK:  cpu time    0.1420: real time    0.1442
    SETDIJ:  cpu time    0.0131: real time    0.0131
     EDDAV:  cpu time  100.1787: real time  100.9056
 BZINTS: Fermi energy:  4.997694;688.000000 electrons
         Band energy:***********;  BLOECHL correction:  0.000000
       DOS:  cpu time    0.0064: real time    0.0065
    CHARGE:  cpu time    1.3912: real time    1.4008
    MIXING:  cpu time    0.0018: real time    0.0018
    --------------------------------------------
      LOOP:  cpu time  101.7332: real time  102.4719

 eigenvalue-minimisations  : 17408
 total energy-change (2. order) :-0.1638438E-01  (-0.3688318E-02)
 number of electron     688.0000426 magnetization      -0.0000000
 augmentation part      282.1971810 magnetization      -0.0000000

 Broyden mixing:
  rms(total) = 0.43973E-01    rms(broyden)= 0.43970E-01
  rms(prec ) = 0.48097E-01
  weight for this iteration     100.00

 eigenvalues of (default mixing * dielectric matrix)
  average eigenvalue GAMMA=   1.1923
  2.3886  2.3886  1.8776  1.1618  0.3205  0.6270  0.6270  0.7000  0.6393

 Free energy of the ion-electron system (eV)
  ---------------------------------------------------
  alpha Z        PSCENC =      2356.13102817
  Ewald energy   TEWEN  =    -62468.29050371
  -Hartree energ DENC   =    -42953.72766177
  -exchange      EXHF   =         0.00000000
  -V(xc)+E(xc)   XCENC  =      3286.53709875
  PAW double counting   =    112296.99335755  -115991.19895276
  entropy T*S    EENTRO =         0.00000000
  eigenvalues    EBANDS =    -10874.58886938
  atomic energy  EATOM  =    114020.06510763
  Solvation  Ediel_sol  =         0.00000000
  ---------------------------------------------------
  free energy    TOTEN  =      -328.07939553 eV

  energy without entropy =     -328.07939553  energy(sigma->0) =     -328.07939553


--------------------------------------------------------------------------------------------------------




--------------------------------------- Iteration      1(  15)  ---------------------------------------


    POTLOK:  cpu time    0.1403: real time    0.1427
    SETDIJ:  cpu time    0.0129: real time    0.0130
     EDDAV:  cpu time  162.3027: real time  163.3767
 BZINTS: Fermi energy:  4.995050;688.000000 electrons
         Band energy:***********;  BLOECHL correction:  0.000000
       DOS:  cpu time    0.0065: real time    0.0065
    CHARGE:  cpu time    1.3912: real time    1.4008
    MIXING:  cpu time    0.0019: real time    0.0019
    --------------------------------------------
      LOOP:  cpu time  163.8555: real time  164.9416

 eigenvalue-minimisations  : 22528
 total energy-change (2. order) :-0.7427462E-02  (-0.2608302E-02)
 number of electron     688.0000426 magnetization       0.0000000
 augmentation part      282.2109193 magnetization       0.0000000

 Broyden mixing:
  rms(total) = 0.23571E-01    rms(broyden)= 0.23568E-01
  rms(prec ) = 0.25457E-01
  weight for this iteration     100.00

 eigenvalues of (default mixing * dielectric matrix)
  average eigenvalue GAMMA=   1.2067
  2.9697  2.1326  2.0146  1.0126  1.0126  0.3205  0.6233  0.6233  0.7132  0.6449

 Free energy of the ion-electron system (eV)
  ---------------------------------------------------
  alpha Z        PSCENC =      2356.13102817
  Ewald energy   TEWEN  =    -62468.29050371
  -Hartree energ DENC   =    -42953.95209946
  -exchange      EXHF   =         0.00000000
  -V(xc)+E(xc)   XCENC  =      3286.56739084
  PAW double counting   =    112272.79318127  -115966.96181551
  entropy T*S    EENTRO =         0.00000000
  eigenvalues    EBANDS =    -10874.43911221
  atomic energy  EATOM  =    114020.06510763
  Solvation  Ediel_sol  =         0.00000000
  ---------------------------------------------------
  free energy    TOTEN  =      -328.08682299 eV

  energy without entropy =     -328.08682299  energy(sigma->0) =     -328.08682299


--------------------------------------------------------------------------------------------------------




--------------------------------------- Iteration      1(  16)  ---------------------------------------


    POTLOK:  cpu time    0.1436: real time    0.1447
    SETDIJ:  cpu time    0.0131: real time    0.0132
     EDDAV:  cpu time  146.6001: real time  147.6094
 BZINTS: Fermi energy:  4.992016;688.000000 electrons
         Band energy:***********;  BLOECHL correction:  0.000000
       DOS:  cpu time    0.0065: real time    0.0065
    CHARGE:  cpu time    1.3905: real time    1.4001
    MIXING:  cpu time    0.0020: real time    0.0148
    --------------------------------------------
      LOOP:  cpu time  148.1557: real time  149.1887

 eigenvalue-minimisations  : 22528
 total energy-change (2. order) :-0.2973470E-02  (-0.1185919E-02)
 number of electron     688.0000426 magnetization       0.0000000
 augmentation part      282.2260696 magnetization       0.0000000

 Broyden mixing:
  rms(total) = 0.16135E-01    rms(broyden)= 0.16132E-01
  rms(prec ) = 0.17301E-01
  weight for this iteration     100.00

 eigenvalues of (default mixing * dielectric matrix)
  average eigenvalue GAMMA=   1.2358
  3.2583  2.1183  2.1183  1.2145  1.2145  0.3205  0.6205  0.6205  0.7348  0.7348
  0.6387

 Free energy of the ion-electron system (eV)
  ---------------------------------------------------
  alpha Z        PSCENC =      2356.13102817
  Ewald energy   TEWEN  =    -62468.29050371
  -Hartree energ DENC   =    -42952.92142140
  -exchange      EXHF   =         0.00000000
  -V(xc)+E(xc)   XCENC  =      3286.52247908
  PAW double counting   =    112257.35325363  -115951.39553036
  entropy T*S    EENTRO =         0.00000000
  eigenvalues    EBANDS =    -10875.55420949
  atomic energy  EATOM  =    114020.06510763
  Solvation  Ediel_sol  =         0.00000000
  ---------------------------------------------------
  free energy    TOTEN  =      -328.08979646 eV

  energy without entropy =     -328.08979646  energy(sigma->0) =     -328.08979646


--------------------------------------------------------------------------------------------------------




--------------------------------------- Iteration      1(  17)  ---------------------------------------


    POTLOK:  cpu time    0.1439: real time    0.1449
    SETDIJ:  cpu time    0.0131: real time    0.0132
     EDDAV:  cpu time  168.6595: real time  169.7785
 BZINTS: Fermi energy:  4.992010;688.000000 electrons
         Band energy:***********;  BLOECHL correction:  0.000000
       DOS:  cpu time    0.0064: real time    0.0065
    CHARGE:  cpu time    1.3897: real time    1.3992
    MIXING:  cpu time    0.0019: real time    0.0019
    --------------------------------------------
      LOOP:  cpu time  170.2147: real time  171.3441

 eigenvalue-minimisations  : 22016
 total energy-change (2. order) :-0.9793996E-03  (-0.3229420E-03)
 number of electron     688.0000426 magnetization       0.0000000
 augmentation part      282.2163347 magnetization       0.0000000

 Broyden mixing:
  rms(total) = 0.10930E-01    rms(broyden)= 0.10929E-01
  rms(prec ) = 0.12043E-01
  weight for this iteration     100.00

 eigenvalues of (default mixing * dielectric matrix)
  average eigenvalue GAMMA=   1.3396
  3.8528  2.3500  2.3500  1.6783  1.2680  0.3205  0.8518  0.8518  0.6229  0.6229
  0.6850  0.6213

 Free energy of the ion-electron system (eV)
  ---------------------------------------------------
  alpha Z        PSCENC =      2356.13102817
  Ewald energy   TEWEN  =    -62468.29050371
  -Hartree energ DENC   =    -42953.48682301
  -exchange      EXHF   =         0.00000000
  -V(xc)+E(xc)   XCENC  =      3286.53149085
  PAW double counting   =    112270.72921191  -115964.80212776
  entropy T*S    EENTRO =         0.00000000
  eigenvalues    EBANDS =    -10874.96815993
  atomic energy  EATOM  =    114020.06510763
  Solvation  Ediel_sol  =         0.00000000
  ---------------------------------------------------
  free energy    TOTEN  =      -328.09077586 eV

  energy without entropy =     -328.09077586  energy(sigma->0) =     -328.09077586


--------------------------------------------------------------------------------------------------------




--------------------------------------- Iteration      1(  18)  ---------------------------------------


    POTLOK:  cpu time    0.1433: real time    0.1454
    SETDIJ:  cpu time    0.0132: real time    0.0132
     EDDAV:  cpu time  122.2251: real time  123.0769
 BZINTS: Fermi energy:  4.992119;688.000000 electrons
         Band energy:***********;  BLOECHL correction:  0.000000
       DOS:  cpu time    0.0064: real time    0.0065
    CHARGE:  cpu time    1.3918: real time    1.4014
    MIXING:  cpu time    0.0020: real time    0.0020
    --------------------------------------------
      LOOP:  cpu time  123.7818: real time  124.6455

 eigenvalue-minimisations  : 19456
 total energy-change (2. order) :-0.3969440E-03  (-0.2856126E-03)
 number of electron     688.0000426 magnetization       0.0000000
 augmentation part      282.2167413 magnetization       0.0000000

 Broyden mixing:
  rms(total) = 0.35097E-02    rms(broyden)= 0.35072E-02
  rms(prec ) = 0.38249E-02
  weight for this iteration     100.00

 eigenvalues of (default mixing * dielectric matrix)
  average eigenvalue GAMMA=   1.3355
  4.2738  2.3896  2.3896  1.7649  0.3205  1.0840  0.9321  0.9321  0.6215  0.6215
  0.7509  0.6406  0.6406

 Free energy of the ion-electron system (eV)
  ---------------------------------------------------
  alpha Z        PSCENC =      2356.13102817
  Ewald energy   TEWEN  =    -62468.29050371
  -Hartree energ DENC   =    -42953.59167763
  -exchange      EXHF   =         0.00000000
  -V(xc)+E(xc)   XCENC  =      3286.53733029
  PAW double counting   =    112288.30882112  -115982.31567681
  entropy T*S    EENTRO =         0.00000000
  eigenvalues    EBANDS =    -10874.93560186
  atomic energy  EATOM  =    114020.06510763
  Solvation  Ediel_sol  =         0.00000000
  ---------------------------------------------------
  free energy    TOTEN  =      -328.09117281 eV

  energy without entropy =     -328.09117281  energy(sigma->0) =     -328.09117281


--------------------------------------------------------------------------------------------------------




--------------------------------------- Iteration      1(  19)  ---------------------------------------


    POTLOK:  cpu time    0.1422: real time    0.1434
    SETDIJ:  cpu time    0.0129: real time    0.0130
     EDDAV:  cpu time  147.5274: real time  148.5055
 BZINTS: Fermi energy:  4.992029;688.000000 electrons
         Band energy:***********;  BLOECHL correction:  0.000000
       DOS:  cpu time    0.0064: real time    0.0064
    CHARGE:  cpu time    1.3912: real time    1.4008
    MIXING:  cpu time    0.0023: real time    0.0023
    --------------------------------------------
      LOOP:  cpu time  149.0824: real time  150.0715

 eigenvalue-minimisations  : 21248
 total energy-change (2. order) :-0.4085428E-04  (-0.2617044E-04)
 number of electron     688.0000426 magnetization       0.0000000
 augmentation part      282.2206606 magnetization       0.0000000

 Broyden mixing:
[...]
   -.419E+02 0.665E+01 -.338E+00   0.428E+02 -.669E+01 0.339E+00   -.864E+00 0.371E-01 -.281E-02   -.106E-04 0.300E-04 0.605E-05
   -.419E+02 0.665E+01 -.338E+00   0.428E+02 -.669E+01 0.339E+00   -.864E+00 0.371E-01 -.281E-02   -.106E-04 0.300E-04 0.605E-05
   -.419E+02 0.665E+01 -.338E+00   0.428E+02 -.669E+01 0.339E+00   -.864E+00 0.371E-01 -.281E-02   -.106E-04 0.300E-04 0.605E-05
   -.419E+02 0.665E+01 -.338E+00   0.428E+02 -.669E+01 0.339E+00   -.864E+00 0.371E-01 -.281E-02   -.106E-04 0.300E-04 0.605E-05
   0.419E+02 0.665E+01 0.338E+00   -.428E+02 -.669E+01 -.339E+00   0.864E+00 0.371E-01 0.281E-02   0.106E-04 0.300E-04 -.605E-05
   0.419E+02 0.665E+01 0.338E+00   -.428E+02 -.669E+01 -.339E+00   0.864E+00 0.371E-01 0.281E-02   0.106E-04 0.300E-04 -.605E-05
   0.419E+02 0.665E+01 0.338E+00   -.428E+02 -.669E+01 -.339E+00   0.864E+00 0.371E-01 0.281E-02   0.106E-04 0.300E-04 -.605E-05
   0.419E+02 0.665E+01 0.338E+00   -.428E+02 -.669E+01 -.339E+00   0.864E+00 0.371E-01 0.281E-02   0.106E-04 0.300E-04 -.605E-05
   0.567E-07 -.381E+02 0.201E-06   -.110E-12 0.389E+02 -.142E-13   -.113E-25 -.833E+00 0.000E+00   0.380E-10 0.222E-04 -.163E-09
   0.567E-07 -.381E+02 0.201E-06   -.117E-12 0.389E+02 -.160E-13   0.141E-24 -.833E+00 0.620E-24   -.469E-10 0.222E-04 0.163E-09
   0.567E-07 -.381E+02 0.201E-06   -.114E-12 0.389E+02 0.284E-13   0.424E-24 -.833E+00 -.310E-24   0.381E-10 0.222E-04 -.163E-09
   0.567E-07 -.381E+02 0.201E-06   -.121E-12 0.389E+02 0.568E-13   0.477E-24 -.833E+00 0.207E-24   -.469E-10 0.222E-04 0.163E-09
   0.942E-08 0.468E+02 -.112E-06   0.284E-13 -.476E+02 0.417E-13   -.711E-25 0.894E+00 0.207E-24   0.856E-08 0.560E-04 -.747E-10
   0.942E-08 0.468E+02 -.112E-06   0.568E-13 -.476E+02 0.533E-13   0.527E-24 0.894E+00 -.165E-23   -.855E-08 0.560E-04 0.741E-10
   0.942E-08 0.468E+02 -.112E-06   0.426E-13 -.476E+02 0.178E-13   -.567E-24 0.894E+00 0.207E-24   0.856E-08 0.560E-04 -.748E-10
   0.942E-08 0.468E+02 -.112E-06   0.568E-13 -.476E+02 0.284E-13   -.743E-25 0.894E+00 -.186E-23   -.855E-08 0.560E-04 0.739E-10
   0.986E+00 -.601E+01 0.107E+01   -.975E+00 0.578E+01 -.109E+01   -.745E-02 0.239E+00 0.166E-01   0.123E-04 -.141E-04 -.690E-05
   0.986E+00 -.601E+01 0.107E+01   -.975E+00 0.578E+01 -.109E+01   -.745E-02 0.239E+00 0.166E-01   0.122E-04 -.141E-04 -.690E-05
   0.986E+00 -.601E+01 0.107E+01   -.975E+00 0.578E+01 -.109E+01   -.745E-02 0.239E+00 0.166E-01   0.123E-04 -.141E-04 -.690E-05
   0.986E+00 -.601E+01 0.107E+01   -.975E+00 0.578E+01 -.109E+01   -.745E-02 0.239E+00 0.166E-01   0.122E-04 -.141E-04 -.689E-05
   -.986E+00 -.601E+01 -.107E+01   0.975E+00 0.578E+01 0.109E+01   0.745E-02 0.239E+00 -.166E-01   -.122E-04 -.141E-04 0.690E-05
   -.986E+00 -.601E+01 -.107E+01   0.975E+00 0.578E+01 0.109E+01   0.745E-02 0.239E+00 -.166E-01   -.123E-04 -.141E-04 0.690E-05
   -.986E+00 -.601E+01 -.107E+01   0.975E+00 0.578E+01 0.109E+01   0.745E-02 0.239E+00 -.166E-01   -.122E-04 -.141E-04 0.690E-05
   -.986E+00 -.601E+01 -.107E+01   0.975E+00 0.578E+01 0.109E+01   0.745E-02 0.239E+00 -.166E-01   -.123E-04 -.141E-04 0.690E-05
   0.986E+00 -.601E+01 0.107E+01   -.975E+00 0.578E+01 -.109E+01   -.745E-02 0.239E+00 0.166E-01   0.123E-04 -.141E-04 -.689E-05
   0.986E+00 -.601E+01 0.107E+01   -.975E+00 0.578E+01 -.109E+01   -.745E-02 0.239E+00 0.166E-01   0.122E-04 -.141E-04 -.690E-05
   0.986E+00 -.601E+01 0.107E+01   -.975E+00 0.578E+01 -.109E+01   -.745E-02 0.239E+00 0.166E-01   0.123E-04 -.141E-04 -.689E-05
   0.986E+00 -.601E+01 0.107E+01   -.975E+00 0.578E+01 -.109E+01   -.745E-02 0.239E+00 0.166E-01   0.122E-04 -.141E-04 -.690E-05
   -.986E+00 -.601E+01 -.107E+01   0.975E+00 0.578E+01 0.109E+01   0.745E-02 0.239E+00 -.166E-01   -.122E-04 -.141E-04 0.689E-05
   -.986E+00 -.601E+01 -.107E+01   0.975E+00 0.578E+01 0.109E+01   0.745E-02 0.239E+00 -.166E-01   -.123E-04 -.141E-04 0.690E-05
   -.986E+00 -.601E+01 -.107E+01   0.975E+00 0.578E+01 0.109E+01   0.745E-02 0.239E+00 -.166E-01   -.122E-04 -.141E-04 0.689E-05
   -.986E+00 -.601E+01 -.107E+01   0.975E+00 0.578E+01 0.109E+01   0.745E-02 0.239E+00 -.166E-01   -.123E-04 -.141E-04 0.690E-05
   -.160E+01 -.558E+01 0.110E+01   0.157E+01 0.528E+01 -.113E+01   0.269E-01 0.310E+00 0.142E-01   0.249E-04 0.313E-04 0.288E-04
   -.160E+01 -.558E+01 0.110E+01   0.157E+01 0.528E+01 -.113E+01   0.269E-01 0.310E+00 0.142E-01   0.249E-04 0.313E-04 0.288E-04
   -.160E+01 -.558E+01 0.110E+01   0.157E+01 0.528E+01 -.113E+01   0.269E-01 0.310E+00 0.142E-01   0.249E-04 0.312E-04 0.288E-04
   -.160E+01 -.558E+01 0.110E+01   0.157E+01 0.528E+01 -.113E+01   0.269E-01 0.310E+00 0.142E-01   0.249E-04 0.312E-04 0.288E-04
   0.160E+01 -.558E+01 -.110E+01   -.157E+01 0.528E+01 0.113E+01   -.269E-01 0.310E+00 -.142E-01   -.249E-04 0.313E-04 -.288E-04
   0.160E+01 -.558E+01 -.110E+01   -.157E+01 0.528E+01 0.113E+01   -.269E-01 0.310E+00 -.142E-01   -.249E-04 0.313E-04 -.288E-04
   0.160E+01 -.558E+01 -.110E+01   -.157E+01 0.528E+01 0.113E+01   -.269E-01 0.310E+00 -.142E-01   -.249E-04 0.312E-04 -.288E-04
   0.160E+01 -.558E+01 -.110E+01   -.157E+01 0.528E+01 0.113E+01   -.269E-01 0.310E+00 -.142E-01   -.249E-04 0.312E-04 -.288E-04
   -.160E+01 -.558E+01 0.110E+01   0.157E+01 0.528E+01 -.113E+01   0.269E-01 0.310E+00 0.142E-01   0.249E-04 0.313E-04 0.288E-04
   -.160E+01 -.558E+01 0.110E+01   0.157E+01 0.528E+01 -.113E+01   0.269E-01 0.310E+00 0.142E-01   0.249E-04 0.313E-04 0.288E-04
   -.160E+01 -.558E+01 0.110E+01   0.157E+01 0.528E+01 -.113E+01   0.269E-01 0.310E+00 0.142E-01   0.249E-04 0.312E-04 0.288E-04
   -.160E+01 -.558E+01 0.110E+01   0.157E+01 0.528E+01 -.113E+01   0.269E-01 0.310E+00 0.142E-01   0.249E-04 0.312E-04 0.288E-04
   0.160E+01 -.558E+01 -.110E+01   -.157E+01 0.528E+01 0.113E+01   -.269E-01 0.310E+00 -.142E-01   -.249E-04 0.313E-04 -.288E-04
   0.160E+01 -.558E+01 -.110E+01   -.157E+01 0.528E+01 0.113E+01   -.269E-01 0.310E+00 -.142E-01   -.249E-04 0.313E-04 -.288E-04
   0.160E+01 -.558E+01 -.110E+01   -.157E+01 0.528E+01 0.113E+01   -.269E-01 0.310E+00 -.142E-01   -.249E-04 0.312E-04 -.288E-04
   0.160E+01 -.558E+01 -.110E+01   -.157E+01 0.528E+01 0.113E+01   -.269E-01 0.310E+00 -.142E-01   -.249E-04 0.312E-04 -.288E-04
 -----------------------------------------------------------------------------------------------
   -.662E-06 -.988E+01 0.295E-03   0.206E-12 -.114E-12 0.593E-12   0.272E-14 0.986E+01 -.278E-16   0.148E-11 0.138E-02 0.110E-10
 
 
 POSITION                                       TOTAL-FORCE (eV/Angst)
 -----------------------------------------------------------------------------------
      1.33833      1.30278      1.31413         0.000773     -0.005981      0.001116
      6.59430      1.30278      1.35995         0.000773     -0.005981      0.001116
      1.33833      6.56239      1.31413         0.000773     -0.005981      0.001116
      6.59430      6.56239      1.35995         0.000773     -0.005981      0.001116
      3.94032      3.93259      1.33342        -0.000773     -0.005981     -0.001116
      9.19629      3.93259      1.37925        -0.000773     -0.005981     -0.001116
      3.94032      9.19220      1.33342        -0.000773     -0.005981     -0.001116
      9.19629      9.19220      1.37925        -0.000773     -0.005981     -0.001116
      1.39339      3.92675      9.11749        -0.000000     -0.003708      0.000000
      6.64935      3.92675      9.16331        -0.000000     -0.003708      0.000000
      1.39339      9.18636      9.11749        -0.000000     -0.003708      0.000000
      6.64935      9.18636      9.16331        -0.000000     -0.003708      0.000000
      4.02137      1.31934      9.14040        -0.000000     -0.002690      0.000000
      9.27734      1.31934      9.18623        -0.000000     -0.002690      0.000000
      4.02137      6.57895      9.14040        -0.000000     -0.002690      0.000000
      9.27734      6.57895      9.18623        -0.000000     -0.002690      0.000000
      1.35771      1.30278      6.51395        -0.000773     -0.005981     -0.001116
      6.61367      1.30278      6.55978        -0.000773     -0.005981     -0.001116
      1.35771      6.56239      6.51395        -0.000773     -0.005981     -0.001116
      6.61367      6.56239      6.55978        -0.000773     -0.005981     -0.001116
      4.01168      3.93259      6.54049         0.000773     -0.005981      0.001116
      9.26765      3.93259      6.58631         0.000773     -0.005981      0.001116
      4.01168      9.19220      6.54049         0.000773     -0.005981      0.001116
      9.26765      9.19220      6.58631         0.000773     -0.005981      0.001116
      3.97600      1.29695      3.93695        -0.000000     -0.003708      0.000000
      9.23197      1.29695      3.98278        -0.000000     -0.003708      0.000000
      3.97600      6.55656      3.93695        -0.000000     -0.003708      0.000000
      9.23197      6.55656      3.98278        -0.000000     -0.003708      0.000000
      1.34802      3.94915      3.91404        -0.000000     -0.002690      0.000000
      6.60398      3.94915      3.95987        -0.000000     -0.002690      0.000000
      1.34802      9.20876      3.91404        -0.000000     -0.002690      0.000000
      6.60398      9.20876      3.95987        -0.000000     -0.002690      0.000000
     10.55216      0.00943      5.29517         0.003559      0.004721     -0.006710
      5.29620      0.00943      5.24934         0.003559      0.004721     -0.006710
     10.55216      5.26904      5.29517         0.003559      0.004721     -0.006710
      5.29620      5.26904      5.24934         0.003559      0.004721     -0.006710
      2.65581      0.00943      2.62457        -0.003559      0.004721      0.006710
      7.91177      0.00943      2.67039        -0.003559      0.004721      0.006710
      2.65581      5.26904      2.62457        -0.003559      0.004721      0.006710
      7.91177      5.26904      2.67039        -0.003559      0.004721      0.006710
      2.62284      2.63923      0.02298         0.003559      0.004721     -0.006710
      7.87881      2.63923      0.06881         0.003559      0.004721     -0.006710
      2.62284      7.89884      0.02298         0.003559      0.004721     -0.006710
      7.87881      7.89884      0.06881         0.003559      0.004721     -0.006710
      0.07319      2.63923      7.80510        -0.003559      0.004721      0.006710
      5.32916      2.63923      7.85093        -0.003559      0.004721      0.006710
      0.07319      7.89884      7.80510        -0.003559      0.004721      0.006710
      5.32916      7.89884      7.85093        -0.003559      0.004721      0.006710
     10.50866      0.00945      0.09393         0.005197      0.004459     -0.014587
      5.25270      0.00945      0.04811         0.005197      0.004459     -0.014587
     10.50866      5.26906      0.09393         0.005197      0.004459     -0.014587
      5.25270      5.26906      0.04811         0.005197      0.004459     -0.014587
      2.69931      0.00945      7.82580        -0.005197      0.004459      0.014587
      7.95527      0.00945      7.87163        -0.005197      0.004459      0.014587
      2.69931      5.26906      7.82580        -0.005197      0.004459      0.014587
      7.95527      5.26906      7.87163        -0.005197      0.004459      0.014587
      2.67008      2.63925      5.22864         0.005197      0.004459     -0.014587
      7.92605      2.63925      5.27447         0.005197      0.004459     -0.014587
      2.67008      7.89886      5.22864         0.005197      0.004459     -0.014587
      7.92605      7.89886      5.27447         0.005197      0.004459     -0.014587
      0.02595      2.63925      2.59944        -0.005197      0.004459      0.014587
      5.28192      2.63925      2.64527        -0.005197      0.004459      0.014587
      0.02595      7.89886      2.59944        -0.005197      0.004459      0.014587
      5.28192      7.89886      2.64527        -0.005197      0.004459      0.014587
 -----------------------------------------------------------------------------------
    total drift:                               -0.000001     -0.017057      0.000295


--------------------------------------------------------------------------------------------------------



  FREE ENERGIE OF THE ION-ELECTRON SYSTEM (eV)
  ---------------------------------------------------
  free  energy   TOTEN  =      -328.09122969 eV

  energy  without entropy=     -328.09122969  energy(sigma->0) =     -328.09122969
 


--------------------------------------------------------------------------------------------------------


    POTLOK:  cpu time    0.1563: real time    0.1571


--------------------------------------------------------------------------------------------------------


 writing wavefunctions
     LOOP+:  cpu time 3812.8250: real time 3839.5068
    4ORBIT:  cpu time    0.0000: real time    0.0000
 


 total charge     
 
# of ion       s       p       d       tot
------------------------------------------
    1        1.313   2.411   0.000   3.724
    2        1.313   2.411   0.000   3.724
    3        1.313   2.411   0.000   3.724
    4        1.313   2.411   0.000   3.724
    5        1.313   2.411   0.000   3.724
    6        1.313   2.411   0.000   3.724
    7        1.313   2.411   0.000   3.724
    8        1.313   2.411   0.000   3.724
    9        1.314   2.409   0.000   3.723
   10        1.314   2.409   0.000   3.723
   11        1.314   2.409   0.000   3.723
   12        1.314   2.409   0.000   3.723
   13        1.313   2.411   0.000   3.724
   14        1.313   2.411   0.000   3.724
   15        1.313   2.411   0.000   3.724
   16        1.313   2.411   0.000   3.724
   17        1.313   2.411   0.000   3.724
   18        1.313   2.411   0.000   3.724
   19        1.313   2.411   0.000   3.724
   20        1.313   2.411   0.000   3.724
   21        1.313   2.411   0.000   3.724
   22        1.313   2.411   0.000   3.724
   23        1.313   2.411   0.000   3.724
   24        1.313   2.411   0.000   3.724
   25        1.314   2.409   0.000   3.723
   26        1.314   2.409   0.000   3.723
   27        1.314   2.409   0.000   3.723
   28        1.314   2.409   0.000   3.723
   29        1.313   2.411   0.000   3.724
   30        1.313   2.411   0.000   3.724
   31        1.313   2.411   0.000   3.724
   32        1.313   2.411   0.000   3.724
   33        0.260   6.202   8.917  15.378
   34        0.260   6.202   8.917  15.378
   35        0.260   6.202   8.917  15.378
   36        0.260   6.202   8.917  15.378
   37        0.260   6.202   8.917  15.378
   38        0.260   6.202   8.917  15.378
   39        0.260   6.202   8.917  15.378
   40        0.260   6.202   8.917  15.378
   41        0.260   6.202   8.917  15.378
   42        0.260   6.202   8.917  15.378
   43        0.260   6.202   8.917  15.378
   44        0.260   6.202   8.917  15.378
   45        0.260   6.202   8.917  15.378
   46        0.260   6.202   8.917  15.378
   47        0.260   6.202   8.917  15.378
   48        0.260   6.202   8.917  15.378
   49        0.350   6.351   5.820  12.521
   50        0.350   6.351   5.820  12.521
   51        0.350   6.351   5.820  12.521
   52        0.350   6.351   5.820  12.521
   53        0.350   6.351   5.820  12.521
   54        0.350   6.351   5.820  12.521
   55        0.350   6.351   5.820  12.521
   56        0.350   6.351   5.820  12.521
   57        0.350   6.351   5.820  12.521
   58        0.350   6.351   5.820  12.521
   59        0.350   6.351   5.820  12.521
   60        0.350   6.351   5.820  12.521
   61        0.350   6.351   5.820  12.521
   62        0.350   6.351   5.820  12.521
   63        0.350   6.351   5.820  12.521
   64        0.350   6.351   5.820  12.521
--------------------------------------------------
tot         51.791 277.982 235.784 565.557
 


 magnetization (x)
 
# of ion       s       p       d       tot
------------------------------------------
    1       -0.000  -0.004   0.000  -0.004
    2       -0.000  -0.004   0.000  -0.004
    3       -0.000  -0.004   0.000  -0.004
    4       -0.000  -0.004   0.000  -0.004
    5        0.000   0.004   0.000   0.004
    6        0.000   0.004   0.000   0.004
    7        0.000   0.004   0.000   0.004
    8        0.000   0.004   0.000   0.004
    9       -0.000   0.000   0.000   0.000
   10       -0.000   0.000   0.000   0.000
   11       -0.000   0.000   0.000   0.000
   12       -0.000   0.000   0.000   0.000
   13        0.000   0.000   0.000   0.000
   14        0.000   0.000   0.000   0.000
   15        0.000   0.000   0.000   0.000
   16        0.000   0.000   0.000   0.000
   17        0.000   0.004   0.000   0.004
   18        0.000   0.004   0.000   0.004
   19        0.000   0.004   0.000   0.004
   20        0.000   0.004   0.000   0.004
   21       -0.000  -0.004   0.000  -0.004
   22       -0.000  -0.004   0.000  -0.004
   23       -0.000  -0.004   0.000  -0.004
   24       -0.000  -0.004   0.000  -0.004
   25       -0.000   0.000   0.000   0.000
   26        0.000   0.000   0.000   0.000
   27        0.000   0.000   0.000   0.000
   28        0.000   0.000   0.000   0.000
   29        0.000   0.000   0.000   0.000
   30        0.000   0.000   0.000   0.000
   31        0.000   0.000   0.000   0.000
   32        0.000   0.000   0.000   0.000
   33        0.000   0.000  -0.001  -0.000
   34        0.000   0.000  -0.001  -0.000
   35        0.000   0.000  -0.001  -0.000
   36        0.000   0.000  -0.001  -0.000
   37       -0.000  -0.000   0.001   0.000
   38       -0.000  -0.000   0.001   0.000
   39       -0.000  -0.000   0.001   0.000
   40       -0.000  -0.000   0.001   0.000
   41        0.000   0.000  -0.001  -0.000
   42        0.000   0.000  -0.001  -0.000
   43        0.000   0.000  -0.001  -0.000
   44        0.000   0.000  -0.001  -0.000
   45       -0.000  -0.000   0.001   0.000
   46       -0.000  -0.000   0.001   0.000
   47       -0.000  -0.000   0.001   0.000
   48       -0.000  -0.000   0.001   0.000
   49        0.020   0.054   3.671   3.744
   50        0.020   0.054   3.671   3.744
   51        0.020   0.054   3.671   3.744
   52        0.020   0.054   3.671   3.744
   53       -0.020  -0.054  -3.671  -3.744
   54       -0.020  -0.054  -3.671  -3.744
   55       -0.020  -0.054  -3.671  -3.744
   56       -0.020  -0.054  -3.671  -3.744
   57        0.020   0.054   3.671   3.744
   58        0.020   0.054   3.671   3.744
   59        0.020   0.054   3.671   3.744
   60        0.020   0.054   3.671   3.744
   61       -0.020  -0.054  -3.671  -3.744
   62       -0.020  -0.054  -3.671  -3.744
   63       -0.020  -0.054  -3.671  -3.744
   64       -0.020  -0.054  -3.671  -3.744
--------------------------------------------------
tot          0.000   0.000   0.000   0.000
 
 BZINTS: Fermi energy:  4.992022;688.000000 electrons
         Band energy:***********;  BLOECHL correction:  0.000000

 total amount of memory used by VASP MPI-rank0   349631. kBytes
=======================================================================

   base      :      30000. kBytes
   nonl-proj :     217907. kBytes
   fftplans  :       4588. kBytes
   grid      :      69719. kBytes
   one-center:       1990. kBytes
   wavefun   :      25427. kBytes
 
  
  
 General timing and accounting informations for this job:
 ========================================================
  
                  Total CPU time used (sec):     3873.809
                            User time (sec):     3861.781
                          System time (sec):       12.029
                         Elapsed time (sec):     3909.766
  
                   Maximum memory used (kb):      707184.
                   Average memory used (kb):           0.
  
                          Minor page faults:       699360
                          Major page faults:         6132
                 Voluntary context switches:         7522
