       N       E                     dE             d eps       ncg     rms          rms(c)
DAV:   1     0.604388316703E+04    0.60439E+04   -0.51711E+05 16384   0.197E+03
DAV:   2    -0.937916214290E+02   -0.61377E+04   -0.60285E+04 18688   0.446E+02
DAV:   3    -0.335075778831E+03   -0.24128E+03   -0.24056E+03 21504   0.963E+01
DAV:   4    -0.338488547359E+03   -0.34128E+01   -0.34126E+01 20992   0.116E+01
DAV:   5    -0.338593257398E+03   -0.10471E+00   -0.10471E+00 20224   0.197E+00    0.255E+01
DAV:   6    -0.330289183010E+03    0.83041E+01   -0.88929E+00 26624   0.103E+01    0.140E+01
DAV:   7    -0.327992904382E+03    0.22963E+01   -0.60530E+00 20736   0.737E+00    0.949E+00
DAV:   8    -0.327628728700E+03    0.36418E+00   -0.37772E+00 26880   0.505E+00    0.531E+00
DAV:   9    -0.327562541099E+03    0.66188E-01   -0.24331E+00 22016   0.408E+00    0.412E+00
DAV:  10    -0.327531867029E+03    0.30674E-01   -0.45057E-01 21760   0.208E+00    0.156E+00
DAV:  11    -0.327540217927E+03   -0.83509E-02   -0.73932E-02 23296   0.684E-01    0.730E-01
DAV:  12    -0.327545829030E+03   -0.56111E-02   -0.22048E-02 22272   0.300E-01    0.290E-01
DAV:  13    -0.327546879470E+03   -0.10504E-02   -0.26436E-03 19456   0.106E-01    0.150E-01
DAV:  14    -0.327547344070E+03   -0.46460E-03   -0.11013E-03 21760   0.418E-02    0.874E-02
DAV:  15    -0.327547644253E+03   -0.30018E-03   -0.86186E-04 19200   0.303E-02    0.410E-02
DAV:  16    -0.327547717972E+03   -0.73719E-04   -0.18485E-04 20992   0.161E-02    0.268E-02
DAV:  17    -0.327547768008E+03   -0.50036E-04   -0.25965E-04 19456   0.152E-02    0.137E-02
DAV:  18    -0.327547775733E+03   -0.77254E-05   -0.55200E-05 21248   0.807E-03    0.664E-03
DAV:  19    -0.327547776341E+03   -0.60802E-06   -0.24504E-06 19712   0.228E-03    0.529E-03
DAV:  20    -0.327547776668E+03   -0.32662E-06   -0.22390E-06 23040   0.186E-03    0.205E-03
DAV:  21    -0.327547776795E+03   -0.12672E-06   -0.58192E-07 20224   0.990E-04    0.136E-03
DAV:  22    -0.327547776847E+03   -0.52067E-07   -0.48761E-08 21504   0.292E-04    0.842E-04
DAV:  23    -0.327547776881E+03   -0.34372E-07   -0.23600E-08 17152   0.190E-04    0.285E-04
DAV:  24    -0.327547776899E+03   -0.17957E-07   -0.16590E-08 14848   0.140E-04    0.248E-04
DAV:  25    -0.327547776900E+03   -0.94587E-09   -0.34528E-09 15360   0.827E-05
   1 F= -.32754778E+03 E0= -.32754778E+03  d E =0.000000E+00  mag=     0.0000
