 vasp.5.4.4.18Apr17-6-g9f103f2a35 (build Oct 30 2023 17:30:16) complex          
  
 executed on             LinuxIFC date 2024.06.30  05:40:50
 running on  256 total cores
 distrk:  each k-point on  256 cores,    1 groups
 distr:  one band on NCORES_PER_BAND=   1 cores,  256 groups


--------------------------------------------------------------------------------------------------------


 INCAR:
 POTCAR:    PAW_PBE S 06Sep2000                   
 POTCAR:     PAW_PBE Cu_pv 06Sep2000              
 POTCAR:     PAW_PBE Fe_pv 02Aug2007              

 ----------------------------------------------------------------------------- 
|                                                                             |
|           W    W    AA    RRRRR   N    N  II  N    N   GGGG   !!!           |
|           W    W   A  A   R    R  NN   N  II  NN   N  G    G  !!!           |
|           W    W  A    A  R    R  N N  N  II  N N  N  G       !!!           |
|           W WW W  AAAAAA  RRRRR   N  N N  II  N  N N  G  GGG   !            |
|           WW  WW  A    A  R   R   N   NN  II  N   NN  G    G                |
|           W    W  A    A  R    R  N    N  II  N    N   GGGG   !!!           |
|                                                                             |
|      For optimal performance we recommend to set                            |
|        NCORE= 4 - approx SQRT( number of cores)                             |
|      NCORE specifies how many cores store one orbital (NPAR=cpu/NCORE).     |
|      This setting can  greatly improve the performance of VASP for DFT.     |
|      The default,   NCORE=1            might be grossly inefficient         |
|      on modern multi-core architectures or massively parallel machines.     |
|      Do your own testing !!!!                                               |
|      Unfortunately you need to use the default for GW and RPA calculations. |
|      (for HF NCORE is supported but not extensively tested yet)             |
|                                                                             |
 ----------------------------------------------------------------------------- 

 POTCAR:    PAW_PBE S 06Sep2000                   
   SHA256 =  0fc7481fb0695f01bdc6462160264c5c84044ae9ec85a907d398b887a2bc3132 S/
   COPYR  = (c) Copyright 06Sep2000 Georg Kresse                                
   COPYR  = This file is part of the software VASP. Any use, copying, and all ot
   COPYR  = If you do not have a valid VASP license, you may not use, copy or di
   VRHFIN =S : s2p4                                                             
   LEXCH  = PE                                                                  
   EATOM  =   276.8230 eV,   20.3459 Ry                                         
                                                                                
   TITEL  = PAW_PBE S 06Sep2000                                                 
   LULTRA =        F    use ultrasoft PP ?                                      
   IUNSCR =        1    unscreen: 0-lin 1-nonlin 2-no                           
   RPACOR =    1.500    partial core radius                                     
   POMASS =   32.066; ZVAL   =    6.000    mass and valenz                      
   RCORE  =    1.900    outmost cutoff radius                                   
   RWIGS  =    2.200; RWIGS  =    1.164    wigner-seitz radius (au A)           
   ENMAX  =  258.689; ENMIN  =  194.016 eV                                      
   ICORE  =        2    local potential                                         
   LCOR   =        T    correct aug charges                                     
   LPAW   =        T    paw PP                                                  
   EAUG   =  335.092                                                            
   DEXC   =    0.000                                                            
   RMAX   =    1.942    core radius for proj-oper                               
   RAUG   =    1.300    factor for augmentation sphere                          
   RDEP   =    1.954    radius for radial grids                                 
   RDEPT  =    1.744    core radius for aug-charge                              
                                                                                
   Atomic configuration                                                         
    6 entries                                                                   
     n  l   j            E        occ.                                          
     1  0  0.50     -2405.8406   2.0000                                         
     2  0  0.50      -211.7007   2.0000                                         
     2  1  1.50      -156.4958   6.0000                                         
     3  0  0.50       -17.2562   2.0000                                         
     3  1  0.50        -7.0085   4.0000                                         
     3  2  1.50        -6.8029   0.0000                                         
   Description                                                                  
     l       E           TYP  RCUT    TYP  RCUT                                 
     0    -17.2561641     23  1.900                                             
     0    -15.8743224     23  1.900                                             
     1     -7.0085400     23  1.900                                             
     1     -2.7779785     23  1.900                                             
     2     -6.8029130     23  1.900                                             
  local pseudopotential read in
  partial core-charges read in
  partial kinetic energy density read in
  atomic valenz-charges read in
  non local Contribution for L=           0  read in
    real space projection operators read in
  non local Contribution for L=           0  read in
    real space projection operators read in
  non local Contribution for L=           1  read in
    real space projection operators read in
  non local Contribution for L=           1  read in
    real space projection operators read in
    PAW grid and wavefunctions read in
 
   number of l-projection  operators is LMAX  =           4
   number of lm-projection operators is LMMAX =           8
 
 POTCAR:     PAW_PBE Cu_pv 06Sep2000              
   SHA256 =  cb7b504e2ea725fe1f25c85a9ac77d4012ce94cd394135b722c4e25ec297f1cb Cu
   COPYR  = (c) Copyright 06Sep2000 Georg Kresse                                
   COPYR  = This file is part of the software VASP. Any use, copying, and all ot
   COPYR  = If you do not have a valid VASP license, you may not use, copy or di
   VRHFIN =Cu: d10 p1                                                           
   LEXCH  = PE                                                                  
   EATOM  =  4120.1201 eV,  302.8203 Ry                                         
                                                                                
   TITEL  = PAW_PBE Cu_pv 06Sep2000                                             
   LULTRA =        F    use ultrasoft PP ?                                      
   IUNSCR =        1    unscreen: 0-lin 1-nonlin 2-no                           
   RPACOR =    1.500    partial core radius                                     
   POMASS =   63.546; ZVAL   =   17.000    mass and valenz                      
   RCORE  =    2.000    outmost cutoff radius                                   
   RWIGS  =    2.000; RWIGS  =    1.058    wigner-seitz radius (au A)           
   ENMAX  =  368.648; ENMIN  =  276.486 eV                                      
   RCLOC  =    1.304    cutoff for local pot                                    
   LCOR   =        T    correct aug charges                                     
   LPAW   =        T    paw PP                                                  
   EAUG   =  758.233                                                            
   DEXC   =    0.000                                                            
   RMAX   =    2.046    core radius for proj-oper                               
   RAUG   =    1.300    factor for augmentation sphere                          
   RDEP   =    2.025    radius for radial grids                                 
   RDEPT  =    1.558    core radius for aug-charge                              
                                                                                
   Atomic configuration                                                         
    8 entries                                                                   
     n  l   j            E        occ.                                          
     1  0  0.50     -8850.2467   2.0000                                         
     2  0  0.50     -1062.3498   2.0000                                         
     2  1  1.50      -916.8226   6.0000                                         
     3  0  0.50      -114.6929   2.0000                                         
     3  1  1.50       -72.1325   6.0000                                         
     3  2  2.50        -5.0394  10.0000                                         
     4  0  0.50        -4.6097   1.0000                                         
     4  3  2.50        -1.3606   0.0000                                         
   Description                                                                  
     l       E           TYP  RCUT    TYP  RCUT                                 
     1    -72.1324777     23  1.700                                             
     1     -1.3605826     23  1.700                                             
     2     -5.0393776     23  2.000                                             
     2     -6.3999602     23  2.000                                             
     0     -4.6097062     23  1.800                                             
     0     14.1620818     23  1.800                                             
  local pseudopotential read in
  partial core-charges read in
  partial kinetic energy density read in
  atomic valenz-charges read in
  non local Contribution for L=           1  read in
    real space projection operators read in
  non local Contribution for L=           1  read in
    real space projection operators read in
  non local Contribution for L=           2  read in
    real space projection operators read in
  non local Contribution for L=           2  read in
    real space projection operators read in
  non local Contribution for L=           0  read in
    real space projection operators read in
  non local Contribution for L=           0  read in
    real space projection operators read in
    PAW grid and wavefunctions read in
 
   number of l-projection  operators is LMAX  =           6
   number of lm-projection operators is LMMAX =          18
 
 POTCAR:     PAW_PBE Fe_pv 02Aug2007              
   SHA256 =  5d22e414b1f82158bf2c7ecb8b97b28fd0923e48cadc1c3bf74d524558f5dd32 Fe
   COPYR  = (c) Copyright 02Aug2007 Georg Kresse                                
   COPYR  = This file is part of the software VASP. Any use, copying, and all ot
   COPYR  = If you do not have a valid VASP license, you may not use, copy or di
   VRHFIN =Fe:  3pd7s1                                                          
   LEXCH  = PE                                                                  
   EATOM  =  2457.4239 eV,  180.6156 Ry                                         
                                                                                
   TITEL  = PAW_PBE Fe_pv 02Aug2007                                             
   LULTRA =        F    use ultrasoft PP ?                                      
   IUNSCR =        1    unscreen: 0-lin 1-nonlin 2-no                           
   RPACOR =    1.750    partial core radius                                     
   POMASS =   55.847; ZVAL   =   14.000    mass and valenz                      
   RCORE  =    2.200    outmost cutoff radius                                   
   RWIGS  =    2.200; RWIGS  =    1.164    wigner-seitz radius (au A)           
   ENMAX  =  293.238; ENMIN  =  219.928 eV                                      
   ICORE  =        3    local potential                                         
   LCOR   =        T    correct aug charges                                     
   LPAW   =        T    paw PP                                                  
   EAUG   =  578.342                                                            
   DEXC   =    0.000                                                            
   RMAX   =    2.249    core radius for proj-oper                               
   RAUG   =    1.300    factor for augmentation sphere                          
   RDEP   =    2.296    radius for radial grids                                 
   RDEPT  =    1.766    core radius for aug-charge                              
                                                                                
   Atomic configuration                                                         
    8 entries                                                                   
     n  l   j            E        occ.                                          
     1  0  0.50     -6993.8440   2.0000                                         
     2  0  0.50      -814.6047   2.0000                                         
     2  1  1.50      -693.3689   6.0000                                         
     3  0  0.50       -89.4732   2.0000                                         
     3  1  1.50       -55.6373   6.0000                                         
     3  2  2.50        -3.8151   7.0000                                         
     4  0  0.50        -4.2551   1.0000                                         
     4  3  2.50        -1.3606   0.0000                                         
   Description                                                                  
     l       E           TYP  RCUT    TYP  RCUT                                 
     1    -55.6372668     23  2.000                                             
     1     -5.4423304     23  2.000                                             
     2     -3.8151096     23  2.200                                             
     2     -5.1756922     23  2.200                                             
     0     -4.2550951     23  2.200                                             
     0     27.2116520     23  2.200                                             
     3     -1.3605826     23  2.200                                             
  local pseudopotential read in
  partial core-charges read in
  partial kinetic energy density read in
  atomic valenz-charges read in
  non local Contribution for L=           1  read in
    real space projection operators read in
  non local Contribution for L=           1  read in
    real space projection operators read in
  non local Contribution for L=           2  read in
    real space projection operators read in
  non local Contribution for L=           2  read in
    real space projection operators read in
  non local Contribution for L=           0  read in
    real space projection operators read in
  non local Contribution for L=           0  read in
    real space projection operators read in
    PAW grid and wavefunctions read in
 
   number of l-projection  operators is LMAX  =           6
   number of lm-projection operators is LMMAX =          18
 

 ----------------------------------------------------------------------------- 
|                                                                             |
|  ADVICE TO THIS USER RUNNING 'VASP/VAMP'   (HEAR YOUR MASTER'S VOICE ...):  |
|                                                                             |
|      You have a (more or less) 'large supercell' and for larger cells       |
|      it might be more efficient to use real space projection opertators     |
|      So try LREAL= Auto  in the INCAR   file.                               |
|      Mind:          For very  accurate calculation you might also keep the  |
|      reciprocal projection scheme          (i.e. LREAL=.FALSE.)             |
|                                                                             |
 ----------------------------------------------------------------------------- 


 ----------------------------------------------------------------------------- 
|                                                                             |
|  ADVICE TO THIS USER RUNNING 'VASP/VAMP'   (HEAR YOUR MASTER'S VOICE ...):  |
|                                                                             |
|      You enforced a specific xc-type in the INCAR file,                     |
|      a different type was found on the POTCAR file                          |
|          I HOPE YOU KNOW, WHAT YOU ARE  DOING                               |
|                                                                             |
 ----------------------------------------------------------------------------- 

  PAW_PBE S 06Sep2000                   :
 energy of atom  1       EATOM= -276.8230
 kinetic energy error for atom=    0.0007 (will be added to EATOM!!)
   PAW_PBE Cu_pv 06Sep2000              :
 energy of atom  2       EATOM=-4120.1201
 kinetic energy error for atom=    0.0094 (will be added to EATOM!!)
   PAW_PBE Fe_pv 02Aug2007              :
 energy of atom  3       EATOM=-2457.4239
 kinetic energy error for atom=    0.0025 (will be added to EATOM!!)
 
 
 POSCAR: Fe16 Cu16 S32                           
  positions in direct lattice
  No initial velocities read in
 exchange correlation table for  LEXCH =       14
   RHO(1)=    0.500       N(1)  =     2000
   RHO(2)=  100.500       N(2)  =     4000
 


--------------------------------------------------------------------------------------------------------


 ion  position               nearest neighbor table
   1  0.126  0.124  0.125-  41 2.26  37 2.26  61 2.27  49 2.28
   2  0.626  0.124  0.125-  42 2.26  38 2.26  62 2.27  50 2.28
   3  0.126  0.624  0.125-  43 2.26  39 2.26  63 2.27  51 2.28
   4  0.626  0.624  0.125-  44 2.26  40 2.26  64 2.27  52 2.28
   5  0.374  0.374  0.125-  39 2.26  41 2.26  52 2.27  62 2.28
   6  0.874  0.374  0.125-  40 2.26  42 2.26  51 2.27  61 2.28
   7  0.374  0.874  0.125-  37 2.26  43 2.26  50 2.27  64 2.28
   8  0.874  0.874  0.125-  38 2.26  44 2.26  49 2.27  63 2.28
   9  0.125  0.373  0.875-  41 2.26  45 2.26  51 2.28  55 2.28
  10  0.625  0.373  0.875-  42 2.26  46 2.26  52 2.28  56 2.28
  11  0.125  0.873  0.875-  43 2.26  47 2.26  49 2.28  53 2.28
  12  0.625  0.873  0.875-  44 2.26  48 2.26  50 2.28  54 2.28
  13  0.375  0.126  0.875-  41 2.26  46 2.26  50 2.28  53 2.28
  14  0.875  0.126  0.875-  42 2.26  45 2.26  49 2.28  54 2.28
  15  0.375  0.626  0.875-  43 2.26  48 2.26  52 2.28  55 2.28
  16  0.875  0.626  0.875-  44 2.26  47 2.26  51 2.28  56 2.28
  17  0.124  0.124  0.625-  45 2.26  33 2.26  57 2.27  53 2.28
  18  0.624  0.124  0.625-  46 2.26  34 2.26  58 2.27  54 2.28
  19  0.124  0.624  0.625-  47 2.26  35 2.26  59 2.27  55 2.28
  20  0.624  0.624  0.625-  48 2.26  36 2.26  60 2.27  56 2.28
  21  0.376  0.374  0.625-  36 2.26  46 2.26  55 2.27  57 2.28
  22  0.876  0.374  0.625-  35 2.26  45 2.26  56 2.27  58 2.28
  23  0.376  0.874  0.625-  34 2.26  48 2.26  53 2.27  59 2.28
  24  0.876  0.874  0.625-  33 2.26  47 2.26  54 2.27  60 2.28
  25  0.375  0.123  0.375-  34 2.26  37 2.26  57 2.28  62 2.28
  26  0.875  0.123  0.375-  33 2.26  38 2.26  58 2.28  61 2.28
  27  0.375  0.623  0.375-  36 2.26  39 2.26  59 2.28  64 2.28
  28  0.875  0.623  0.375-  35 2.26  40 2.26  60 2.28  63 2.28
  29  0.125  0.376  0.375-  35 2.26  39 2.26  57 2.28  61 2.28
  30  0.625  0.376  0.375-  36 2.26  40 2.26  58 2.28  62 2.28
  31  0.125  0.876  0.375-  33 2.26  37 2.26  59 2.28  63 2.28
  32  0.625  0.876  0.375-  34 2.26  38 2.26  60 2.28  64 2.28
  33  1.000  0.000  0.500-  24 2.26  31 2.26  26 2.26  17 2.26
  34  0.500  0.000  0.500-  23 2.26  32 2.26  25 2.26  18 2.26
  35  1.000  0.500  0.500-  22 2.26  29 2.26  28 2.26  19 2.26
  36  0.500  0.500  0.500-  21 2.26  30 2.26  27 2.26  20 2.26
  37  0.250  0.000  0.250-   7 2.26  31 2.26  25 2.26   1 2.26
  38  0.750  0.000  0.250-   8 2.26  32 2.26  26 2.26   2 2.26
  39  0.250  0.500  0.250-   5 2.26  29 2.26  27 2.26   3 2.26
  40  0.750  0.500  0.250-   6 2.26  30 2.26  28 2.26   4 2.26
  41  0.250  0.250  0.000-   1 2.26  13 2.26   9 2.26   5 2.26
  42  0.750  0.250  0.000-   2 2.26  14 2.26  10 2.26   6 2.26
  43  0.250  0.750  0.000-   3 2.26  15 2.26  11 2.26   7 2.26
  44  0.750  0.750  0.000-   4 2.26  16 2.26  12 2.26   8 2.26
  45  0.000  0.250  0.750-  17 2.26  14 2.26   9 2.26  22 2.26
  46  0.500  0.250  0.750-  18 2.26  13 2.26  10 2.26  21 2.26
  47  0.000  0.750  0.750-  19 2.26  16 2.26  11 2.26  24 2.26
  48  0.500  0.750  0.750-  20 2.26  15 2.26  12 2.26  23 2.26
  49  1.000  0.000  0.000-   8 2.27  11 2.28  14 2.28   1 2.28
  50  0.500  0.000  0.000-   7 2.27  12 2.28  13 2.28   2 2.28
  51  1.000  0.500  0.000-   6 2.27   9 2.28  16 2.28   3 2.28
  52  0.500  0.500  0.000-   5 2.27  10 2.28  15 2.28   4 2.28
  53  0.250  0.000  0.750-  23 2.27  11 2.28  13 2.28  17 2.28
  54  0.750  0.000  0.750-  24 2.27  12 2.28  14 2.28  18 2.28
  55  0.250  0.500  0.750-  21 2.27   9 2.28  15 2.28  19 2.28
  56  0.750  0.500  0.750-  22 2.27  10 2.28  16 2.28  20 2.28
  57  0.250  0.250  0.500-  17 2.27  25 2.28  29 2.28  21 2.28
  58  0.750  0.250  0.500-  18 2.27  26 2.28  30 2.28  22 2.28
  59  0.250  0.750  0.500-  19 2.27  27 2.28  31 2.28  23 2.28
  60  0.750  0.750  0.500-  20 2.27  28 2.28  32 2.28  24 2.28
  61  0.000  0.250  0.250-   1 2.27  26 2.28  29 2.28   6 2.28
  62  0.500  0.250  0.250-   2 2.27  25 2.28  30 2.28   5 2.28
  63  0.000  0.750  0.250-   3 2.27  28 2.28  31 2.28   8 2.28
  64  0.500  0.750  0.250-   4 2.27  27 2.28  32 2.28   7 2.28
 
  LATTYP: Found a simple monoclinic cell.
 ALAT       =    14.8607960825
 B/A-ratio  =     0.7076739322
 C/A-ratio  =     1.5750372117
 COS(beta)  =    -0.9491980125
  
  Lattice vectors:
  
 A1 = ( -10.5603460000,   0.0000000000, -10.4557330000)
 A2 = (   0.0000000000, -10.5165980000,   0.0000000000)
 A3 = (  10.6057580000,   0.0000000000,  20.8655960000)


Analysis of symmetry for initial positions (statically):
=====================================================================
 Subroutine PRICEL returns following result:
 
  LATTYP: Found a base centered monoclinic cell.
 ALAT       =    11.6212645870
 B/A-ratio  =     0.4524721867
 C/A-ratio  =     0.8957684402
 COS(beta)  =    -0.8125176917
  
  Lattice vectors:
  
 A1 = (  -2.6060275000,  -2.6291495000,   5.1934640000)
 A2 = (  -2.6060275000,   2.6291495000,   5.1934640000)
 A3 = (  -0.0454120000,   0.0000000000, -10.4098630000)
 
   8 primitive cells build up your supercell.
 

 Routine SETGRP: Setting up the symmetry group for a 
 simple monoclinic supercell.


 Subroutine GETGRP returns: Found  2 space group operations
 (whereof  1 operations were pure point group operations)
 out of a pool of  4 trial point group operations.


The static configuration has the point symmetry C_1 .
 The point group associated with its full space group is C_2 .


Analysis of symmetry for dynamics (positions and initial velocities):
=====================================================================
 Subroutine PRICEL returns following result:
 
  LATTYP: Found a base centered monoclinic cell.
 ALAT       =    11.6212645870
 B/A-ratio  =     0.4524721867
 C/A-ratio  =     0.8957684402
 COS(beta)  =    -0.8125176917
  
  Lattice vectors:
  
 A1 = (  -2.6060275000,  -2.6291495000,   5.1934640000)
 A2 = (  -2.6060275000,   2.6291495000,   5.1934640000)
 A3 = (  -0.0454120000,   0.0000000000, -10.4098630000)
 
   8 primitive cells build up your supercell.
 

 Routine SETGRP: Setting up the symmetry group for a 
 simple monoclinic supercell.


 Subroutine GETGRP returns: Found  2 space group operations
 (whereof  1 operations were pure point group operations)
 out of a pool of  4 trial point group operations.


The dynamic configuration has the point symmetry C_1 .
 The point group associated with its full space group is C_2 .


Analysis of structural, dynamic, and magnetic symmetry:
=====================================================================
 Subroutine PRICEL returns following result:
 
  LATTYP: Found a base centered monoclinic cell.
 ALAT       =    11.6212645870
 B/A-ratio  =     0.4524721867
 C/A-ratio  =     0.8957684402
 COS(beta)  =    -0.8125176917
  
  Lattice vectors:
  
 A1 = (  -2.6060275000,  -2.6291495000,   5.1934640000)
 A2 = (  -2.6060275000,   2.6291495000,   5.1934640000)
 A3 = (  -0.0454120000,   0.0000000000, -10.4098630000)
 
   8 primitive cells build up your supercell.
 

 Routine SETGRP: Setting up the symmetry group for a 
 simple monoclinic supercell.


 Subroutine GETGRP returns: Found  2 space group operations
 (whereof  1 operations were pure point group operations)
 out of a pool of  4 trial point group operations.


The magnetic configuration has the point symmetry C_1 .
 The point group associated with its full space group is C_2 .


 Subroutine INISYM returns: Found  2 space group operations
 (whereof  1 operations are pure point group operations),
 and found     8 'primitive' translations

 
 
 KPOINTS: Automatic mesh                          

Automatic generation of k-mesh.
Space group operators:
 irot       det(A)        alpha          n_x          n_y          n_z        tau_x        tau_y        tau_z
    1     1.000000     0.000001     1.000000     0.000000     0.000000     0.000000     0.000000     0.000000
    2     1.000000   179.999999     0.000000     1.000000     0.000000    -0.250000    -0.000000    -0.250000
 
 Subroutine IBZKPT returns following result:
 ===========================================
 
 Found      8 irreducible k-points:
 
 Following reciprocal coordinates:
            Coordinates               Weight
  0.000000  0.000000  0.000000      1.000000
  0.500000  0.000000  0.000000      1.000000
  0.000000  0.500000  0.000000      1.000000
  0.500000  0.500000  0.000000      1.000000
 -0.000000  0.000000  0.500000      1.000000
  0.500000  0.000000  0.500000      1.000000
 -0.000000  0.500000  0.500000      1.000000
  0.500000  0.500000  0.500000      1.000000
 
 Following cartesian coordinates:
            Coordinates               Weight
  0.000000  0.000000  0.000000      1.000000
  0.047552  0.000000 -0.000207      1.000000
  0.000000  0.047544  0.000000      1.000000
  0.047552  0.047544 -0.000207      1.000000
 -0.000210  0.000000  0.048032      1.000000
  0.047343  0.000000  0.047825      1.000000
 -0.000210  0.047544  0.048032      1.000000
  0.047343  0.047544  0.047825      1.000000
 
 TETIRR: Found     24 inequivalent tetrahedra from       48
 
 Subroutine IBZKPT_HF returns following result:
 ==============================================
 
 Found      8 k-points in 1st BZ
 the following      8 k-points will be used (e.g. in the exchange kernel)
 Following reciprocal coordinates:   # in IRBZ
  0.000000  0.000000  0.000000    0.12500000   1 t-inv F
  0.500000  0.000000  0.000000    0.12500000   2 t-inv F
  0.000000  0.500000  0.000000    0.12500000   3 t-inv F
  0.500000  0.500000  0.000000    0.12500000   4 t-inv F
 -0.000000  0.000000  0.500000    0.12500000   5 t-inv F
  0.500000  0.000000  0.500000    0.12500000   6 t-inv F
 -0.000000  0.500000  0.500000    0.12500000   7 t-inv F
  0.500000  0.500000  0.500000    0.12500000   8 t-inv F


--------------------------------------------------------------------------------------------------------




 Dimension of arrays:
   k-points           NKPTS =      8   k-points in BZ     NKDIM =      8   number of bands    NBANDS=    512
   number of dos      NEDOS =    301   number of ions     NIONS =     64
   non local maximal  LDIM  =      6   non local SUM 2l+1 LMDIM =     18
   total plane-waves  NPLWV = 829440
   max r-space proj   IRMAX =      1   max aug-charges    IRDMAX=  22898
   dimension x,y,z NGX =    96 NGY =   96 NGZ =   90
   dimension x,y,z NGXF=   192 NGYF=  192 NGZF=  180
   support grid    NGXF=   192 NGYF=  192 NGZF=  180
   ions per type =              32  16  16
   NGX,Y,Z   is equivalent  to a cutoff of  15.18, 15.18, 14.37 a.u.
   NGXF,Y,Z  is equivalent  to a cutoff of  30.36, 30.35, 28.75 a.u.

 SYSTEM =  CuFeS2                                  
 POSCAR =  Fe16 Cu16 S32                           

 Startparameter for this run:
   NWRITE =      2    write-flag & timer
   PREC   = accura    normal or accurate (medium, high low for compatibility)
   ISTART =      0    job   : 0-new  1-cont  2-samecut
   ICHARG =      1    charge: 1-file 2-atom 10-const
   ISPIN  =      2    spin polarized calculation?
   LNONCOLLINEAR =      F non collinear calculations
   LSORBIT =      F    spin-orbit coupling
   INIWAV =      1    electr: 0-lowe 1-rand  2-diag
   LASPH  =      F    aspherical Exc in radial PAW
   METAGGA=      F    non-selfconsistent MetaGGA calc.

 Electronic Relaxation 1
   ENCUT  =  700.0 eV  51.45 Ry    7.17 a.u.  22.68 22.69 22.46*2*pi/ulx,y,z
   ENINI  =  700.0     initial cutoff
   ENAUG  =  758.2 eV  augmentation charge cutoff
   NELM   =    500;   NELMIN=  2; NELMDL=  0     # of ELM steps 
   EDIFF  = 0.1E-07   stopping-criterion for ELM
   LREAL  =      F    real-space projection
   NLSPLINE    = F    spline interpolate recip. space projectors
   LCOMPAT=      F    compatible to vasp.4.4
   GGA_COMPAT  = T    GGA compatible to vasp.4.4-vasp.4.6
   LMAXPAW     = -100 max onsite density
   LMAXMIX     =    4 max onsite mixed and CHGCAR
   VOSKOWN=      0    Vosko Wilk Nusair interpolation
   ROPT   =    0.00000   0.00000   0.00000
 Ionic relaxation
   EDIFFG = -.1E-04   stopping-criterion for IOM
   NSW    =      0    number of steps for IOM
   NBLOCK =      1;   KBLOCK =      1    inner block; outer block 
   IBRION =     -1    ionic relax: 0-MD 1-quasi-New 2-CG
   NFREE  =      0    steps in history (QN), initial steepest desc. (CG)
   ISIF   =      2    stress and relaxation
   IWAVPR =     10    prediction:  0-non 1-charg 2-wave 3-comb
   ISYM   =      2    0-nonsym 1-usesym 2-fastsym
   LCORR  =      T    Harris-Foulkes like correction to forces

   POTIM  = 0.5000    time-step for ionic-motion
   TEIN   =    0.0    initial temperature
   TEBEG  =    0.0;   TEEND  =   0.0 temperature during run
   SMASS  =  -3.00    Nose mass-parameter (am)
   estimated Nose-frequenzy (Omega)   =  0.10E-29 period in steps =****** mass=  -0.253E-26a.u.
   SCALEE = 1.0000    scale energy and forces
   NPACO  =    256;   APACO  = 16.0  distance and # of slots for P.C.
   PSTRESS=    0.0 pullay stress

  Mass of Ions in am
   POMASS =  32.07 63.55 55.85
  Ionic Valenz
   ZVAL   =   6.00 17.00 14.00
  Atomic Wigner-Seitz radii
   RWIGS  =  -1.00 -1.00 -1.00
  virtual crystal weights 
   VCA    =   1.00  1.00  1.00
   NELECT =     688.0000    total number of electrons
   NUPDOWN=      -1.0000    fix difference up-down

 DOS related values:
   EMIN   =  10.00;   EMAX   =-10.00  energy-range for DOS
   EFERMI =   0.00
   ISMEAR =    -5;   SIGMA  =   0.03  broadening in eV -4-tet -1-fermi 0-gaus

 Electronic relaxation 2 (details)
   IALGO  =     38    algorithm
   LDIAG  =      T    sub-space diagonalisation (order eigenvalues)
   LSUBROT=      F    optimize rotation matrix (better conditioning)
   TURBO    =      0    0=normal 1=particle mesh
   IRESTART =      0    0=no restart 2=restart with 2 vectors
   NREBOOT  =      0    no. of reboots
   NMIN     =      0    reboot dimension
   EREF     =   0.00    reference energy to select bands
   IMIX   =      4    mixing-type and parameters
     AMIX     =   0.40;   BMIX     =  1.00
     AMIX_MAG =   1.60;   BMIX_MAG =  1.00
     AMIN     =   0.10
     WC   =   100.;   INIMIX=   1;  MIXPRE=   1;  MAXMIX= -45

 Intra band minimization:
   WEIMIN = 0.0000     energy-eigenvalue tresh-hold
   EBREAK =  0.49E-11  absolut break condition
   DEPER  =   0.30     relativ break condition  

   TIME   =   0.40     timestep for ELM

  volume/ion in A,a.u.               =      17.99       121.38
  Fermi-wavevector in a.u.,A,eV,Ry     =   1.379002  2.605935 25.873458  1.901646
  Thomas-Fermi vector in A             =   2.504011
 
 Write flags
   LWAVE        =      T    write WAVECAR
   LDOWNSAMPLE  =      F    k-point downsampling of WAVECAR
   LCHARG       =      T    write CHGCAR
   LVTOT        =      F    write LOCPOT, total local potential
   LVHAR        =      F    write LOCPOT, Hartree potential only
   LELF         =      F    write electronic localiz. function (ELF)
   LORBIT       =     11    0 simple, 1 ext, 2 COOP (PROOUT), +10 PAW based schemes


 Dipole corrections
   LMONO  =      F    monopole corrections only (constant potential shift)
   LDIPOL =      F    correct potential (dipole corrections)
   IDIPOL =      0    1-x, 2-y, 3-z, 4-all directions 
   EPSILON=  1.0000000 bulk dielectric constant

 LDA+U is selected, type is set to LDAUTYPE =  2
   angular momentum for each species LDAUL =     2    2    2
   U (eV)           for each species LDAUU =   0.0  0.1  4.7
   J (eV)           for each species LDAUJ =   0.0  0.0  0.0
 Exchange correlation treatment:
   GGA     =    PS    GGA type
   LEXCH   =    14    internal setting for exchange type
   VOSKOWN=      0    Vosko Wilk Nusair interpolation
   LHFCALC =     F    Hartree Fock is set to
   LHFONE  =     F    Hartree Fock one center treatment
   AEXX    =    0.0000 exact exchange contribution

 Linear response parameters
   LEPSILON=     F    determine dielectric tensor
   LRPA    =     F    only Hartree local field effects (RPA)
   LNABLA  =     F    use nabla operator in PAW spheres
   LVEL    =     F    velocity operator in full k-point grid
   LINTERFAST=   F  fast interpolation
   KINTER  =     0    interpolate to denser k-point grid
   CSHIFT  =0.1000    complex shift for real part using Kramers Kronig
   OMEGAMAX=  -1.0    maximum frequency
   DEG_THRESHOLD= 0.2000000E-02 threshold for treating states as degnerate
   RTIME   =   -0.100 relaxation time in fs
  (WPLASMAI=    0.000 imaginary part of plasma frequency in eV, 0.658/RTIME)
   DFIELD  = 0.0000000 0.0000000 0.0000000 field for delta impulse in time
 
 Orbital magnetization related:
   ORBITALMAG=     F  switch on orbital magnetization
   LCHIMAG   =     F  perturbation theory with respect to B field
   DQ        =  0.001000  dq finite difference perturbation B field
   LLRAUG    =     F  two centre corrections for induced B field

 PEAD related settings:
   LPEAD      =     T    switch on PEAD
   IPEAD      =     4    finite difference order for dpsi/dk
   LCALCPOL   =     T    calculate macroscopic polarization
   LCALCEPS   =     F    calculate dielectric tensor
   EFIELD_PEAD=    0.0000    0.0000    0.0000
   SKIP_EDOTP =     F
   LRPA       =     F
   SKIP_SCF   =     F


--------------------------------------------------------------------------------------------------------


 Static calculation
 charge density and potential will be updated during run
 spin polarized calculation
 Variant of blocked Davidson
 Davidson routine will perform the subspace rotation
 perform sub-space diagonalisation
    after iterative eigenvector-optimisation
 modified Broyden-mixing scheme, WC =      100.0
 initial mixing is a Kerker type mixing with AMIX =  0.4000 and BMIX =      1.0000
 Hartree-type preconditioning will be used
 using additional bands          168
 reciprocal scheme for non local part
 use partial core corrections
 calculate Harris-corrections to forces 
   (improved forces if not selfconsistent)
 use gradient corrections 
 use of overlap-Matrix (Vanderbilt PP)
 Fermi weights with tetrahedron method with Bloechl corrections


--------------------------------------------------------------------------------------------------------


  energy-cutoff  :      700.00
  volume of cell :     1151.11
      direct lattice vectors                 reciprocal lattice vectors
    10.514934000  0.000000000  0.045870000     0.095104642  0.000000000 -0.000414885
     0.000000000 10.516598000  0.000000000     0.000000000  0.095087784  0.000000000
     0.045412000  0.000000000 10.409863000    -0.000419069  0.000000000  0.096064572

  length of vectors
    10.515034050 10.516598000 10.409962052     0.095105547  0.095087784  0.096065486


 
 k-points in units of 2pi/SCALE and weight: Automatic mesh                          
   0.00000000  0.00000000  0.00000000       0.125
   0.04755232  0.00000000 -0.00020744       0.125
   0.00000000  0.04754389  0.00000000       0.125
   0.04755232  0.04754389 -0.00020744       0.125
  -0.00020953  0.00000000  0.04803229       0.125
   0.04734279  0.00000000  0.04782484       0.125
  -0.00020953  0.04754389  0.04803229       0.125
   0.04734279  0.04754389  0.04782484       0.125
 
 k-points in reciprocal lattice and weights: Automatic mesh                          
   0.00000000  0.00000000  0.00000000       0.125
   0.50000000  0.00000000  0.00000000       0.125
   0.00000000  0.50000000  0.00000000       0.125
   0.50000000  0.50000000  0.00000000       0.125
  -0.00000000  0.00000000  0.50000000       0.125
   0.50000000  0.00000000  0.50000000       0.125
  -0.00000000  0.50000000  0.50000000       0.125
   0.50000000  0.50000000  0.50000000       0.125
 
 position of ions in fractional coordinates (direct lattice) 
   0.12617300  0.12444400  0.12508600
   0.62617300  0.12444400  0.12508600
   0.12617300  0.62444400  0.12508600
   0.62617300  0.62444400  0.12508600
   0.37382700  0.37444400  0.12491400
   0.87382700  0.37444400  0.12491400
   0.37382700  0.87444400  0.12491400
   0.87382700  0.87444400  0.12491400
   0.12500000  0.37349800  0.87500000
   0.62500000  0.37349800  0.87500000
   0.12500000  0.87349800  0.87500000
   0.62500000  0.87349800  0.87500000
   0.37500000  0.12576600  0.87500000
   0.87500000  0.12576600  0.87500000
   0.37500000  0.62576600  0.87500000
   0.87500000  0.62576600  0.87500000
   0.12382700  0.12444400  0.62491400
   0.62382700  0.12444400  0.62491400
   0.12382700  0.62444400  0.62491400
   0.62382700  0.62444400  0.62491400
   0.37617300  0.37444400  0.62508600
   0.87617300  0.37444400  0.62508600
   0.37617300  0.87444400  0.62508600
   0.87617300  0.87444400  0.62508600
   0.37500000  0.12349800  0.37500000
   0.87500000  0.12349800  0.37500000
   0.37500000  0.62349800  0.37500000
   0.87500000  0.62349800  0.37500000
   0.12500000  0.37576600  0.37500000
   0.62500000  0.37576600  0.37500000
   0.12500000  0.87576600  0.37500000
   0.62500000  0.87576600  0.37500000
   0.99981200  0.00047100  0.50000100
   0.49981200  0.00047100  0.50000100
   0.99981200  0.50047100  0.50000100
   0.49981200  0.50047100  0.50000100
   0.25018800  0.00047100  0.24999900
   0.75018800  0.00047100  0.24999900
   0.25018800  0.50047100  0.24999900
   0.75018800  0.50047100  0.24999900
   0.24981200  0.25047100  0.00000100
   0.74981200  0.25047100  0.00000100
   0.24981200  0.75047100  0.00000100
   0.74981200  0.75047100  0.00000100
   0.00018800  0.25047100  0.74999900
   0.50018800  0.25047100  0.74999900
   0.00018800  0.75047100  0.74999900
   0.50018800  0.75047100  0.74999900
   0.99989800  0.00045300  0.00004400
   0.49989800  0.00045300  0.00004400
   0.99989800  0.50045300  0.00004400
   0.49989800  0.50045300  0.00004400
   0.25010200  0.00045300  0.74995600
   0.75010200  0.00045300  0.74995600
   0.25010200  0.50045300  0.74995600
   0.75010200  0.50045300  0.74995600
   0.24989800  0.25045300  0.50004400
   0.74989800  0.25045300  0.50004400
   0.24989800  0.75045300  0.50004400
   0.74989800  0.75045300  0.50004400
   0.00010200  0.25045300  0.24995600
   0.50010200  0.25045300  0.24995600
   0.00010200  0.75045300  0.24995600
   0.50010200  0.75045300  0.24995600
 
 position of ions in cartesian coordinates  (Angst):
   1.33238117  1.30872752  1.30791568
   6.58984817  1.30872752  1.33085068
   1.33238117  6.56702652  1.30791568
   6.58984817  6.56702652  1.33085068
   3.93643883  3.93787702  1.31748507
   9.19390583  3.93787702  1.34042007
   3.93643883  9.19617602  1.31748507
   9.19390583  9.19617602  1.34042007
   1.35410225  3.92792832  9.11436387
   6.61156925  3.92792832  9.13729887
   1.35410225  9.18622732  9.11436387
   6.61156925  9.18622732  9.13729887
   3.98283575  1.32263046  9.12583137
   9.24030275  1.32263046  9.14876637
   3.98283575  6.58092946  9.12583137
   9.24030275  6.58092946  9.14876637
   1.33041133  1.30872752  6.51094907
   6.58787833  1.30872752  6.53388407
   1.33041133  6.56702652  6.51094907
   6.58787833  6.56702652  6.53388407
   3.98382067  3.93787702  6.52431468
   9.24128767  3.93787702  6.54724968
   3.98382067  9.19617602  6.52431468
   9.24128767  9.19617602  6.54724968
   3.96012975  1.29877882  3.92089987
   9.21759675  1.29877882  3.94383487
   3.96012975  6.55707782  3.92089987
   9.21759675  6.55707782  3.94383487
   1.33139625  3.95177996  3.90943237
   6.58886325  3.95177996  3.93236737
   1.33139625  9.21007896  3.90943237
   6.58886325  9.21007896  3.93236737
  10.53566324  0.00495332  5.25080329
   5.27819624  0.00495332  5.22786829
  10.53566324  5.26325232  5.25080329
   5.27819624  5.26325232  5.22786829
   2.64206326  0.00495332  2.61393146
   7.89953026  0.00495332  2.63686646
   2.64206326  5.26325232  2.61393146
   7.89953026  5.26325232  2.63686646
   2.62675674  2.63410282  0.01146929
   7.88422374  2.63410282  0.03440429
   2.62675674  7.89240182  0.01146929
   7.88422374  7.89240182  0.03440429
   0.03603576  2.63410282  7.80739546
   5.29350276  2.63410282  7.83033046
   0.03603576  7.89240182  7.80739546
   5.29350276  7.89240182  7.83033046
  10.51386347  0.00476402  0.04632336
   5.25639647  0.00476402  0.02338836
  10.51386347  5.26306302  0.04632336
   5.25639647  5.26306302  0.02338836
   2.66386303  0.00476402  7.81841139
   7.92133003  0.00476402  7.84134639
   2.66386303  5.26306302  7.81841139
   7.92133003  5.26306302  7.84134639
   2.65036897  2.63391352  5.21685236
   7.90783597  2.63391352  5.23978736
   2.65036897  7.89221252  5.21685236
   7.90783597  7.89221252  5.23978736
   0.01242353  2.63391352  2.60201239
   5.26989053  2.63391352  2.62494739
   0.01242353  7.89221252  2.60201239
   5.26989053  7.89221252  2.62494739
 


--------------------------------------------------------------------------------------------------------


 k-point  1 :   0.0000 0.0000 0.0000  plane waves:   48385
 k-point  2 :   0.5000 0.0000 0.0000  plane waves:   48436
 k-point  3 :   0.0000 0.5000 0.0000  plane waves:   48450
 k-point  4 :   0.5000 0.5000 0.0000  plane waves:   48400
 k-point  5 :  -0.0000 0.0000 0.5000  plane waves:   48432
 k-point  6 :   0.5000 0.0000 0.5000  plane waves:   48390
 k-point  7 :  -0.0000 0.5000 0.5000  plane waves:   48372
 k-point  8 :   0.5000 0.5000 0.5000  plane waves:   48380

 maximum and minimum number of plane-waves per node :     48450    48372

 maximum number of plane-waves:     48450
 maximum index in each direction: 
   IXMAX=   22   IYMAX=   22   IZMAX=   22
   IXMIN=  -23   IYMIN=  -23   IZMIN=  -22


 serial   3D FFT for wavefunctions
 parallel 3D FFT for charge:
    minimum data exchange during FFTs selected (reduces bandwidth)


 total amount of memory used by VASP MPI-rank0   349631. kBytes
=======================================================================

   base      :      30000. kBytes
   nonl-proj :     217907. kBytes
   fftplans  :       4588. kBytes
   grid      :      69719. kBytes
   one-center:       1990. kBytes
   wavefun   :      25427. kBytes
 
     INWAV:  cpu time    0.0001: real time    0.0003
 Broyden mixing: mesh for mixing (old mesh)
   NGX = 45   NGY = 45   NGZ = 45
  (NGX  =192   NGY  =192   NGZ  =180)
  gives a total of  91125 points

 initial charge density was supplied:
 number of electron     688.0000147 magnetization      -0.0000000
 keeping initial charge density in first step


--------------------------------------------------------------------------------------------------------


 Maximum index for augmentation-charges          895 (set IRDMAX)


--------------------------------------------------------------------------------------------------------


 First call to EWALD:  gamma=   0.169
 Maximum number of real-space cells 3x 3x 3
 Maximum number of reciprocal cells 3x 3x 3

    FEWALD:  cpu time    0.0030: real time    0.0030


--------------------------------------- Iteration      1(   1)  ---------------------------------------


    POTLOK:  cpu time    0.3386: real time    0.3654
    SETDIJ:  cpu time    0.0149: real time    0.0149
     EDDAV:  cpu time   84.7678: real time   85.6155
 BZINTS: Fermi energy: 14.806244;688.000000 electrons
         Band energy:***********;  BLOECHL correction: -0.025602
       DOS:  cpu time    0.0420: real time    0.0421
    --------------------------------------------
      LOOP:  cpu time   85.1633: real time   86.0380

 eigenvalue-minimisations  : 16384
 total energy-change (2. order) : 0.6028611E+04  (-0.5170491E+05)
 number of electron     688.0000147 magnetization      -0.0000000
 augmentation part      688.0000147 magnetization      -0.0000000

 Free energy of the ion-electron system (eV)
  ---------------------------------------------------
  alpha Z        PSCENC =      2355.23941372
  Ewald energy   TEWEN  =    -62459.46258503
  -Hartree energ DENC   =    -42845.92956087
  -exchange      EXHF   =         0.00000000
  -V(xc)+E(xc)   XCENC  =      3283.78511131
  PAW double counting   =    112202.23326047  -115894.98524000
  entropy T*S    EENTRO =         0.00000000
  eigenvalues    EBANDS =     -4632.33467122
  atomic energy  EATOM  =    114020.06510763
  Solvation  Ediel_sol  =         0.00000000
  ---------------------------------------------------
  free energy    TOTEN  =      6028.61083601 eV

  energy without entropy =     6028.61083601  energy(sigma->0) =     6028.61083601


--------------------------------------------------------------------------------------------------------




--------------------------------------- Iteration      1(   2)  ---------------------------------------


     EDDAV:  cpu time  103.6440: real time  104.4270
 BZINTS: Fermi energy:  5.307975;688.000000 electrons
         Band energy:***********;  BLOECHL correction:  0.000000
       DOS:  cpu time    0.0130: real time    0.0131
    --------------------------------------------
      LOOP:  cpu time  103.6569: real time  104.4400

 eigenvalue-minimisations  : 18432
 total energy-change (2. order) :-0.6137197E+04  (-0.6029117E+04)
 number of electron     688.0000147 magnetization      -0.0000000
 augmentation part      688.0000147 magnetization      -0.0000000

 Free energy of the ion-electron system (eV)
  ---------------------------------------------------
  alpha Z        PSCENC =      2355.23941372
  Ewald energy   TEWEN  =    -62459.46258503
  -Hartree energ DENC   =    -42845.92956087
  -exchange      EXHF   =         0.00000000
  -V(xc)+E(xc)   XCENC  =      3283.78511131
  PAW double counting   =    112202.23326047  -115894.98524000
  entropy T*S    EENTRO =         0.00000000
  eigenvalues    EBANDS =    -10769.53127848
  atomic energy  EATOM  =    114020.06510763
  Solvation  Ediel_sol  =         0.00000000
  ---------------------------------------------------
  free energy    TOTEN  =      -108.58577125 eV

  energy without entropy =     -108.58577125  energy(sigma->0) =     -108.58577125


--------------------------------------------------------------------------------------------------------




--------------------------------------- Iteration      1(   3)  ---------------------------------------


     EDDAV:  cpu time  157.0614: real time  158.1394
 BZINTS: Fermi energy:  4.857576;688.000000 electrons
         Band energy:***********;  BLOECHL correction:  0.000000
       DOS:  cpu time    0.0059: real time    0.0060
    --------------------------------------------
      LOOP:  cpu time  157.0674: real time  158.1454

 eigenvalue-minimisations  : 22784
 total energy-change (2. order) :-0.2440839E+03  (-0.2433296E+03)
 number of electron     688.0000147 magnetization      -0.0000000
 augmentation part      688.0000147 magnetization      -0.0000000

 Free energy of the ion-electron system (eV)
  ---------------------------------------------------
  alpha Z        PSCENC =      2355.23941372
  Ewald energy   TEWEN  =    -62459.46258503
  -Hartree energ DENC   =    -42845.92956087
  -exchange      EXHF   =         0.00000000
  -V(xc)+E(xc)   XCENC  =      3283.78511131
  PAW double counting   =    112202.23326047  -115894.98524000
  entropy T*S    EENTRO =         0.00000000
  eigenvalues    EBANDS =    -11013.61513919
  atomic energy  EATOM  =    114020.06510763
  Solvation  Ediel_sol  =         0.00000000
  ---------------------------------------------------
  free energy    TOTEN  =      -352.66963196 eV

  energy without entropy =     -352.66963196  energy(sigma->0) =     -352.66963196


--------------------------------------------------------------------------------------------------------




--------------------------------------- Iteration      1(   4)  ---------------------------------------


     EDDAV:  cpu time  118.9899: real time  119.8497
 BZINTS: Fermi energy:  4.920767;688.000000 electrons
         Band energy:***********;  BLOECHL correction:  0.000000
       DOS:  cpu time    0.0068: real time    0.0068
    --------------------------------------------
      LOOP:  cpu time  118.9967: real time  119.8564

 eigenvalue-minimisations  : 19200
 total energy-change (2. order) :-0.3371903E+01  (-0.3371778E+01)
 number of electron     688.0000147 magnetization      -0.0000000
 augmentation part      688.0000147 magnetization      -0.0000000

 Free energy of the ion-electron system (eV)
  ---------------------------------------------------
  alpha Z        PSCENC =      2355.23941372
  Ewald energy   TEWEN  =    -62459.46258503
  -Hartree energ DENC   =    -42845.92956087
  -exchange      EXHF   =         0.00000000
  -V(xc)+E(xc)   XCENC  =      3283.78511131
  PAW double counting   =    112202.23326047  -115894.98524000
  entropy T*S    EENTRO =         0.00000000
  eigenvalues    EBANDS =    -11016.98704172
  atomic energy  EATOM  =    114020.06510763
  Solvation  Ediel_sol  =         0.00000000
  ---------------------------------------------------
  free energy    TOTEN  =      -356.04153449 eV

  energy without entropy =     -356.04153449  energy(sigma->0) =     -356.04153449


--------------------------------------------------------------------------------------------------------




--------------------------------------- Iteration      1(   5)  ---------------------------------------


     EDDAV:  cpu time  158.3492: real time  159.4348
 BZINTS: Fermi energy:  4.896782;688.000000 electrons
         Band energy:***********;  BLOECHL correction:  0.000000
       DOS:  cpu time    0.0059: real time    0.0060
    CHARGE:  cpu time    1.4753: real time    1.4855
    MIXING:  cpu time    0.0046: real time    0.0046
    --------------------------------------------
      LOOP:  cpu time  159.8351: real time  160.9309

 eigenvalue-minimisations  : 22784
 total energy-change (2. order) :-0.1058700E+00  (-0.1058694E+00)
 number of electron     688.0000448 magnetization      -0.0000000
 augmentation part      283.9776369 magnetization      -0.0000000

 Broyden mixing:
  rms(total) = 0.40521E+01    rms(broyden)= 0.40516E+01
  rms(prec ) = 0.45547E+01
  weight for this iteration     100.00

 Free energy of the ion-electron system (eV)
  ---------------------------------------------------
  alpha Z        PSCENC =      2355.23941372
  Ewald energy   TEWEN  =    -62459.46258503
  -Hartree energ DENC   =    -42845.92956087
  -exchange      EXHF   =         0.00000000
  -V(xc)+E(xc)   XCENC  =      3283.78511131
  PAW double counting   =    112202.23326047  -115894.98524000
  entropy T*S    EENTRO =         0.00000000
  eigenvalues    EBANDS =    -11017.09291168
  atomic energy  EATOM  =    114020.06510763
  Solvation  Ediel_sol  =         0.00000000
  ---------------------------------------------------
  free energy    TOTEN  =      -356.14740445 eV

  energy without entropy =     -356.14740445  energy(sigma->0) =     -356.14740445


--------------------------------------------------------------------------------------------------------




--------------------------------------- Iteration      1(   6)  ---------------------------------------


    POTLOK:  cpu time    0.1438: real time    0.1467
    SETDIJ:  cpu time    0.0130: real time    0.0131
     EDDAV:  cpu time  169.4358: real time  170.6077
 BZINTS: Fermi energy:  4.946308;688.000000 electrons
         Band energy:***********;  BLOECHL correction:  0.000000
       DOS:  cpu time    0.0067: real time    0.0068
    CHARGE:  cpu time    1.4726: real time    1.4832
    MIXING:  cpu time    0.0024: real time    0.0400
    --------------------------------------------
      LOOP:  cpu time  171.0744: real time  172.2974

 eigenvalue-minimisations  : 24832
 total energy-change (2. order) : 0.2111767E+02  (-0.2117431E+01)
 number of electron     688.0000446 magnetization      -0.0000000
 augmentation part      281.0959186 magnetization      -0.0000000

 Broyden mixing:
  rms(total) = 0.22496E+01    rms(broyden)= 0.22495E+01
  rms(prec ) = 0.25290E+01
  weight for this iteration     100.00

 eigenvalues of (default mixing * dielectric matrix)
  average eigenvalue GAMMA=   0.8159
  0.8159

 Free energy of the ion-electron system (eV)
  ---------------------------------------------------
  alpha Z        PSCENC =      2355.23941372
  Ewald energy   TEWEN  =    -62459.46258503
  -Hartree energ DENC   =    -43000.85565244
  -exchange      EXHF   =         0.00000000
  -V(xc)+E(xc)   XCENC  =      3286.82395090
  PAW double counting   =    114365.58026490  -118079.22051100
  entropy T*S    EENTRO =         0.00000000
  eigenvalues    EBANDS =    -10823.19972108
  atomic energy  EATOM  =    114020.06510763
  Solvation  Ediel_sol  =         0.00000000
  ---------------------------------------------------
  free energy    TOTEN  =      -335.02973241 eV

  energy without entropy =     -335.02973241  energy(sigma->0) =     -335.02973241


--------------------------------------------------------------------------------------------------------




--------------------------------------- Iteration      1(   7)  ---------------------------------------


    POTLOK:  cpu time    0.1439: real time    0.1457
    SETDIJ:  cpu time    0.0130: real time    0.0130
     EDDAV:  cpu time  167.0771: real time  168.2219
 BZINTS: Fermi energy:  5.043559;688.000000 electrons
         Band energy:***********;  BLOECHL correction:  0.000000
       DOS:  cpu time    0.0065: real time    0.0065
    CHARGE:  cpu time    1.4716: real time    1.4819
    MIXING:  cpu time    0.0016: real time    0.0037
    --------------------------------------------
      LOOP:  cpu time  168.7136: real time  169.8727

 eigenvalue-minimisations  : 24064
 total energy-change (2. order) : 0.5619330E+01  (-0.2205859E+01)
 number of electron     688.0000448 magnetization       0.0000000
 augmentation part      283.0567061 magnetization       0.0000000

 Broyden mixing:
  rms(total) = 0.21135E+01    rms(broyden)= 0.21135E+01
  rms(prec ) = 0.22985E+01
  weight for this iteration     100.00

 eigenvalues of (default mixing * dielectric matrix)
  average eigenvalue GAMMA=   0.8711
  1.2896  0.4526

 Free energy of the ion-electron system (eV)
  ---------------------------------------------------
  alpha Z        PSCENC =      2355.23941372
  Ewald energy   TEWEN  =    -62459.46258503
  -Hartree energ DENC   =    -42926.93287348
  -exchange      EXHF   =         0.00000000
  -V(xc)+E(xc)   XCENC  =      3287.04362325
  PAW double counting   =    113973.86569927  -117661.59473762
  entropy T*S    EENTRO =         0.00000000
  eigenvalues    EBANDS =    -10917.63404988
  atomic energy  EATOM  =    114020.06510763
  Solvation  Ediel_sol  =         0.00000000
  ---------------------------------------------------
  free energy    TOTEN  =      -329.41040214 eV

  energy without entropy =     -329.41040214  energy(sigma->0) =     -329.41040214


--------------------------------------------------------------------------------------------------------




--------------------------------------- Iteration      1(   8)  ---------------------------------------


    POTLOK:  cpu time    0.1450: real time    0.1460
    SETDIJ:  cpu time    0.0130: real time    0.0130
     EDDAV:  cpu time  159.3480: real time  160.4437
 BZINTS: Fermi energy:  4.759095;688.000000 electrons
         Band energy:***********;  BLOECHL correction:  0.000000
       DOS:  cpu time    0.0057: real time    0.0058
    CHARGE:  cpu time    1.4748: real time    1.4835
    MIXING:  cpu time    0.0014: real time    0.0014
    --------------------------------------------
      LOOP:  cpu time  160.9879: real time  162.0934

 eigenvalue-minimisations  : 23040
 total energy-change (2. order) : 0.1103798E+01  (-0.1650181E+01)
 number of electron     688.0000447 magnetization       0.0000000
 augmentation part      282.7542395 magnetization       0.0000000

 Broyden mixing:
  rms(total) = 0.85614E+00    rms(broyden)= 0.85610E+00
  rms(prec ) = 0.96197E+00
  weight for this iteration     100.00

 eigenvalues of (default mixing * dielectric matrix)
  average eigenvalue GAMMA=   0.9934
  1.8736  0.6983  0.4083

 Free energy of the ion-electron system (eV)
  ---------------------------------------------------
  alpha Z        PSCENC =      2355.23941372
  Ewald energy   TEWEN  =    -62459.46258503
  -Hartree energ DENC   =    -42908.24740832
  -exchange      EXHF   =         0.00000000
  -V(xc)+E(xc)   XCENC  =      3284.90797386
  PAW double counting   =    113510.55153083  -117201.21466796
  entropy T*S    EENTRO =         0.00000000
  eigenvalues    EBANDS =    -10930.14596872
  atomic energy  EATOM  =    114020.06510763
  Solvation  Ediel_sol  =         0.00000000
  ---------------------------------------------------
  free energy    TOTEN  =      -328.30660399 eV

  energy without entropy =     -328.30660399  energy(sigma->0) =     -328.30660399


--------------------------------------------------------------------------------------------------------




--------------------------------------- Iteration      1(   9)  ---------------------------------------


    POTLOK:  cpu time    0.1471: real time    0.1482
    SETDIJ:  cpu time    0.0127: real time    0.0128
     EDDAV:  cpu time  150.4719: real time  151.4942
 BZINTS: Fermi energy:  5.037377;688.000000 electrons
         Band energy:***********;  BLOECHL correction:  0.000000
       DOS:  cpu time    0.0066: real time    0.0066
    CHARGE:  cpu time    1.4753: real time    1.4857
    MIXING:  cpu time    0.0015: real time    0.0015
    --------------------------------------------
      LOOP:  cpu time  152.1150: real time  153.1489

 eigenvalue-minimisations  : 21760
 total energy-change (2. order) : 0.1989148E+00  (-0.5116088E+00)
 number of electron     688.0000446 magnetization       0.0000000
 augmentation part      282.1844722 magnetization       0.0000000

 Broyden mixing:
  rms(total) = 0.47722E+00    rms(broyden)= 0.47721E+00
  rms(prec ) = 0.54198E+00
  weight for this iteration     100.00

 eigenvalues of (default mixing * dielectric matrix)
  average eigenvalue GAMMA=   0.9251
  1.8978  0.8265  0.6213  0.3549

 Free energy of the ion-electron system (eV)
  ---------------------------------------------------
  alpha Z        PSCENC =      2355.23941372
  Ewald energy   TEWEN  =    -62459.46258503
  -Hartree energ DENC   =    -42973.16734999
  -exchange      EXHF   =         0.00000000
  -V(xc)+E(xc)   XCENC  =      3287.21841136
  PAW double counting   =    113211.85502758  -116909.17795760
  entropy T*S    EENTRO =         0.00000000
  eigenvalues    EBANDS =    -10860.67775684
  atomic energy  EATOM  =    114020.06510763
  Solvation  Ediel_sol  =         0.00000000
  ---------------------------------------------------
  free energy    TOTEN  =      -328.10768917 eV

  energy without entropy =     -328.10768917  energy(sigma->0) =     -328.10768917


--------------------------------------------------------------------------------------------------------




--------------------------------------- Iteration      1(  10)  ---------------------------------------


    POTLOK:  cpu time    0.1461: real time    0.1471
    SETDIJ:  cpu time    0.0128: real time    0.0129
     EDDAV:  cpu time  155.5885: real time  156.6561
 BZINTS: Fermi energy:  4.781493;688.000000 electrons
         Band energy:***********;  BLOECHL correction:  0.000000
       DOS:  cpu time    0.0058: real time    0.0059
    CHARGE:  cpu time    1.4708: real time    1.4811
    MIXING:  cpu time    0.0016: real time    0.0016
    --------------------------------------------
      LOOP:  cpu time  157.2257: real time  158.3047

 eigenvalue-minimisations  : 22784
 total energy-change (2. order) : 0.2538580E-01  (-0.1587422E+00)
 number of electron     688.0000446 magnetization       0.0000000
 augmentation part      282.0849222 magnetization       0.0000000

 Broyden mixing:
  rms(total) = 0.26723E+00    rms(broyden)= 0.26722E+00
  rms(prec ) = 0.29885E+00
  weight for this iteration     100.00

 eigenvalues of (default mixing * dielectric matrix)
  average eigenvalue GAMMA=   1.0292
  1.7898  1.7898  0.6645  0.5739  0.3280

 Free energy of the ion-electron system (eV)
  ---------------------------------------------------
  alpha Z        PSCENC =      2355.23941372
  Ewald energy   TEWEN  =    -62459.46258503
  -Hartree energ DENC   =    -42959.66310137
  -exchange      EXHF   =         0.00000000
  -V(xc)+E(xc)   XCENC  =      3286.37993918
  PAW double counting   =    112911.99877658  -116607.19616087
  entropy T*S    EENTRO =         0.00000000
  eigenvalues    EBANDS =    -10875.44369321
  atomic energy  EATOM  =    114020.06510763
  Solvation  Ediel_sol  =         0.00000000
  ---------------------------------------------------
  free energy    TOTEN  =      -328.08230337 eV

  energy without entropy =     -328.08230337  energy(sigma->0) =     -328.08230337


--------------------------------------------------------------------------------------------------------




--------------------------------------- Iteration      1(  11)  ---------------------------------------


    POTLOK:  cpu time    0.1455: real time    0.1472
    SETDIJ:  cpu time    0.0131: real time    0.0132
     EDDAV:  cpu time  148.1282: real time  149.1565
 BZINTS: Fermi energy:  4.999603;688.000000 electrons
         Band energy:***********;  BLOECHL correction:  0.000000
       DOS:  cpu time    0.0066: real time    0.0066
    CHARGE:  cpu time    1.4699: real time    1.4807
    MIXING:  cpu time    0.0017: real time    0.0120
    --------------------------------------------
      LOOP:  cpu time  149.7650: real time  150.8162

 eigenvalue-minimisations  : 22016
 total energy-change (2. order) :-0.1265078E-01  (-0.2443677E-01)
 number of electron     688.0000446 magnetization      -0.0000000
 augmentation part      282.2788931 magnetization      -0.0000000

 Broyden mixing:
  rms(total) = 0.10076E+00    rms(broyden)= 0.10076E+00
  rms(prec ) = 0.10346E+00
  weight for this iteration     100.00

 eigenvalues of (default mixing * dielectric matrix)
  average eigenvalue GAMMA=   1.1361
  2.1608  2.1608  0.8796  0.6425  0.6425  0.3301

 Free energy of the ion-electron system (eV)
  ---------------------------------------------------
  alpha Z        PSCENC =      2355.23941372
  Ewald energy   TEWEN  =    -62459.46258503
  -Hartree energ DENC   =    -42954.10436498
  -exchange      EXHF   =         0.00000000
  -V(xc)+E(xc)   XCENC  =      3286.40243622
  PAW double counting   =    112534.66686008  -116228.06224695
  entropy T*S    EENTRO =         0.00000000
  eigenvalues    EBANDS =    -10882.83957484
  atomic energy  EATOM  =    114020.06510763
  Solvation  Ediel_sol  =         0.00000000
  ---------------------------------------------------
  free energy    TOTEN  =      -328.09495416 eV

  energy without entropy =     -328.09495416  energy(sigma->0) =     -328.09495416


--------------------------------------------------------------------------------------------------------




--------------------------------------- Iteration      1(  12)  ---------------------------------------


    POTLOK:  cpu time    0.1440: real time    0.1459
    SETDIJ:  cpu time    0.0131: real time    0.0132
     EDDAV:  cpu time  184.6395: real time  185.8709
 BZINTS: Fermi energy:  4.999149;688.000000 electrons
         Band energy:***********;  BLOECHL correction:  0.000000
       DOS:  cpu time    0.0066: real time    0.0066
    CHARGE:  cpu time    1.4725: real time    1.4820
    MIXING:  cpu time    0.0016: real time    0.0016
    --------------------------------------------
      LOOP:  cpu time  186.2773: real time  187.5203

 eigenvalue-minimisations  : 25600
 total energy-change (2. order) :-0.1547507E-01  (-0.5759048E-02)
 number of electron     688.0000446 magnetization      -0.0000000
 augmentation part      282.1887120 magnetization      -0.0000000

 Broyden mixing:
  rms(total) = 0.51596E-01    rms(broyden)= 0.51593E-01
  rms(prec ) = 0.56657E-01
  weight for this iteration     100.00

 eigenvalues of (default mixing * dielectric matrix)
  average eigenvalue GAMMA=   1.1248
  2.2762  2.2762  1.0446  0.3309  0.6293  0.6293  0.6873

 Free energy of the ion-electron system (eV)
  ---------------------------------------------------
  alpha Z        PSCENC =      2355.23941372
  Ewald energy   TEWEN  =    -62459.46258503
  -Hartree energ DENC   =    -42961.16164788
  -exchange      EXHF   =         0.00000000
  -V(xc)+E(xc)   XCENC  =      3286.55362169
  PAW double counting   =    112350.48687499  -116044.92730974
  entropy T*S    EENTRO =         0.00000000
  eigenvalues    EBANDS =    -10874.90390461
  atomic energy  EATOM  =    114020.06510763
  Solvation  Ediel_sol  =         0.00000000
  ---------------------------------------------------
  free energy    TOTEN  =      -328.11042923 eV

  energy without entropy =     -328.11042923  energy(sigma->0) =     -328.11042923


--------------------------------------------------------------------------------------------------------




--------------------------------------- Iteration      1(  13)  ---------------------------------------


    POTLOK:  cpu time    0.1460: real time    0.1468
    SETDIJ:  cpu time    0.0131: real time    0.0131
     EDDAV:  cpu time  132.0508: real time  132.9703
 BZINTS: Fermi energy:  4.993816;688.000000 electrons
         Band energy:***********;  BLOECHL correction:  0.000000
       DOS:  cpu time    0.0066: real time    0.0066
    CHARGE:  cpu time    1.4736: real time    1.4825
    MIXING:  cpu time    0.0016: real time    0.0016
    --------------------------------------------
      LOOP:  cpu time  133.6917: real time  134.6210

 eigenvalue-minimisations  : 19968
 total energy-change (2. order) :-0.2537099E-02  (-0.1150220E-02)
 number of electron     688.0000446 magnetization       0.0000000
 augmentation part      282.2296210 magnetization       0.0000000

 Broyden mixing:
  rms(total) = 0.23485E-01    rms(broyden)= 0.23484E-01
  rms(prec ) = 0.25172E-01
  weight for this iteration     100.00

 eigenvalues of (default mixing * dielectric matrix)
  average eigenvalue GAMMA=   1.1106
  2.2944  2.2944  1.1081  0.9814  0.3311  0.6008  0.6008  0.6737

 Free energy of the ion-electron system (eV)
  ---------------------------------------------------
  alpha Z        PSCENC =      2355.23941372
  Ewald energy   TEWEN  =    -62459.46258503
  -Hartree energ DENC   =    -42957.91194908
  -exchange      EXHF   =         0.00000000
  -V(xc)+E(xc)   XCENC  =      3286.46832594
  PAW double counting   =    112297.34483811  -115991.21047204
  entropy T*S    EENTRO =         0.00000000
  eigenvalues    EBANDS =    -10878.64564557
  atomic energy  EATOM  =    114020.06510763
  Solvation  Ediel_sol  =         0.00000000
  ---------------------------------------------------
  free energy    TOTEN  =      -328.11296633 eV

  energy without entropy =     -328.11296633  energy(sigma->0) =     -328.11296633


--------------------------------------------------------------------------------------------------------




--------------------------------------- Iteration      1(  14)  ---------------------------------------


    POTLOK:  cpu time    0.1463: real time    0.1472
    SETDIJ:  cpu time    0.0127: real time    0.0128
     EDDAV:  cpu time  154.7092: real time  155.7551
 BZINTS: Fermi energy:  4.992715;688.000000 electrons
         Band energy:***********;  BLOECHL correction:  0.000000
       DOS:  cpu time    0.0066: real time    0.0066
    CHARGE:  cpu time    1.4716: real time    1.4818
    MIXING:  cpu time    0.0016: real time    0.0016
    --------------------------------------------
      LOOP:  cpu time  156.3481: real time  157.4052

 eigenvalue-minimisations  : 22016
 total energy-change (2. order) :-0.1401419E-02  (-0.3569923E-03)
 number of electron     688.0000446 magnetization      -0.0000000
 augmentation part      282.2173033 magnetization      -0.0000000

 Broyden mixing:
  rms(total) = 0.14919E-01    rms(broyden)= 0.14918E-01
  rms(prec ) = 0.15767E-01
  weight for this iteration     100.00

 eigenvalues of (default mixing * dielectric matrix)
  average eigenvalue GAMMA=   1.1953
  2.4269  2.4269  1.6309  1.3481  0.3310  0.6106  0.6106  0.7237  0.6486

 Free energy of the ion-electron system (eV)
  ---------------------------------------------------
  alpha Z        PSCENC =      2355.23941372
  Ewald energy   TEWEN  =    -62459.46258503
  -Hartree energ DENC   =    -42958.80614461
  -exchange      EXHF   =         0.00000000
  -V(xc)+E(xc)   XCENC  =      3286.49531688
  PAW double counting   =    112283.66432384  -115977.69611612
  entropy T*S    EENTRO =         0.00000000
  eigenvalues    EBANDS =    -10877.61368406
  atomic energy  EATOM  =    114020.06510763
  Solvation  Ediel_sol  =         0.00000000
  ---------------------------------------------------
  free energy    TOTEN  =      -328.11436775 eV

  energy without entropy =     -328.11436775  energy(sigma->0) =     -328.11436775


--------------------------------------------------------------------------------------------------------




--------------------------------------- Iteration      1(  15)  ---------------------------------------


    POTLOK:  cpu time    0.1445: real time    0.1454
    SETDIJ:  cpu time    0.0128: real time    0.0128
     EDDAV:  cpu time  139.4570: real time  140.4190
 BZINTS: Fermi energy:  4.991340;688.000000 electrons
         Band energy:***********;  BLOECHL correction:  0.000000
       DOS:  cpu time    0.0066: real time    0.0066
    CHARGE:  cpu time    1.6975: real time    1.7074
    MIXING:  cpu time    0.0022: real time    0.0022
    --------------------------------------------
      LOOP:  cpu time  141.3206: real time  142.2935

 eigenvalue-minimisations  : 20480
 total energy-change (2. order) :-0.9981315E-03  (-0.2923030E-03)
 number of electron     688.0000446 magnetization      -0.0000000
 augmentation part      282.2167382 magnetization      -0.0000000

 Broyden mixing:
  rms(total) = 0.74566E-02    rms(broyden)= 0.74556E-02
  rms(prec ) = 0.79167E-02
  weight for this iteration     100.00

 eigenvalues of (default mixing * dielectric matrix)
  average eigenvalue GAMMA=   1.2213
  2.9090  2.2053  1.9446  1.1350  1.1350  0.3310  0.6078  0.6078  0.7038  0.6339

 Free energy of the ion-electron system (eV)
  ---------------------------------------------------
  alpha Z        PSCENC =      2355.23941372
  Ewald energy   TEWEN  =    -62459.46258503
  -Hartree energ DENC   =    -42958.97709660
  -exchange      EXHF   =         0.00000000
  -V(xc)+E(xc)   XCENC  =      3286.50077130
  PAW double counting   =    112272.61810084  -115966.67352354
  entropy T*S    EENTRO =         0.00000000
  eigenvalues    EBANDS =    -10877.42555420
  atomic energy  EATOM  =    114020.06510763
  Solvation  Ediel_sol  =         0.00000000
  ---------------------------------------------------
  free energy    TOTEN  =      -328.11536588 eV

  energy without entropy =     -328.11536588  energy(sigma->0) =     -328.11536588


--------------------------------------------------------------------------------------------------------




--------------------------------------- Iteration      1(  16)  ---------------------------------------


    POTLOK:  cpu time    0.1557: real time    0.1566
    SETDIJ:  cpu time    0.0165: real time    0.0166
     EDDAV:  cpu time  165.3262: real time  166.4553
 BZINTS: Fermi energy:  4.990772;688.000000 electrons
         Band energy:***********;  BLOECHL correction:  0.000000
       DOS:  cpu time    0.0067: real time    0.0067
    CHARGE:  cpu time    1.4702: real time    1.4804
    MIXING:  cpu time    0.0018: real time    0.0018
    --------------------------------------------
      LOOP:  cpu time  166.9770: real time  168.1174

 eigenvalue-minimisations  : 23552
 total energy-change (2. order) :-0.3372204E-03  (-0.1039259E-03)
 number of electron     688.0000446 magnetization       0.0000000
 augmentation part      282.2223846 magnetization       0.0000000

 Broyden mixing:
  rms(total) = 0.50810E-02    rms(broyden)= 0.50803E-02
  rms(prec ) = 0.54358E-02
  weight for this iteration     100.00

 eigenvalues of (default mixing * dielectric matrix)
  average eigenvalue GAMMA=   1.3019
  3.3659  2.1721  2.1721  1.4436  1.4436  0.3310  0.8536  0.6030  0.6030  0.7044
  0.6289

 Free energy of the ion-electron system (eV)
  ---------------------------------------------------
  alpha Z        PSCENC =      2355.23941372
  Ewald energy   TEWEN  =    -62459.46258503
  -Hartree energ DENC   =    -42958.74472479
  -exchange      EXHF   =         0.00000000
  -V(xc)+E(xc)   XCENC  =      3286.49579312
  PAW double counting   =    112268.22009357  -115962.22029123
  entropy T*S    EENTRO =         0.00000000
  eigenvalues    EBANDS =    -10877.70851008
  atomic energy  EATOM  =    114020.06510763
  Solvation  Ediel_sol  =         0.00000000
  ---------------------------------------------------
  free energy    TOTEN  =      -328.11570310 eV

  energy without entropy =     -328.11570310  energy(sigma->0) =     -328.11570310


--------------------------------------------------------------------------------------------------------




--------------------------------------- Iteration      1(  17)  ---------------------------------------


    POTLOK:  cpu time    0.1449: real time    0.1461
    SETDIJ:  cpu time    0.0130: real time    0.0130
     EDDAV:  cpu time  140.5585: real time  141.5288
 BZINTS: Fermi energy:  4.990621;688.000000 electrons
         Band energy:***********;  BLOECHL correction:  0.000000
       DOS:  cpu time    0.0067: real time    0.0067
    CHARGE:  cpu time    1.4710: real time    1.4811
    MIXING:  cpu time    0.0019: real time    0.0019
    --------------------------------------------
      LOOP:  cpu time  142.1960: real time  143.1777

 eigenvalue-minimisations  : 20736
 total energy-change (2. order) :-0.1544074E-03  (-0.8090972E-04)
 number of electron     688.0000446 magnetization       0.0000000
 augmentation part      282.2199392 magnetization       0.0000000

 Broyden mixing:
  rms(total) = 0.25323E-02    rms(broyden)= 0.25313E-02
  rms(prec ) = 0.27478E-02
  weight for this iteration     100.00

 eigenvalues of (default mixing * dielectric matrix)
  average eigenvalue GAMMA=   1.3825
  4.1818  2.3679  2.3679  1.5312  1.5312  1.0179  0.3310  0.6035  0.6035  0.7494
  0.6872  0.6176

 Free energy of the ion-electron system (eV)
  ---------------------------------------------------
  alpha Z        PSCENC =      2355.23941372
  Ewald energy   TEWEN  =    -62459.46258503
  -Hartree energ DENC   =    -42958.83475425
  -exchange      EXHF   =         0.00000000
  -V(xc)+E(xc)   XCENC  =      3286.49626809
  PAW double counting   =    112272.40791657  -115966.41825603
  entropy T*S    EENTRO =         0.00000000
  eigenvalues    EBANDS =    -10877.60896820
  atomic energy  EATOM  =    114020.06510763
  Solvation  Ediel_sol  =         0.00000000
  ---------------------------------------------------
  free energy    TOTEN  =      -328.11585750 eV

  energy without entropy =     -328.11585750  energy(sigma->0) =     -328.11585750


--------------------------------------------------------------------------------------------------------




--------------------------------------- Iteration      1(  18)  ---------------------------------------


    POTLOK:  cpu time    0.1449: real time    0.1458
    SETDIJ:  cpu time    0.0130: real time    0.0131
     EDDAV:  cpu time  140.1590: real time  141.1225
 BZINTS: Fermi energy:  4.990614;688.000000 electrons
         Band energy:***********;  BLOECHL correction:  0.000000
       DOS:  cpu time    0.0066: real time    0.0066
    CHARGE:  cpu time    1.4722: real time    1.4824
    MIXING:  cpu time    0.0019: real time    0.0020
    --------------------------------------------
      LOOP:  cpu time  141.7976: real time  142.7724

 eigenvalue-minimisations  : 20480
 total energy-change (2. order) :-0.3009697E-04  (-0.2337310E-04)
 number of electron     688.0000446 magnetization       0.0000000
 augmentation part      282.2197128 magnetization       0.0000000

 Broyden mixing:
  rms(total) = 0.12937E-02    rms(broyden)= 0.12931E-02
  rms(prec ) = 0.13756E-02
  weight for this iteration     100.00

 eigenvalues of (default mixing * dielectric matrix)
  average eigenvalue GAMMA=   1.3624
  4.3819  2.4077  2.4077  1.7419  1.1692  1.1692  0.3310  0.8976  0.6030  0.6030
  0.7306  0.6428  0.6261

 Free energy of the ion-electron system (eV)
  ---------------------------------------------------
  alpha Z        PSCENC =      2355.23941372
  Ewald energy   TEWEN  =    -62459.46258503
  -Hartree energ DENC   =    -42958.86398036
  -exchange      EXHF   =         0.00000000
  -V(xc)+E(xc)   XCENC  =      3286.49656836
  PAW double counting   =    112275.58036543  -115969.58646151
  entropy T*S    EENTRO =         0.00000000
  eigenvalues    EBANDS =    -10877.58431585
  atomic energy  EATOM  =    114020.06510763
  Solvation  Ediel_sol  =         0.00000000
  ---------------------------------------------------
  free energy    TOTEN  =      -328.11588760 eV

  energy without entropy =     -328.11588760  energy(sigma->0) =     -328.11588760


--------------------------------------------------------------------------------------------------------




--------------------------------------- Iteration      1(  19)  ---------------------------------------


    POTLOK:  cpu time    0.1447: real time    0.1457
    SETDIJ:  cpu time    0.0133: real time    0.0134
     EDDAV:  cpu time  130.0910: real time  131.0039
 BZINTS: Fermi energy:  4.990600;688.000000 electrons
         Band energy:***********;  BLOECHL correction:  0.000000
       DOS:  cpu time    0.0066: real time    0.0066
    CHARGE:  cpu time    1.4731: real time    1.4831
    MIXING:  cpu time    0.0022: real time    0.0022
    --------------------------------------------
      LOOP:  cpu time  131.7309: real time  132.6549

 eigenvalue-minimisations  : 19712
 total energy-change (2. order) :-0.2203276E-05  (-0.9869074E-06)
 number of electron     688.0000446 magnetization       0.0000000
 augmentation part      282.2200908 magnetization       0.0000000

 Broyden mixing:
[...]
   -.421E+02 0.312E+01 -.249E+00   0.430E+02 -.314E+01 0.252E+00   -.862E+00 0.199E-01 -.289E-02   -.676E-05 0.192E-04 -.168E-05
   -.421E+02 0.312E+01 -.249E+00   0.430E+02 -.314E+01 0.252E+00   -.862E+00 0.199E-01 -.289E-02   -.679E-05 0.192E-04 -.168E-05
   -.421E+02 0.312E+01 -.249E+00   0.430E+02 -.314E+01 0.252E+00   -.862E+00 0.199E-01 -.289E-02   -.676E-05 0.192E-04 -.168E-05
   -.421E+02 0.312E+01 -.249E+00   0.430E+02 -.314E+01 0.252E+00   -.862E+00 0.199E-01 -.289E-02   -.679E-05 0.192E-04 -.168E-05
   0.421E+02 0.312E+01 0.249E+00   -.430E+02 -.314E+01 -.252E+00   0.862E+00 0.199E-01 0.289E-02   0.678E-05 0.192E-04 0.168E-05
   0.421E+02 0.312E+01 0.249E+00   -.430E+02 -.314E+01 -.252E+00   0.862E+00 0.199E-01 0.289E-02   0.678E-05 0.192E-04 0.168E-05
   0.421E+02 0.312E+01 0.249E+00   -.430E+02 -.314E+01 -.252E+00   0.862E+00 0.199E-01 0.289E-02   0.678E-05 0.192E-04 0.168E-05
   0.421E+02 0.312E+01 0.249E+00   -.430E+02 -.314E+01 -.252E+00   0.862E+00 0.199E-01 0.289E-02   0.678E-05 0.192E-04 0.168E-05
   0.532E-07 -.399E+02 0.223E-06   0.107E-13 0.408E+02 -.711E-14   -.404E-23 -.845E+00 -.124E-23   0.146E-09 0.114E-04 -.106E-08
   0.532E-07 -.399E+02 0.223E-06   -.178E-14 0.408E+02 -.302E-13   0.222E-23 -.845E+00 0.269E-23   -.149E-09 0.114E-04 0.106E-08
   0.532E-07 -.399E+02 0.223E-06   0.000E+00 0.408E+02 0.000E+00   0.408E-23 -.845E+00 0.000E+00   0.146E-09 0.114E-04 -.106E-08
   0.532E-07 -.399E+02 0.223E-06   0.142E-13 0.408E+02 -.249E-13   -.648E-23 -.845E+00 0.124E-23   -.150E-09 0.114E-04 0.106E-08
   0.230E-07 0.445E+02 -.184E-06   0.105E-12 -.454E+02 0.613E-13   0.187E-24 0.881E+00 -.207E-23   0.157E-07 0.360E-04 -.676E-10
   0.230E-07 0.445E+02 -.184E-06   0.163E-12 -.454E+02 0.426E-13   0.121E-23 0.881E+00 0.000E+00   -.157E-07 0.360E-04 0.668E-10
   0.230E-07 0.445E+02 -.184E-06   0.711E-13 -.454E+02 0.746E-13   -.132E-23 0.881E+00 0.124E-23   0.157E-07 0.360E-04 -.676E-10
   0.230E-07 0.445E+02 -.184E-06   0.114E-12 -.454E+02 0.568E-13   0.806E-24 0.881E+00 0.414E-24   -.157E-07 0.360E-04 0.668E-10
   0.596E+00 -.289E+01 0.213E+00   -.588E+00 0.277E+01 -.217E+00   -.745E-02 0.117E+00 0.280E-02   0.114E-04 0.139E-05 0.402E-05
   0.596E+00 -.289E+01 0.213E+00   -.588E+00 0.277E+01 -.217E+00   -.745E-02 0.117E+00 0.280E-02   0.114E-04 0.139E-05 0.402E-05
   0.596E+00 -.289E+01 0.213E+00   -.588E+00 0.277E+01 -.217E+00   -.745E-02 0.117E+00 0.280E-02   0.114E-04 0.133E-05 0.402E-05
   0.596E+00 -.289E+01 0.213E+00   -.588E+00 0.277E+01 -.217E+00   -.745E-02 0.117E+00 0.280E-02   0.114E-04 0.133E-05 0.402E-05
   -.596E+00 -.289E+01 -.213E+00   0.588E+00 0.277E+01 0.217E+00   0.745E-02 0.117E+00 -.280E-02   -.114E-04 0.139E-05 -.402E-05
   -.596E+00 -.289E+01 -.213E+00   0.588E+00 0.277E+01 0.217E+00   0.745E-02 0.117E+00 -.280E-02   -.115E-04 0.139E-05 -.402E-05
   -.596E+00 -.289E+01 -.213E+00   0.588E+00 0.277E+01 0.217E+00   0.745E-02 0.117E+00 -.280E-02   -.114E-04 0.133E-05 -.402E-05
   -.596E+00 -.289E+01 -.213E+00   0.588E+00 0.277E+01 0.217E+00   0.745E-02 0.117E+00 -.280E-02   -.115E-04 0.133E-05 -.402E-05
   0.596E+00 -.289E+01 0.213E+00   -.588E+00 0.277E+01 -.217E+00   -.745E-02 0.117E+00 0.280E-02   0.115E-04 0.139E-05 0.402E-05
   0.596E+00 -.289E+01 0.213E+00   -.588E+00 0.277E+01 -.217E+00   -.745E-02 0.117E+00 0.280E-02   0.114E-04 0.139E-05 0.402E-05
   0.596E+00 -.289E+01 0.213E+00   -.588E+00 0.277E+01 -.217E+00   -.745E-02 0.117E+00 0.280E-02   0.115E-04 0.132E-05 0.402E-05
   0.596E+00 -.289E+01 0.213E+00   -.588E+00 0.277E+01 -.217E+00   -.745E-02 0.117E+00 0.280E-02   0.114E-04 0.132E-05 0.402E-05
   -.596E+00 -.289E+01 -.213E+00   0.588E+00 0.277E+01 0.217E+00   0.745E-02 0.117E+00 -.280E-02   -.114E-04 0.139E-05 -.402E-05
   -.596E+00 -.289E+01 -.213E+00   0.588E+00 0.277E+01 0.217E+00   0.745E-02 0.117E+00 -.280E-02   -.114E-04 0.139E-05 -.402E-05
   -.596E+00 -.289E+01 -.213E+00   0.588E+00 0.277E+01 0.217E+00   0.745E-02 0.117E+00 -.280E-02   -.114E-04 0.132E-05 -.402E-05
   -.596E+00 -.289E+01 -.213E+00   0.588E+00 0.277E+01 0.217E+00   0.745E-02 0.117E+00 -.280E-02   -.114E-04 0.132E-05 -.402E-05
   -.749E+00 -.282E+01 0.205E+00   0.734E+00 0.267E+01 -.211E+00   0.150E-01 0.154E+00 0.305E-02   0.642E-05 0.573E-06 0.108E-04
   -.749E+00 -.282E+01 0.205E+00   0.734E+00 0.267E+01 -.211E+00   0.150E-01 0.154E+00 0.305E-02   0.637E-05 0.573E-06 0.108E-04
   -.749E+00 -.282E+01 0.205E+00   0.734E+00 0.267E+01 -.211E+00   0.150E-01 0.154E+00 0.305E-02   0.642E-05 0.515E-06 0.108E-04
   -.749E+00 -.282E+01 0.205E+00   0.734E+00 0.267E+01 -.211E+00   0.150E-01 0.154E+00 0.305E-02   0.637E-05 0.515E-06 0.108E-04
   0.749E+00 -.282E+01 -.205E+00   -.734E+00 0.267E+01 0.211E+00   -.150E-01 0.154E+00 -.305E-02   -.637E-05 0.573E-06 -.108E-04
   0.749E+00 -.282E+01 -.205E+00   -.734E+00 0.267E+01 0.211E+00   -.150E-01 0.154E+00 -.305E-02   -.642E-05 0.573E-06 -.108E-04
   0.749E+00 -.282E+01 -.205E+00   -.734E+00 0.267E+01 0.211E+00   -.150E-01 0.154E+00 -.305E-02   -.637E-05 0.515E-06 -.108E-04
   0.749E+00 -.282E+01 -.205E+00   -.734E+00 0.267E+01 0.211E+00   -.150E-01 0.154E+00 -.305E-02   -.642E-05 0.515E-06 -.108E-04
   -.749E+00 -.282E+01 0.205E+00   0.734E+00 0.267E+01 -.211E+00   0.150E-01 0.154E+00 0.305E-02   0.642E-05 0.570E-06 0.108E-04
   -.749E+00 -.282E+01 0.205E+00   0.734E+00 0.267E+01 -.211E+00   0.150E-01 0.154E+00 0.305E-02   0.637E-05 0.570E-06 0.108E-04
   -.749E+00 -.282E+01 0.205E+00   0.734E+00 0.267E+01 -.211E+00   0.150E-01 0.154E+00 0.305E-02   0.642E-05 0.518E-06 0.108E-04
   -.749E+00 -.282E+01 0.205E+00   0.734E+00 0.267E+01 -.211E+00   0.150E-01 0.154E+00 0.305E-02   0.637E-05 0.518E-06 0.108E-04
   0.749E+00 -.282E+01 -.205E+00   -.734E+00 0.267E+01 0.211E+00   -.150E-01 0.154E+00 -.305E-02   -.637E-05 0.570E-06 -.108E-04
   0.749E+00 -.282E+01 -.205E+00   -.734E+00 0.267E+01 0.211E+00   -.150E-01 0.154E+00 -.305E-02   -.642E-05 0.570E-06 -.108E-04
   0.749E+00 -.282E+01 -.205E+00   -.734E+00 0.267E+01 0.211E+00   -.150E-01 0.154E+00 -.305E-02   -.637E-05 0.518E-06 -.108E-04
   0.749E+00 -.282E+01 -.205E+00   -.734E+00 0.267E+01 0.211E+00   -.150E-01 0.154E+00 -.305E-02   -.642E-05 0.518E-06 -.108E-04
 -----------------------------------------------------------------------------------------------
   0.222E-06 -.495E+01 0.177E-03   0.324E-12 -.449E-12 -.553E-12   -.454E-15 0.494E+01 -.824E-17   0.572E-12 0.717E-03 0.952E-12
 
 
 POSITION                                       TOTAL-FORCE (eV/Angst)
 -----------------------------------------------------------------------------------
      1.33238      1.30873      1.30792        -0.000131     -0.000702      0.000168
      6.58985      1.30873      1.33085        -0.000131     -0.000702      0.000168
      1.33238      6.56703      1.30792        -0.000131     -0.000702      0.000168
      6.58985      6.56703      1.33085        -0.000131     -0.000702      0.000168
      3.93644      3.93788      1.31749         0.000131     -0.000702     -0.000168
      9.19391      3.93788      1.34042         0.000131     -0.000702     -0.000168
      3.93644      9.19618      1.31749         0.000131     -0.000702     -0.000168
      9.19391      9.19618      1.34042         0.000131     -0.000702     -0.000168
      1.35410      3.92793      9.11436        -0.000000     -0.000811     -0.000000
      6.61157      3.92793      9.13730        -0.000000     -0.000811     -0.000000
      1.35410      9.18623      9.11436        -0.000000     -0.000811     -0.000000
      6.61157      9.18623      9.13730        -0.000000     -0.000811     -0.000000
      3.98284      1.32263      9.12583        -0.000000     -0.000152     -0.000000
      9.24030      1.32263      9.14877        -0.000000     -0.000152     -0.000000
      3.98284      6.58093      9.12583        -0.000000     -0.000152     -0.000000
      9.24030      6.58093      9.14877        -0.000000     -0.000152     -0.000000
      1.33041      1.30873      6.51095         0.000131     -0.000702     -0.000168
      6.58788      1.30873      6.53388         0.000131     -0.000702     -0.000168
      1.33041      6.56703      6.51095         0.000131     -0.000702     -0.000168
      6.58788      6.56703      6.53388         0.000131     -0.000702     -0.000168
      3.98382      3.93788      6.52431        -0.000131     -0.000702      0.000168
      9.24129      3.93788      6.54725        -0.000131     -0.000702      0.000168
      3.98382      9.19618      6.52431        -0.000131     -0.000702      0.000168
      9.24129      9.19618      6.54725        -0.000131     -0.000702      0.000168
      3.96013      1.29878      3.92090        -0.000000     -0.000811     -0.000000
      9.21760      1.29878      3.94383        -0.000000     -0.000811     -0.000000
      3.96013      6.55708      3.92090        -0.000000     -0.000811     -0.000000
      9.21760      6.55708      3.94383        -0.000000     -0.000811     -0.000000
      1.33140      3.95178      3.90943        -0.000000     -0.000152     -0.000000
      6.58886      3.95178      3.93237        -0.000000     -0.000152     -0.000000
      1.33140      9.21008      3.90943        -0.000000     -0.000152     -0.000000
      6.58886      9.21008      3.93237        -0.000000     -0.000152     -0.000000
     10.53566      0.00495      5.25080         0.000224      0.000533     -0.001298
      5.27820      0.00495      5.22787         0.000224      0.000533     -0.001298
     10.53566      5.26325      5.25080         0.000224      0.000533     -0.001298
      5.27820      5.26325      5.22787         0.000224      0.000533     -0.001298
      2.64206      0.00495      2.61393        -0.000224      0.000533      0.001298
      7.89953      0.00495      2.63687        -0.000224      0.000533      0.001298
      2.64206      5.26325      2.61393        -0.000224      0.000533      0.001298
      7.89953      5.26325      2.63687        -0.000224      0.000533      0.001298
      2.62676      2.63410      0.01147         0.000224      0.000533     -0.001298
      7.88422      2.63410      0.03440         0.000224      0.000533     -0.001298
      2.62676      7.89240      0.01147         0.000224      0.000533     -0.001298
      7.88422      7.89240      0.03440         0.000224      0.000533     -0.001298
      0.03604      2.63410      7.80740        -0.000224      0.000533      0.001298
      5.29350      2.63410      7.83033        -0.000224      0.000533      0.001298
      0.03604      7.89240      7.80740        -0.000224      0.000533      0.001298
      5.29350      7.89240      7.83033        -0.000224      0.000533      0.001298
     10.51386      0.00476      0.04632         0.000516      0.000651     -0.002649
      5.25640      0.00476      0.02339         0.000516      0.000651     -0.002649
     10.51386      5.26306      0.04632         0.000516      0.000651     -0.002649
      5.25640      5.26306      0.02339         0.000516      0.000651     -0.002649
      2.66386      0.00476      7.81841        -0.000516      0.000651      0.002649
      7.92133      0.00476      7.84135        -0.000516      0.000651      0.002649
      2.66386      5.26306      7.81841        -0.000516      0.000651      0.002649
      7.92133      5.26306      7.84135        -0.000516      0.000651      0.002649
      2.65037      2.63391      5.21685         0.000516      0.000651     -0.002649
      7.90784      2.63391      5.23979         0.000516      0.000651     -0.002649
      2.65037      7.89221      5.21685         0.000516      0.000651     -0.002649
      7.90784      7.89221      5.23979         0.000516      0.000651     -0.002649
      0.01242      2.63391      2.60201        -0.000516      0.000651      0.002649
      5.26989      2.63391      2.62495        -0.000516      0.000651      0.002649
      0.01242      7.89221      2.60201        -0.000516      0.000651      0.002649
      5.26989      7.89221      2.62495        -0.000516      0.000651      0.002649
 -----------------------------------------------------------------------------------
    total drift:                                0.000000     -0.003273      0.000177


--------------------------------------------------------------------------------------------------------



  FREE ENERGIE OF THE ION-ELECTRON SYSTEM (eV)
  ---------------------------------------------------
  free  energy   TOTEN  =      -328.11589112 eV

  energy  without entropy=     -328.11589112  energy(sigma->0) =     -328.11589112
 


--------------------------------------------------------------------------------------------------------


    POTLOK:  cpu time    0.1660: real time    0.1707


--------------------------------------------------------------------------------------------------------


 writing wavefunctions
     LOOP+:  cpu time 3879.3433: real time 3906.8263
    4ORBIT:  cpu time    0.0000: real time    0.0000
 


 total charge     
 
# of ion       s       p       d       tot
------------------------------------------
    1        1.313   2.410   0.000   3.724
    2        1.313   2.410   0.000   3.724
    3        1.313   2.410   0.000   3.724
    4        1.313   2.410   0.000   3.724
    5        1.313   2.410   0.000   3.724
    6        1.313   2.410   0.000   3.724
    7        1.313   2.410   0.000   3.724
    8        1.313   2.410   0.000   3.724
    9        1.314   2.410   0.000   3.723
   10        1.314   2.410   0.000   3.723
   11        1.314   2.410   0.000   3.723
   12        1.314   2.410   0.000   3.723
   13        1.313   2.411   0.000   3.724
   14        1.313   2.411   0.000   3.724
   15        1.313   2.411   0.000   3.724
   16        1.313   2.411   0.000   3.724
   17        1.313   2.410   0.000   3.724
   18        1.313   2.410   0.000   3.724
   19        1.313   2.410   0.000   3.724
   20        1.313   2.410   0.000   3.724
   21        1.313   2.410   0.000   3.724
   22        1.313   2.410   0.000   3.724
   23        1.313   2.410   0.000   3.724
   24        1.313   2.410   0.000   3.724
   25        1.314   2.410   0.000   3.723
   26        1.314   2.410   0.000   3.723
   27        1.314   2.410   0.000   3.723
   28        1.314   2.410   0.000   3.723
   29        1.313   2.411   0.000   3.724
   30        1.313   2.411   0.000   3.724
   31        1.313   2.411   0.000   3.724
   32        1.313   2.411   0.000   3.724
   33        0.260   6.202   8.917  15.378
   34        0.260   6.202   8.917  15.378
   35        0.260   6.202   8.917  15.378
   36        0.260   6.202   8.917  15.378
   37        0.260   6.202   8.917  15.378
   38        0.260   6.202   8.917  15.378
   39        0.260   6.202   8.917  15.378
   40        0.260   6.202   8.917  15.378
   41        0.260   6.202   8.917  15.378
   42        0.260   6.202   8.917  15.378
   43        0.260   6.202   8.917  15.378
   44        0.260   6.202   8.917  15.378
   45        0.260   6.202   8.917  15.378
   46        0.260   6.202   8.917  15.378
   47        0.260   6.202   8.917  15.378
   48        0.260   6.202   8.917  15.378
   49        0.350   6.351   5.820  12.521
   50        0.350   6.351   5.820  12.521
   51        0.350   6.351   5.820  12.521
   52        0.350   6.351   5.820  12.521
   53        0.350   6.351   5.820  12.521
   54        0.350   6.351   5.820  12.521
   55        0.350   6.351   5.820  12.521
   56        0.350   6.351   5.820  12.521
   57        0.350   6.351   5.820  12.521
   58        0.350   6.351   5.820  12.521
   59        0.350   6.351   5.820  12.521
   60        0.350   6.351   5.820  12.521
   61        0.350   6.351   5.820  12.521
   62        0.350   6.351   5.820  12.521
   63        0.350   6.351   5.820  12.521
   64        0.350   6.351   5.820  12.521
--------------------------------------------------
tot         51.789 277.978 235.780 565.547
 


 magnetization (x)
 
# of ion       s       p       d       tot
------------------------------------------
    1       -0.000  -0.002   0.000  -0.002
    2       -0.000  -0.002   0.000  -0.002
    3       -0.000  -0.002   0.000  -0.002
    4       -0.000  -0.002   0.000  -0.002
    5        0.000   0.002   0.000   0.002
    6        0.000   0.002   0.000   0.002
    7        0.000   0.002   0.000   0.002
    8        0.000   0.002   0.000   0.002
    9        0.000   0.000   0.000   0.000
   10        0.000  -0.000   0.000  -0.000
   11        0.000   0.000   0.000   0.000
   12        0.000  -0.000   0.000  -0.000
   13       -0.000  -0.000   0.000  -0.000
   14       -0.000  -0.000   0.000  -0.000
   15       -0.000  -0.000   0.000  -0.000
   16       -0.000  -0.000   0.000  -0.000
   17        0.000   0.002   0.000   0.002
   18        0.000   0.002   0.000   0.002
   19        0.000   0.002   0.000   0.002
   20        0.000   0.002   0.000   0.002
   21       -0.000  -0.002   0.000  -0.002
   22       -0.000  -0.002   0.000  -0.002
   23       -0.000  -0.002   0.000  -0.002
   24       -0.000  -0.002   0.000  -0.002
   25        0.000  -0.000   0.000  -0.000
   26        0.000  -0.000   0.000  -0.000
   27        0.000  -0.000   0.000  -0.000
   28        0.000  -0.000   0.000  -0.000
   29       -0.000  -0.000   0.000  -0.000
   30       -0.000   0.000   0.000   0.000
   31       -0.000  -0.000   0.000  -0.000
   32       -0.000   0.000   0.000   0.000
   33        0.000   0.000  -0.001   0.000
   34        0.000   0.000  -0.001   0.000
   35        0.000   0.000  -0.001   0.000
   36        0.000   0.000  -0.001   0.000
   37       -0.000  -0.000   0.001  -0.000
   38       -0.000  -0.000   0.001  -0.000
   39       -0.000  -0.000   0.001  -0.000
   40       -0.000  -0.000   0.001  -0.000
   41        0.000   0.000  -0.001   0.000
   42        0.000   0.000  -0.001   0.000
   43        0.000   0.000  -0.001   0.000
   44        0.000   0.000  -0.001   0.000
   45       -0.000  -0.000   0.001  -0.000
   46       -0.000  -0.000   0.001  -0.000
   47       -0.000  -0.000   0.001  -0.000
   48       -0.000  -0.000   0.001  -0.000
   49        0.020   0.054   3.671   3.744
   50        0.020   0.054   3.671   3.744
   51        0.020   0.054   3.671   3.744
   52        0.020   0.054   3.671   3.744
   53       -0.020  -0.054  -3.671  -3.744
   54       -0.020  -0.054  -3.671  -3.744
   55       -0.020  -0.054  -3.671  -3.744
   56       -0.020  -0.054  -3.671  -3.744
   57        0.020   0.054   3.671   3.744
   58        0.020   0.054   3.671   3.744
   59        0.020   0.054   3.671   3.744
   60        0.020   0.054   3.671   3.744
   61       -0.020  -0.054  -3.671  -3.744
   62       -0.020  -0.054  -3.671  -3.744
   63       -0.020  -0.054  -3.671  -3.744
   64       -0.020  -0.054  -3.671  -3.744
--------------------------------------------------
tot          0.000  -0.000   0.000   0.000
 
 BZINTS: Fermi energy:  4.990578;688.000000 electrons
         Band energy:***********;  BLOECHL correction:  0.000000

 total amount of memory used by VASP MPI-rank0   349631. kBytes
=======================================================================

   base      :      30000. kBytes
   nonl-proj :     217907. kBytes
   fftplans  :       4588. kBytes
   grid      :      69719. kBytes
   one-center:       1990. kBytes
   wavefun   :      25427. kBytes
 
  
  
 General timing and accounting informations for this job:
 ========================================================
  
                  Total CPU time used (sec):     3939.569
                            User time (sec):     3928.037
                          System time (sec):       11.532
                         Elapsed time (sec):     3969.116
  
                   Maximum memory used (kb):      726068.
                   Average memory used (kb):           0.
  
                          Minor page faults:       539775
                          Major page faults:         5931
                 Voluntary context switches:         7314
