       N       E                     dE             d eps       ncg     rms          ort
SDA:   1    -0.818323502125E+02   -0.81832E+02    0.00000E+00  7488   0.134E-03 0.000E+00
CGA:   2    -0.818323745870E+02   -0.24375E-04   -0.25200E-04  7488   0.616E-04 0.773E-04
CGA:   3    -0.818323907307E+02   -0.16144E-04   -0.30173E-05  7488   0.428E-04 0.397E-04
CGA:   4    -0.818324005336E+02   -0.98028E-05   -0.24449E-05  7488   0.344E-04 0.310E-04
CGA:   5    -0.818324049977E+02   -0.44642E-05   -0.13093E-05  7488   0.267E-04 0.260E-04
CGA:   6    -0.818324068044E+02   -0.18066E-05   -0.12879E-05  7488   0.222E-04 0.219E-04
CGA:   7    -0.818324096869E+02   -0.28825E-05   -0.82422E-06  7488   0.185E-04 0.182E-04
CGA:   8    -0.818324110971E+02   -0.14102E-05   -0.71248E-06  7488   0.157E-04 0.157E-04
CGA:   9    -0.818324126651E+02   -0.15680E-05   -0.53931E-06  7488   0.134E-04 0.135E-04
CGA:  10    -0.818324136326E+02   -0.96745E-06   -0.45348E-06  7488   0.116E-04 0.117E-04
CGA:  11    -0.818324145638E+02   -0.93124E-06   -0.37277E-06  7488   0.101E-04 0.102E-04
CGA:  12    -0.818324152429E+02   -0.67908E-06   -0.30964E-06  7488   0.888E-05 0.894E-05
CGA:  13    -0.818324158670E+02   -0.62409E-06   -0.26332E-06  7488   0.784E-05 0.788E-05
CGA:  14    -0.818324163693E+02   -0.50235E-06   -0.21708E-06  7488   0.698E-05 0.699E-05
CGA:  15    -0.818324168159E+02   -0.44662E-06   -0.18813E-06  7488   0.624E-05 0.624E-05
CGA:  16    -0.818324171961E+02   -0.38017E-06   -0.15580E-06  7488   0.563E-05 0.560E-05
CGA:  17    -0.818324175272E+02   -0.33106E-06   -0.13668E-06  7488   0.509E-05 0.506E-05
CGA:  18    -0.818324178199E+02   -0.29271E-06   -0.11488E-06  7488   0.464E-05 0.459E-05
CGA:  19    -0.818324180765E+02   -0.25662E-06   -0.10111E-06  7488   0.425E-05 0.419E-05
CGA:  20    -0.818324183184E+02   -0.24187E-06   -0.85632E-07  7488   0.391E-05 0.384E-05
CGA:  21    -0.818324185367E+02   -0.21835E-06   -0.74262E-07  7488   0.362E-05 0.354E-05
CGA:  22    -0.818324187408E+02   -0.20406E-06   -0.63290E-07  7488   0.337E-05 0.329E-05
CGA:  23    -0.818324189110E+02   -0.17025E-06   -0.55147E-07  7488   0.315E-05 0.307E-05
CGA:  24    -0.818324190512E+02   -0.14017E-06   -0.48865E-07  7488   0.296E-05 0.287E-05
CGA:  25    -0.818324191535E+02   -0.10230E-06   -0.44755E-07  7488   0.279E-05 0.270E-05
CGA:  26    -0.818324192426E+02   -0.89065E-07   -0.41484E-07  7488   0.263E-05 0.253E-05
CGA:  27    -0.818324193199E+02   -0.77292E-07   -0.38652E-07  7488   0.248E-05 0.238E-05
CGA:  28    -0.818324194036E+02   -0.83706E-07   -0.35522E-07  7488   0.234E-05 0.224E-05
CGA:  29    -0.818324194816E+02   -0.78042E-07   -0.32477E-07  7488   0.222E-05 0.211E-05
CGA:  30    -0.818324195728E+02   -0.91211E-07   -0.29205E-07  7488   0.210E-05 0.200E-05
CGA:  31    -0.818324196715E+02   -0.98698E-07   -0.25673E-07  7488   0.200E-05 0.189E-05
CGA:  32    -0.818324198107E+02   -0.13917E-06   -0.21746E-07  7488   0.191E-05 0.181E-05
CGA:  33    -0.818324200027E+02   -0.19204E-06   -0.17359E-07  7488   0.184E-05 0.174E-05
CGA:  34    -0.818324203014E+02   -0.29872E-06   -0.13070E-07  7488   0.178E-05 0.169E-05
CGA:  35    -0.818324207044E+02   -0.40299E-06   -0.93786E-08  7488   0.174E-05 0.166E-05
CGA:  36    -0.818324211290E+02   -0.42456E-06   -0.68600E-08  7488   0.171E-05 0.163E-05
CGA:  37    -0.818324218488E+02   -0.71977E-06   -0.49952E-08  7488   0.167E-05 0.162E-05
CGA:  38    -0.818324228869E+02   -0.10382E-05   -0.30147E-08  7488   0.165E-05 0.162E-05
CGA:  39    -0.818324234719E+02   -0.58500E-06   -0.18085E-08  7488   0.163E-05 0.163E-05
CGA:  40    -0.818324231566E+02    0.31528E-06   -0.28581E-08  7488   0.162E-05 0.162E-05
CGA:  41    -0.818324212622E+02    0.18944E-05   -0.29509E-07  7488   0.154E-05 0.155E-05
CGA:  42    -0.818324199473E+02    0.13150E-05   -0.25206E-08  7488   0.155E-05 0.147E-05
CGA:  43    -0.818324199727E+02   -0.25422E-07   -0.21789E-07  7488   0.148E-05 0.138E-05
CGA:  44    -0.818324199677E+02    0.50059E-08   -0.98592E-08  7488   0.143E-05 0.143E-05
   1 F= -.81832420E+02 E0= -.81832420E+02  d E =0.000000E+00  mag=     0.0000    -0.0000     0.0000
