 vasp.5.4.4.18Apr17-6-g9f103f2a35 (build Oct 30 2023 17:49:44) complex          
  
 executed on             LinuxIFC date 2024.12.09  13:19:59
 running on  256 total cores
 distrk:  each k-point on  256 cores,    1 groups
 distr:  one band on NCORES_PER_BAND=  32 cores,    8 groups


--------------------------------------------------------------------------------------------------------


 INCAR:
 POTCAR:    PAW_PBE S 06Sep2000                   
 POTCAR:     PAW_PBE Cu_pv 06Sep2000              
 POTCAR:     PAW_PBE Fe_pv 02Aug2007              
 POTCAR:    PAW_PBE S 06Sep2000                   
   SHA256 =  0fc7481fb0695f01bdc6462160264c5c84044ae9ec85a907d398b887a2bc3132 S/
   COPYR  = (c) Copyright 06Sep2000 Georg Kresse                                
   COPYR  = This file is part of the software VASP. Any use, copying, and all ot
   COPYR  = If you do not have a valid VASP license, you may not use, copy or di
   VRHFIN =S : s2p4                                                             
   LEXCH  = PE                                                                  
   EATOM  =   276.8230 eV,   20.3459 Ry                                         
                                                                                
   TITEL  = PAW_PBE S 06Sep2000                                                 
   LULTRA =        F    use ultrasoft PP ?                                      
   IUNSCR =        1    unscreen: 0-lin 1-nonlin 2-no                           
   RPACOR =    1.500    partial core radius                                     
   POMASS =   32.066; ZVAL   =    6.000    mass and valenz                      
   RCORE  =    1.900    outmost cutoff radius                                   
   RWIGS  =    2.200; RWIGS  =    1.164    wigner-seitz radius (au A)           
   ENMAX  =  258.689; ENMIN  =  194.016 eV                                      
   ICORE  =        2    local potential                                         
   LCOR   =        T    correct aug charges                                     
   LPAW   =        T    paw PP                                                  
   EAUG   =  335.092                                                            
   DEXC   =    0.000                                                            
   RMAX   =    1.942    core radius for proj-oper                               
   RAUG   =    1.300    factor for augmentation sphere                          
   RDEP   =    1.954    radius for radial grids                                 
   RDEPT  =    1.744    core radius for aug-charge                              
                                                                                
   Atomic configuration                                                         
    6 entries                                                                   
     n  l   j            E        occ.                                          
     1  0  0.50     -2405.8406   2.0000                                         
     2  0  0.50      -211.7007   2.0000                                         
     2  1  1.50      -156.4958   6.0000                                         
     3  0  0.50       -17.2562   2.0000                                         
     3  1  0.50        -7.0085   4.0000                                         
     3  2  1.50        -6.8029   0.0000                                         
   Description                                                                  
     l       E           TYP  RCUT    TYP  RCUT                                 
     0    -17.2561641     23  1.900                                             
     0    -15.8743224     23  1.900                                             
     1     -7.0085400     23  1.900                                             
     1     -2.7779785     23  1.900                                             
     2     -6.8029130     23  1.900                                             
  local pseudopotential read in
  partial core-charges read in
  partial kinetic energy density read in
  atomic valenz-charges read in
  non local Contribution for L=           0  read in
    real space projection operators read in
  non local Contribution for L=           0  read in
    real space projection operators read in
  non local Contribution for L=           1  read in
    real space projection operators read in
  non local Contribution for L=           1  read in
    real space projection operators read in
    PAW grid and wavefunctions read in
 
   number of l-projection  operators is LMAX  =           4
   number of lm-projection operators is LMMAX =           8
 
 POTCAR:     PAW_PBE Cu_pv 06Sep2000              
   SHA256 =  cb7b504e2ea725fe1f25c85a9ac77d4012ce94cd394135b722c4e25ec297f1cb Cu
   COPYR  = (c) Copyright 06Sep2000 Georg Kresse                                
   COPYR  = This file is part of the software VASP. Any use, copying, and all ot
   COPYR  = If you do not have a valid VASP license, you may not use, copy or di
   VRHFIN =Cu: d10 p1                                                           
   LEXCH  = PE                                                                  
   EATOM  =  4120.1201 eV,  302.8203 Ry                                         
                                                                                
   TITEL  = PAW_PBE Cu_pv 06Sep2000                                             
   LULTRA =        F    use ultrasoft PP ?                                      
   IUNSCR =        1    unscreen: 0-lin 1-nonlin 2-no                           
   RPACOR =    1.500    partial core radius                                     
   POMASS =   63.546; ZVAL   =   17.000    mass and valenz                      
   RCORE  =    2.000    outmost cutoff radius                                   
   RWIGS  =    2.000; RWIGS  =    1.058    wigner-seitz radius (au A)           
   ENMAX  =  368.648; ENMIN  =  276.486 eV                                      
   RCLOC  =    1.304    cutoff for local pot                                    
   LCOR   =        T    correct aug charges                                     
   LPAW   =        T    paw PP                                                  
   EAUG   =  758.233                                                            
   DEXC   =    0.000                                                            
   RMAX   =    2.046    core radius for proj-oper                               
   RAUG   =    1.300    factor for augmentation sphere                          
   RDEP   =    2.025    radius for radial grids                                 
   RDEPT  =    1.558    core radius for aug-charge                              
                                                                                
   Atomic configuration                                                         
    8 entries                                                                   
     n  l   j            E        occ.                                          
     1  0  0.50     -8850.2467   2.0000                                         
     2  0  0.50     -1062.3498   2.0000                                         
     2  1  1.50      -916.8226   6.0000                                         
     3  0  0.50      -114.6929   2.0000                                         
     3  1  1.50       -72.1325   6.0000                                         
     3  2  2.50        -5.0394  10.0000                                         
     4  0  0.50        -4.6097   1.0000                                         
     4  3  2.50        -1.3606   0.0000                                         
   Description                                                                  
     l       E           TYP  RCUT    TYP  RCUT                                 
     1    -72.1324777     23  1.700                                             
     1     -1.3605826     23  1.700                                             
     2     -5.0393776     23  2.000                                             
     2     -6.3999602     23  2.000                                             
     0     -4.6097062     23  1.800                                             
     0     14.1620818     23  1.800                                             
  local pseudopotential read in
  partial core-charges read in
  partial kinetic energy density read in
  atomic valenz-charges read in
  non local Contribution for L=           1  read in
    real space projection operators read in
  non local Contribution for L=           1  read in
    real space projection operators read in
  non local Contribution for L=           2  read in
    real space projection operators read in
  non local Contribution for L=           2  read in
    real space projection operators read in
  non local Contribution for L=           0  read in
    real space projection operators read in
  non local Contribution for L=           0  read in
    real space projection operators read in
    PAW grid and wavefunctions read in
 
   number of l-projection  operators is LMAX  =           6
   number of lm-projection operators is LMMAX =          18
 
 POTCAR:     PAW_PBE Fe_pv 02Aug2007              
   SHA256 =  5d22e414b1f82158bf2c7ecb8b97b28fd0923e48cadc1c3bf74d524558f5dd32 Fe
   COPYR  = (c) Copyright 02Aug2007 Georg Kresse                                
   COPYR  = This file is part of the software VASP. Any use, copying, and all ot
   COPYR  = If you do not have a valid VASP license, you may not use, copy or di
   VRHFIN =Fe:  3pd7s1                                                          
   LEXCH  = PE                                                                  
   EATOM  =  2457.4239 eV,  180.6156 Ry                                         
                                                                                
   TITEL  = PAW_PBE Fe_pv 02Aug2007                                             
   LULTRA =        F    use ultrasoft PP ?                                      
   IUNSCR =        1    unscreen: 0-lin 1-nonlin 2-no                           
   RPACOR =    1.750    partial core radius                                     
   POMASS =   55.847; ZVAL   =   14.000    mass and valenz                      
   RCORE  =    2.200    outmost cutoff radius                                   
   RWIGS  =    2.200; RWIGS  =    1.164    wigner-seitz radius (au A)           
   ENMAX  =  293.238; ENMIN  =  219.928 eV                                      
   ICORE  =        3    local potential                                         
   LCOR   =        T    correct aug charges                                     
   LPAW   =        T    paw PP                                                  
   EAUG   =  578.342                                                            
   DEXC   =    0.000                                                            
   RMAX   =    2.249    core radius for proj-oper                               
   RAUG   =    1.300    factor for augmentation sphere                          
   RDEP   =    2.296    radius for radial grids                                 
   RDEPT  =    1.766    core radius for aug-charge                              
                                                                                
   Atomic configuration                                                         
    8 entries                                                                   
     n  l   j            E        occ.                                          
     1  0  0.50     -6993.8440   2.0000                                         
     2  0  0.50      -814.6047   2.0000                                         
     2  1  1.50      -693.3689   6.0000                                         
     3  0  0.50       -89.4732   2.0000                                         
     3  1  1.50       -55.6373   6.0000                                         
     3  2  2.50        -3.8151   7.0000                                         
     4  0  0.50        -4.2551   1.0000                                         
     4  3  2.50        -1.3606   0.0000                                         
   Description                                                                  
     l       E           TYP  RCUT    TYP  RCUT                                 
     1    -55.6372668     23  2.000                                             
     1     -5.4423304     23  2.000                                             
     2     -3.8151096     23  2.200                                             
     2     -5.1756922     23  2.200                                             
     0     -4.2550951     23  2.200                                             
     0     27.2116520     23  2.200                                             
     3     -1.3605826     23  2.200                                             
  local pseudopotential read in
  partial core-charges read in
  partial kinetic energy density read in
  atomic valenz-charges read in
  non local Contribution for L=           1  read in
    real space projection operators read in
  non local Contribution for L=           1  read in
    real space projection operators read in
  non local Contribution for L=           2  read in
    real space projection operators read in
  non local Contribution for L=           2  read in
    real space projection operators read in
  non local Contribution for L=           0  read in
    real space projection operators read in
  non local Contribution for L=           0  read in
    real space projection operators read in
    PAW grid and wavefunctions read in
 
   number of l-projection  operators is LMAX  =           6
   number of lm-projection operators is LMMAX =          18
 

 ----------------------------------------------------------------------------- 
|                                                                             |
|  ADVICE TO THIS USER RUNNING 'VASP/VAMP'   (HEAR YOUR MASTER'S VOICE ...):  |
|                                                                             |
|      You enforced a specific xc-type in the INCAR file,                     |
|      a different type was found on the POTCAR file                          |
|          I HOPE YOU KNOW, WHAT YOU ARE  DOING                               |
|                                                                             |
 ----------------------------------------------------------------------------- 

  PAW_PBE S 06Sep2000                   :
 energy of atom  1       EATOM= -276.8230
 kinetic energy error for atom=    0.0007 (will be added to EATOM!!)
   PAW_PBE Cu_pv 06Sep2000              :
 energy of atom  2       EATOM=-4120.1201
 kinetic energy error for atom=    0.0094 (will be added to EATOM!!)
   PAW_PBE Fe_pv 02Aug2007              :
 energy of atom  3       EATOM=-2457.4239
 kinetic energy error for atom=    0.0025 (will be added to EATOM!!)
 
 
 POSCAR: sm_isp_SD0310437-standardized_unitcell  
  positions in direct lattice
  velocities in cartesian coordinates
 exchange correlation table for  LEXCH =       14
   RHO(1)=    0.500       N(1)  =     2000
   RHO(2)=  100.500       N(2)  =     4000
 


--------------------------------------------------------------------------------------------------------


 ion  position               nearest neighbor table
   1  0.252  0.250  0.125-  10 2.24  11 2.24  16 2.26  13 2.26
   2  0.748  0.750  0.125-  10 2.24  11 2.24  16 2.26  13 2.26
   3  0.250  0.747  0.875-  11 2.25  12 2.25  13 2.26  14 2.26
   4  0.750  0.253  0.875-  11 2.25  12 2.25  13 2.26  14 2.26
   5  0.248  0.250  0.625-   9 2.24  12 2.24  15 2.26  14 2.26
   6  0.752  0.750  0.625-   9 2.24  12 2.24  15 2.26  14 2.26
   7  0.750  0.247  0.375-  10 2.25   9 2.25  15 2.26  16 2.26
   8  0.250  0.753  0.375-  10 2.25   9 2.25  15 2.26  16 2.26
   9  0.000  0.000  0.501-   5 2.24   6 2.24   7 2.25   8 2.25
  10  0.500  0.000  0.249-   1 2.24   2 2.24   7 2.25   8 2.25
  11  0.500  0.500  0.001-   1 2.24   2 2.24   4 2.25   3 2.25
  12  0.000  0.500  0.749-   5 2.24   6 2.24   4 2.25   3 2.25
  13  0.000  0.000  1.000-   2 2.26   1 2.26   3 2.26   4 2.26
  14  0.500  0.000  0.750-   6 2.26   5 2.26   3 2.26   4 2.26
  15  0.500  0.500  0.500-   6 2.26   5 2.26   8 2.26   7 2.26
  16  0.000  0.500  0.250-   2 2.26   1 2.26   8 2.26   7 2.26
 
  LATTYP: Found a simple orthorhombic cell.
 ALAT       =     5.0484342293
 B/A-ratio  =     1.0994245143
 C/A-ratio  =     1.9792277963
  
  Lattice vectors:
  
 A1 = (   5.0484342293,   0.0000000000,   0.0000000000)
 A2 = (   0.0000000000,   5.5503723505,   0.0000000000)
 A3 = (   0.0000000000,   0.0000000000,   9.9920013545)


Analysis of symmetry for initial positions (statically):
=====================================================================
 Subroutine PRICEL returns following result:
 
  LATTYP: Found a body centered orthorhombic cell.
 ALAT       =     5.0484342293
 B/A-ratio  =     1.0994245143
 C/A-ratio  =     1.9792277963
  
  Lattice vectors:
  
 A1 = (   2.5242171146,  -2.7751861753,   4.9960006773)
 A2 = (  -2.5242171146,   2.7751861753,   4.9960006773)
 A3 = (  -2.5242171146,  -2.7751861753,  -4.9960006773)
 
   2 primitive cells build up your supercell.
 

 Routine SETGRP: Setting up the symmetry group for a 
 simple orthorhombic supercell.


 Subroutine GETGRP returns: Found  4 space group operations
 (whereof  2 operations were pure point group operations)
 out of a pool of  8 trial point group operations.


The static configuration has the point symmetry C_2 .
 The point group associated with its full space group is D_2 .


Analysis of symmetry for dynamics (positions and initial velocities):
=====================================================================
 Subroutine PRICEL returns following result:
 
  LATTYP: Found a body centered orthorhombic cell.
 ALAT       =     5.0484342293
 B/A-ratio  =     1.0994245143
 C/A-ratio  =     1.9792277963
  
  Lattice vectors:
  
 A1 = (   2.5242171146,  -2.7751861753,   4.9960006773)
 A2 = (  -2.5242171146,   2.7751861753,   4.9960006773)
 A3 = (  -2.5242171146,  -2.7751861753,  -4.9960006773)
 
   2 primitive cells build up your supercell.
 

 Routine SETGRP: Setting up the symmetry group for a 
 simple orthorhombic supercell.


 Subroutine GETGRP returns: Found  4 space group operations
 (whereof  2 operations were pure point group operations)
 out of a pool of  8 trial point group operations.


The dynamic configuration has the point symmetry C_2 .
 The point group associated with its full space group is D_2 .


Analysis of structural, dynamic, and magnetic symmetry:
=====================================================================
 Subroutine PRICEL returns following result:
 
  LATTYP: Found a body centered orthorhombic cell.
 ALAT       =     5.0484342293
 B/A-ratio  =     1.0994245143
 C/A-ratio  =     1.9792277963
  
  Lattice vectors:
  
 A1 = (   2.5242171146,  -2.7751861753,   4.9960006773)
 A2 = (  -2.5242171146,   2.7751861753,   4.9960006773)
 A3 = (  -2.5242171146,  -2.7751861753,  -4.9960006773)
 
   2 primitive cells build up your supercell.
 

 Routine SETGRP: Setting up the symmetry group for a 
 simple orthorhombic supercell.


 Subroutine GETGRP returns: Found  4 space group operations
 (whereof  2 operations were pure point group operations)
 out of a pool of  8 trial point group operations.


The (compounded) configuration has the point symmetry C_2 .
 The point group associated with its full space group is D_2 .


 Subroutine INISYM returns: Found  4 space group operations
 (whereof  2 operations are pure point group operations),
 and found     2 'primitive' translations

 
 
 KPOINTS: Automatic mesh                          

Automatic generation of k-mesh.
Space group operators:
 irot       det(A)        alpha          n_x          n_y          n_z        tau_x        tau_y        tau_z
    1     1.000000     0.000000     1.000000     0.000000     0.000000     0.000000     0.000000     0.000000
    2     1.000000   179.999999     0.000000     0.000000     1.000000     0.000000     0.000000     0.000000
    3     1.000000   180.000000     0.000000     1.000000     0.000000    -0.000000    -0.500000     0.250000
    4     1.000000   180.000000     1.000000     0.000000     0.000000    -0.000000    -0.500000     0.250000
 
 Subroutine IBZKPT returns following result:
 ===========================================
 
 Found     36 irreducible k-points:
 
 Following reciprocal coordinates:
            Coordinates               Weight
  0.000000  0.000000  0.000000      1.000000
  0.166667  0.000000  0.000000      2.000000
  0.333333  0.000000  0.000000      2.000000
  0.500000  0.000000  0.000000      1.000000
  0.000000  0.166667  0.000000      2.000000
  0.166667  0.166667  0.000000      4.000000
  0.333333  0.166667  0.000000      4.000000
  0.500000  0.166667  0.000000      2.000000
  0.000000  0.333333  0.000000      2.000000
  0.166667  0.333333  0.000000      4.000000
  0.333333  0.333333  0.000000      4.000000
  0.500000  0.333333  0.000000      2.000000
  0.000000  0.500000  0.000000      1.000000
  0.166667  0.500000  0.000000      2.000000
  0.333333  0.500000  0.000000      2.000000
  0.500000  0.500000  0.000000      1.000000
  0.000000  0.000000  0.333333      2.000000
  0.166667  0.000000  0.333333      4.000000
  0.333333  0.000000  0.333333      4.000000
  0.500000  0.000000  0.333333      2.000000
  0.000000  0.166667  0.333333      4.000000
  0.166667  0.166667  0.333333      4.000000
  0.333333  0.166667  0.333333      4.000000
  0.500000  0.166667  0.333333      4.000000
 -0.333333  0.166667  0.333333      4.000000
 -0.166667  0.166667  0.333333      4.000000
  0.000000  0.333333  0.333333      4.000000
  0.166667  0.333333  0.333333      4.000000
  0.333333  0.333333  0.333333      4.000000
  0.500000  0.333333  0.333333      4.000000
 -0.333333  0.333333  0.333333      4.000000
 -0.166667  0.333333  0.333333      4.000000
  0.000000  0.500000  0.333333      2.000000
  0.166667  0.500000  0.333333      4.000000
  0.333333  0.500000  0.333333      4.000000
  0.500000  0.500000  0.333333      2.000000
 
 Following cartesian coordinates:
            Coordinates               Weight
  0.000000  0.000000  0.000000      1.000000
  0.033014  0.000000  0.000000      2.000000
  0.066027  0.000000  0.000000      2.000000
  0.099041  0.000000  0.000000      1.000000
  0.000000  0.030028  0.000000      2.000000
  0.033014  0.030028  0.000000      4.000000
  0.066027  0.030028  0.000000      4.000000
  0.099041  0.030028  0.000000      2.000000
  0.000000  0.060056  0.000000      2.000000
  0.033014  0.060056  0.000000      4.000000
  0.066027  0.060056  0.000000      4.000000
  0.099041  0.060056  0.000000      2.000000
  0.000000  0.090084  0.000000      1.000000
  0.033014  0.090084  0.000000      2.000000
  0.066027  0.090084  0.000000      2.000000
  0.099041  0.090084  0.000000      1.000000
  0.000000  0.000000  0.033360      2.000000
  0.033014  0.000000  0.033360      4.000000
  0.066027  0.000000  0.033360      4.000000
  0.099041  0.000000  0.033360      2.000000
  0.000000  0.030028  0.033360      4.000000
  0.033014  0.030028  0.033360      4.000000
  0.066027  0.030028  0.033360      4.000000
  0.099041  0.030028  0.033360      4.000000
 -0.066027  0.030028  0.033360      4.000000
 -0.033014  0.030028  0.033360      4.000000
  0.000000  0.060056  0.033360      4.000000
  0.033014  0.060056  0.033360      4.000000
  0.066027  0.060056  0.033360      4.000000
  0.099041  0.060056  0.033360      4.000000
 -0.066027  0.060056  0.033360      4.000000
 -0.033014  0.060056  0.033360      4.000000
  0.000000  0.090084  0.033360      2.000000
  0.033014  0.090084  0.033360      4.000000
  0.066027  0.090084  0.033360      4.000000
  0.099041  0.090084  0.033360      2.000000
 
 TETIRR: Found    544 inequivalent tetrahedra from      648


--------------------------------------------------------------------------------------------------------




 Dimension of arrays:
   k-points           NKPTS =     36   k-points in BZ     NKDIM =     36   number of bands    NBANDS=    208
   number of dos      NEDOS =    301   number of ions     NIONS =     16
   non local maximal  LDIM  =      6   non local SUM 2l+1 LMDIM =     18
   total plane-waves  NPLWV = 207360
   max r-space proj   IRMAX =      1   max aug-charges    IRDMAX=  23530
   dimension x,y,z NGX =    48 NGY =   48 NGZ =   90
   dimension x,y,z NGXF=    96 NGYF=   96 NGZF=  180
   support grid    NGXF=    96 NGYF=   96 NGZF=  180
   ions per type =               8   4   4
   NGX,Y,Z   is equivalent  to a cutoff of  15.81, 14.38, 14.97 a.u.
   NGXF,Y,Z  is equivalent  to a cutoff of  31.61, 28.75, 29.95 a.u.

 SYSTEM =  CuFeS2                                  
 POSCAR =  sm_isp_SD0310437-standardized_unitcell  

 Startparameter for this run:
   NWRITE =      2    write-flag & timer
   PREC   = accura    normal or accurate (medium, high low for compatibility)
   ISTART =      1    job   : 0-new  1-cont  2-samecut
   ICHARG =      1    charge: 1-file 2-atom 10-const
   ISPIN  =      1    spin polarized calculation?
   LNONCOLLINEAR =      T non collinear calculations
   LSORBIT =      F    spin-orbit coupling
   INIWAV =      1    electr: 0-lowe 1-rand  2-diag
   LASPH  =      T    aspherical Exc in radial PAW
   METAGGA=      F    non-selfconsistent MetaGGA calc.

 Electronic Relaxation 1
   ENCUT  =  700.0 eV  51.45 Ry    7.17 a.u.  10.89 11.97 21.56*2*pi/ulx,y,z
   ENINI  =  700.0     initial cutoff
   ENAUG  =  758.2 eV  augmentation charge cutoff
   NELM   =    200;   NELMIN=  2; NELMDL=  0     # of ELM steps 
   EDIFF  = 0.1E-07   stopping-criterion for ELM
   LREAL  =      F    real-space projection
   NLSPLINE    = F    spline interpolate recip. space projectors
   LCOMPAT=      F    compatible to vasp.4.4
   GGA_COMPAT  = T    GGA compatible to vasp.4.4-vasp.4.6
   LMAXPAW     = -100 max onsite density
   LMAXMIX     =    4 max onsite mixed and CHGCAR
   VOSKOWN=      0    Vosko Wilk Nusair interpolation
   ROPT   =    0.00000   0.00000   0.00000
 Ionic relaxation
   EDIFFG = -.1E-04   stopping-criterion for IOM
   NSW    =      0    number of steps for IOM
   NBLOCK =      1;   KBLOCK =      1    inner block; outer block 
   IBRION =     -1    ionic relax: 0-MD 1-quasi-New 2-CG
   NFREE  =      0    steps in history (QN), initial steepest desc. (CG)
   ISIF   =      2    stress and relaxation
   IWAVPR =     10    prediction:  0-non 1-charg 2-wave 3-comb
   ISYM   =      1    0-nonsym 1-usesym 2-fastsym
   LCORR  =      T    Harris-Foulkes like correction to forces

   POTIM  = 0.1000    time-step for ionic-motion
   TEIN   =    0.0    initial temperature
   TEBEG  =    0.0;   TEEND  =   0.0 temperature during run
   SMASS  =  -3.00    Nose mass-parameter (am)
   estimated Nose-frequenzy (Omega)   =  0.10E-29 period in steps =****** mass=  -0.582E-27a.u.
   SCALEE = 1.0000    scale energy and forces
   NPACO  =    256;   APACO  = 16.0  distance and # of slots for P.C.
   PSTRESS=    0.0 pullay stress

  Mass of Ions in am
   POMASS =  32.07 63.55 55.85
  Ionic Valenz
   ZVAL   =   6.00 17.00 14.00
  Atomic Wigner-Seitz radii
   RWIGS  =  -1.00 -1.00 -1.00
  virtual crystal weights 
   VCA    =   1.00  1.00  1.00
   NELECT =     172.0000    total number of electrons
   NUPDOWN=      -1.0000    fix difference up-down

 DOS related values:
   EMIN   =  10.00;   EMAX   =-10.00  energy-range for DOS
   EFERMI =   0.00
   ISMEAR =    -5;   SIGMA  =   0.03  broadening in eV -4-tet -1-fermi 0-gaus

 Electronic relaxation 2 (details)
   IALGO  =     58    algorithm
   LDIAG  =      T    sub-space diagonalisation (order eigenvalues)
   LSUBROT=      F    optimize rotation matrix (better conditioning)
   TURBO    =      0    0=normal 1=particle mesh
   IRESTART =      0    0=no restart 2=restart with 2 vectors
   NREBOOT  =      0    no. of reboots
   NMIN     =      0    reboot dimension
   EREF     =   0.00    reference energy to select bands
   IMIX   =      4    mixing-type and parameters
     AMIX     =   0.40;   BMIX     =  1.00
     AMIX_MAG =   1.60;   BMIX_MAG =  1.00
     AMIN     =   0.10
     WC   =   100.;   INIMIX=   1;  MIXPRE=   1;  MAXMIX= -45

 Intra band minimization:
   WEIMIN = 0.0000     energy-eigenvalue tresh-hold
   EBREAK =  0.12E-10  absolut break condition
   DEPER  =   0.30     relativ break condition  

   TIME   =   0.40     timestep for ELM

  volume/ion in A,a.u.               =      17.50       118.09
  Fermi-wavevector in a.u.,A,eV,Ry     =   1.391684  2.629901 26.351540  1.936784
  Thomas-Fermi vector in A             =   2.515499
 
 Write flags
   LWAVE        =      T    write WAVECAR
   LDOWNSAMPLE  =      F    k-point downsampling of WAVECAR
   LCHARG       =      T    write CHGCAR
   LVTOT        =      F    write LOCPOT, total local potential
   LVHAR        =      F    write LOCPOT, Hartree potential only
   LELF         =      F    write electronic localiz. function (ELF)
   LORBIT       =     11    0 simple, 1 ext, 2 COOP (PROOUT), +10 PAW based schemes


 Dipole corrections
   LMONO  =      F    monopole corrections only (constant potential shift)
   LDIPOL =      F    correct potential (dipole corrections)
   IDIPOL =      0    1-x, 2-y, 3-z, 4-all directions 
   EPSILON=  1.0000000 bulk dielectric constant

 LDA+U is selected, type is set to LDAUTYPE =  2
   angular momentum for each species LDAUL =     2    2    2
   U (eV)           for each species LDAUU =   0.0  0.1  4.7
   J (eV)           for each species LDAUJ =   0.0  0.0  0.0
 Exchange correlation treatment:
   GGA     =    PS    GGA type
   LEXCH   =    14    internal setting for exchange type
   VOSKOWN=      0    Vosko Wilk Nusair interpolation
   LHFCALC =     F    Hartree Fock is set to
   LHFONE  =     F    Hartree Fock one center treatment
   AEXX    =    0.0000 exact exchange contribution

 Linear response parameters
   LEPSILON=     F    determine dielectric tensor
   LRPA    =     F    only Hartree local field effects (RPA)
   LNABLA  =     F    use nabla operator in PAW spheres
   LVEL    =     F    velocity operator in full k-point grid
   LINTERFAST=   F  fast interpolation
   KINTER  =     0    interpolate to denser k-point grid
   CSHIFT  =0.1000    complex shift for real part using Kramers Kronig
   OMEGAMAX=  -1.0    maximum frequency
   DEG_THRESHOLD= 0.2000000E-02 threshold for treating states as degnerate
   RTIME   =   -0.100 relaxation time in fs
  (WPLASMAI=    0.000 imaginary part of plasma frequency in eV, 0.658/RTIME)
   DFIELD  = 0.0000000 0.0000000 0.0000000 field for delta impulse in time
 
 Orbital magnetization related:
   ORBITALMAG=     F  switch on orbital magnetization
   LCHIMAG   =     F  perturbation theory with respect to B field
   DQ        =  0.001000  dq finite difference perturbation B field
   LLRAUG    =     F  two centre corrections for induced B field



--------------------------------------------------------------------------------------------------------


 Static calculation
 charge density and potential will be updated during run
 non collinear spin polarized calculation
 Conjugate gradient for all bands (Freysoldt, et al. PRB 79, 241103 (2009))
 preconditioned conjugated gradient                                        
 perform sub-space diagonalisation
    before iterative eigenvector-optimisation
 modified Broyden-mixing scheme, WC =      100.0
 initial mixing is a Kerker type mixing with AMIX =  0.4000 and BMIX =      1.0000
 Hartree-type preconditioning will be used
 using additional bands          122
 reciprocal scheme for non local part
 use partial core corrections
 no Harris-corrections to forces 
 use gradient corrections 
 use of overlap-Matrix (Vanderbilt PP)
 Fermi weights with tetrahedron method with Bloechl corrections


--------------------------------------------------------------------------------------------------------


  energy-cutoff  :      700.00
  volume of cell :      279.98
      direct lattice vectors                 reciprocal lattice vectors
     5.048434229  0.000000000  0.000000000     0.198081218  0.000000000  0.000000000
     0.000000000  5.550372351  0.000000000     0.000000000  0.180168093  0.000000000
     0.000000000  0.000000000  9.992001355     0.000000000  0.000000000  0.100080050

  length of vectors
     5.048434229  5.550372351  9.992001355     0.198081218  0.180168093  0.100080050


 
 old parameters found on file WAVECAR:
  energy-cutoff  :      700.00
  volume of cell :      279.85
      direct lattice vectors                 reciprocal lattice vectors
     5.048434229  0.000000000  0.000000000     0.198081218  0.000000000  0.000000000
     0.000000000  5.547693844  0.000000000     0.000000000  0.180255080  0.000000000
     0.000000000  0.000000000  9.992001355     0.000000000  0.000000000  0.100080050

  length of vectors

 
 k-points in units of 2pi/SCALE and weight: Automatic mesh                          
   0.00000000  0.00000000  0.00000000       0.009
   0.03301354  0.00000000  0.00000000       0.019
   0.06602707  0.00000000  0.00000000       0.019
   0.09904061  0.00000000  0.00000000       0.009
   0.00000000  0.03002802  0.00000000       0.019
   0.03301354  0.03002802  0.00000000       0.037
   0.06602707  0.03002802  0.00000000       0.037
   0.09904061  0.03002802  0.00000000       0.019
   0.00000000  0.06005603  0.00000000       0.019
   0.03301354  0.06005603  0.00000000       0.037
   0.06602707  0.06005603  0.00000000       0.037
   0.09904061  0.06005603  0.00000000       0.019
   0.00000000  0.09008405  0.00000000       0.009
   0.03301354  0.09008405  0.00000000       0.019
   0.06602707  0.09008405  0.00000000       0.019
   0.09904061  0.09008405  0.00000000       0.009
   0.00000000  0.00000000  0.03336002       0.019
   0.03301354  0.00000000  0.03336002       0.037
   0.06602707  0.00000000  0.03336002       0.037
   0.09904061  0.00000000  0.03336002       0.019
   0.00000000  0.03002802  0.03336002       0.037
   0.03301354  0.03002802  0.03336002       0.037
   0.06602707  0.03002802  0.03336002       0.037
   0.09904061  0.03002802  0.03336002       0.037
  -0.06602707  0.03002802  0.03336002       0.037
  -0.03301354  0.03002802  0.03336002       0.037
   0.00000000  0.06005603  0.03336002       0.037
   0.03301354  0.06005603  0.03336002       0.037
   0.06602707  0.06005603  0.03336002       0.037
   0.09904061  0.06005603  0.03336002       0.037
  -0.06602707  0.06005603  0.03336002       0.037
  -0.03301354  0.06005603  0.03336002       0.037
   0.00000000  0.09008405  0.03336002       0.019
   0.03301354  0.09008405  0.03336002       0.037
   0.06602707  0.09008405  0.03336002       0.037
   0.09904061  0.09008405  0.03336002       0.019
 
 k-points in reciprocal lattice and weights: Automatic mesh                          
   0.00000000  0.00000000  0.00000000       0.009
   0.16666667  0.00000000  0.00000000       0.019
   0.33333333  0.00000000  0.00000000       0.019
   0.50000000  0.00000000  0.00000000       0.009
   0.00000000  0.16666667  0.00000000       0.019
   0.16666667  0.16666667  0.00000000       0.037
   0.33333333  0.16666667  0.00000000       0.037
   0.50000000  0.16666667  0.00000000       0.019
   0.00000000  0.33333333  0.00000000       0.019
   0.16666667  0.33333333  0.00000000       0.037
   0.33333333  0.33333333  0.00000000       0.037
   0.50000000  0.33333333  0.00000000       0.019
   0.00000000  0.50000000  0.00000000       0.009
   0.16666667  0.50000000  0.00000000       0.019
   0.33333333  0.50000000  0.00000000       0.019
   0.50000000  0.50000000  0.00000000       0.009
   0.00000000  0.00000000  0.33333333       0.019
   0.16666667  0.00000000  0.33333333       0.037
   0.33333333  0.00000000  0.33333333       0.037
   0.50000000  0.00000000  0.33333333       0.019
   0.00000000  0.16666667  0.33333333       0.037
   0.16666667  0.16666667  0.33333333       0.037
   0.33333333  0.16666667  0.33333333       0.037
   0.50000000  0.16666667  0.33333333       0.037
  -0.33333333  0.16666667  0.33333333       0.037
  -0.16666667  0.16666667  0.33333333       0.037
   0.00000000  0.33333333  0.33333333       0.037
   0.16666667  0.33333333  0.33333333       0.037
   0.33333333  0.33333333  0.33333333       0.037
   0.50000000  0.33333333  0.33333333       0.037
  -0.33333333  0.33333333  0.33333333       0.037
  -0.16666667  0.33333333  0.33333333       0.037
   0.00000000  0.50000000  0.33333333       0.019
   0.16666667  0.50000000  0.33333333       0.037
   0.33333333  0.50000000  0.33333333       0.037
   0.50000000  0.50000000  0.33333333       0.019
 
 position of ions in fractional coordinates (direct lattice) 
   0.25181092  0.25000000  0.12500000
   0.74818911  0.75000000  0.12500000
   0.25000000  0.74702828  0.87500000
   0.75000000  0.25297175  0.87500000
   0.24818908  0.25000000  0.62500000
   0.75181089  0.75000000  0.62500000
   0.75000000  0.24702825  0.37500000
   0.25000000  0.75297172  0.37500000
   0.00000000  0.00000000  0.50102333
   0.50000000  0.00000000  0.24897667
   0.50000000  0.50000000  0.00102333
   0.00000000  0.50000000  0.74897667
   0.00000000  0.00000000  0.99985715
   0.50000000  0.00000000  0.75014285
   0.50000000  0.50000000  0.49985715
   0.00000000  0.50000000  0.25014285
 
 position of ions in cartesian coordinates  (Angst):
   1.27125086  1.38759309  1.24900017
   3.77718352  4.16277926  1.24900017
   1.26210856  4.14628513  8.74300119
   3.78632567  1.40408738  8.74300119
   1.25296625  1.38759309  6.24500085
   3.79546782  4.16277926  6.24500085
   3.78632567  1.37109879  3.74700051
   1.26210856  4.17927339  3.74700051
   0.00000000  0.00000000  5.00622577
   2.52421711  0.00000000  2.48777525
   2.52421711  2.77518618  0.01022509
   0.00000000  2.77518618  7.48377592
   0.00000000  0.00000000  9.99057395
   2.52421711  0.00000000  7.49542842
   2.52421711  2.77518618  4.99457327
   0.00000000  2.77518618  2.49942775
 
 Euler angles ALPHA=     0.0000000  BETA=     0.0000000

 transformation matrix from SAXIS to cartesian coordinates
 ---------------------------------------------------------
     1.0000000 m_x     0.0000000 m_y     0.0000000 m_z
     0.0000000 m_x     1.0000000 m_y     0.0000000 m_z
     0.0000000 m_x     0.0000000 m_y     1.0000000 m_z

 transformation matrix from cartesian coordinates to SAXIS
 ---------------------------------------------------------
     1.0000000 m_x     0.0000000 m_y     0.0000000 m_z
     0.0000000 m_x     1.0000000 m_y     0.0000000 m_z
     0.0000000 m_x     0.0000000 m_y     1.0000000 m_z




--------------------------------------------------------------------------------------------------------


 k-point  1 :   0.0000 0.0000 0.0000  plane waves:   23442
 k-point  2 :   0.1667 0.0000 0.0000  plane waves:   23552
 k-point  3 :   0.3333 0.0000 0.0000  plane waves:   23528
 k-point  4 :   0.5000 0.0000 0.0000  plane waves:   23556
 k-point  5 :   0.0000 0.1667 0.0000  plane waves:   23540
 k-point  6 :   0.1667 0.1667 0.0000  plane waves:   23524
 k-point  7 :   0.3333 0.1667 0.0000  plane waves:   23578
 k-point  8 :   0.5000 0.1667 0.0000  plane waves:   23596
 k-point  9 :   0.0000 0.3333 0.0000  plane waves:   23524
 k-point 10 :   0.1667 0.3333 0.0000  plane waves:   23552
 k-point 11 :   0.3333 0.3333 0.0000  plane waves:   23574
 k-point 12 :   0.5000 0.3333 0.0000  plane waves:   23580
 k-point 13 :   0.0000 0.5000 0.0000  plane waves:   23616
 k-point 14 :   0.1667 0.5000 0.0000  plane waves:   23568
 k-point 15 :   0.3333 0.5000 0.0000  plane waves:   23536
 k-point 16 :   0.5000 0.5000 0.0000  plane waves:   23608
 k-point 17 :   0.0000 0.0000 0.3333  plane waves:   23498
 k-point 18 :   0.1667 0.0000 0.3333  plane waves:   23488
 k-point 19 :   0.3333 0.0000 0.3333  plane waves:   23540
 k-point 20 :   0.5000 0.0000 0.3333  plane waves:   23544
 k-point 21 :   0.0000 0.1667 0.3333  plane waves:   23496
 k-point 22 :   0.1667 0.1667 0.3333  plane waves:   23542
 k-point 23 :   0.3333 0.1667 0.3333  plane waves:   23550
 k-point 24 :   0.5000 0.1667 0.3333  plane waves:   23544
 k-point 25 :  -0.3333 0.1667 0.3333  plane waves:   23550
 k-point 26 :  -0.1667 0.1667 0.3333  plane waves:   23542
 k-point 27 :   0.0000 0.3333 0.3333  plane waves:   23552
 k-point 28 :   0.1667 0.3333 0.3333  plane waves:   23556
 k-point 29 :   0.3333 0.3333 0.3333  plane waves:   23602
 k-point 30 :   0.5000 0.3333 0.3333  plane waves:   23552
 k-point 31 :  -0.3333 0.3333 0.3333  plane waves:   23602
 k-point 32 :  -0.1667 0.3333 0.3333  plane waves:   23556
 k-point 33 :   0.0000 0.5000 0.3333  plane waves:   23568
 k-point 34 :   0.1667 0.5000 0.3333  plane waves:   23520
 k-point 35 :   0.3333 0.5000 0.3333  plane waves:   23592
 k-point 36 :   0.5000 0.5000 0.3333  plane waves:   23592

 maximum and minimum number of plane-waves per node :       768      702

 maximum number of plane-waves:     23616
 maximum index in each direction: 
   IXMAX=   11   IYMAX=   11   IZMAX=   21
   IXMIN=  -11   IYMIN=  -12   IZMIN=  -21


 parallel 3D FFT for wavefunctions:
    minimum data exchange during FFTs selected (reduces bandwidth)
 parallel 3D FFT for charge:
    minimum data exchange during FFTs selected (reduces bandwidth)


 total amount of memory used by VASP MPI-rank0    79684. kBytes
=======================================================================

   base      :      30000. kBytes
   nonl-proj :       6070. kBytes
   fftplans  :       1363. kBytes
   grid      :       5529. kBytes
   one-center:         62. kBytes
   wavefun   :      36660. kBytes
 
     INWAV:  cpu time    7.4568: real time    7.5869
 Broyden mixing: mesh for mixing (old mesh)
   NGX = 21   NGY = 23   NGZ = 43
  (NGX  = 96   NGY  = 96   NGZ  =180)
  gives a total of  20769 points

 initial charge density was supplied:
 number of electron     172.0000024 magnetization      -0.0000000     -0.0000000     -0.0000000
 charge density for first step will be calculated from the start-wavefunctions


--------------------------------------------------------------------------------------------------------


 BZINTS: Fermi energy:  5.148665;172.000000 electrons
         Band energy:***********;  BLOECHL correction:  0.000000
 Maximum index for augmentation-charges          879 (set IRDMAX)


--------------------------------------------------------------------------------------------------------


 initial charge from wavefunction
 First call to EWALD:  gamma=   0.271
 Maximum number of real-space cells 3x 3x 2
 Maximum number of reciprocal cells 2x 2x 4

    FEWALD:  cpu time    0.0117: real time    0.0118

 ----------------------------------------------------------------------------- 
|                                                                             |
|           W    W    AA    RRRRR   N    N  II  N    N   GGGG   !!!           |
|           W    W   A  A   R    R  NN   N  II  NN   N  G    G  !!!           |
|           W    W  A    A  R    R  N N  N  II  N N  N  G       !!!           |
|           W WW W  AAAAAA  RRRRR   N  N N  II  N  N N  G  GGG   !            |
|           WW  WW  A    A  R   R   N   NN  II  N   NN  G    G                |
|           W    W  A    A  R    R  N    N  II  N    N   GGGG   !!!           |
|                                                                             |
|      ALGO=A and IALGO=5X tend to fail with the tetrahedron method           |
|      (e.g. Bloechls method ISMEAR=-5 is not variational)                    |
|      please switch to IMSEAR=0-n, except for DOS calculations               |
|      For DOS calculations use IALGO=53 after preconverging with ISMEAR>=0   |
|          I HOPE YOU KNOW, WHAT YOU ARE  DOING                               |
|                                                                             |
 ----------------------------------------------------------------------------- 



--------------------------------------- Iteration      1(   1)  ---------------------------------------


    POTLOK:  cpu time    0.1737: real time    0.1745
    SETDIJ:  cpu time    0.5886: real time    0.5905
    TRIAL :  cpu time    4.5094: real time    4.5565
 BZINTS: Fermi energy:  5.148667;172.000000 electrons
         Band energy:***********;  BLOECHL correction:  0.000000
 BZINTS: Fermi energy:  5.148667;172.000000 electrons
         Band energy:***********;  BLOECHL correction:  0.000000
    CORREC:  cpu time    3.9157: real time    3.9343
    CHARGE:  cpu time    1.0887: real time    1.0941
    --------------------------------------------
      LOOP:  cpu time   10.2884: real time   10.4012

 eigenvalue-minimisations  :     0
 total energy-change (2. order) :-0.8183235E+02  (-0.2520022E-04)
 number of electron     172.0000024 magnetization       0.0000000      0.0000000      0.0000000
 augmentation part       70.5471530 magnetization      -0.0000001      0.0000004     -0.0005674

 Free energy of the ion-electron system (eV)
  ---------------------------------------------------
  alpha Z        PSCENC =       605.20477398
  Ewald energy   TEWEN  =    -15772.95649942
  -Hartree energ DENC   =    -10640.39584759
  -exchange      EXHF   =         0.00000000
  -V(xc)+E(xc)   XCENC  =       822.44066155
  PAW double counting   =     28293.05118182   -29217.04463696
  entropy T*S    EENTRO =         0.00000000
  eigenvalues    EBANDS =     -2677.14826049
  atomic energy  EATOM  =     28505.01627691
  ---------------------------------------------------
  free energy    TOTEN  =       -81.83235021 eV

  energy without entropy =      -81.83235021  energy(sigma->0) =      -81.83235021


--------------------------------------------------------------------------------------------------------




--------------------------------------- Iteration      1(   2)  ---------------------------------------


    POTLOK:  cpu time    0.0930: real time    0.0935
    SETDIJ:  cpu time    0.5877: real time    0.5897
    TRIAL :  cpu time    4.4678: real time    4.4939
 BZINTS: Fermi energy:  5.148681;172.000000 electrons
         Band energy:***********;  BLOECHL correction:  0.000000
 BZINTS: Fermi energy:  5.148668;172.000000 electrons
         Band energy:***********;  BLOECHL correction:  0.000000
    CORREC:  cpu time    3.9387: real time    3.9569
    CHARGE:  cpu time    1.0974: real time    1.1029
    --------------------------------------------
      LOOP:  cpu time   10.2008: real time   10.2550

 eigenvalue-minimisations  :     0
 total energy-change (2. order) :-0.2437453E-04  (-0.3017298E-05)
 number of electron     172.0000024 magnetization       0.0000000      0.0000000      0.0000000
 augmentation part       70.5471529 magnetization      -0.0000001     -0.0000002     -0.0005674

 Free energy of the ion-electron system (eV)
  ---------------------------------------------------
  alpha Z        PSCENC =       605.20477398
  Ewald energy   TEWEN  =    -15772.95649942
  -Hartree energ DENC   =    -10640.39567517
  -exchange      EXHF   =         0.00000000
  -V(xc)+E(xc)   XCENC  =       822.44069018
  PAW double counting   =     28293.05180611   -29217.04528477
  entropy T*S    EENTRO =         0.00000000
  eigenvalues    EBANDS =     -2677.14846240
  atomic energy  EATOM  =     28505.01627691
  ---------------------------------------------------
  free energy    TOTEN  =       -81.83237459 eV

  energy without entropy =      -81.83237459  energy(sigma->0) =      -81.83237459


--------------------------------------------------------------------------------------------------------




--------------------------------------- Iteration      1(   3)  ---------------------------------------


    POTLOK:  cpu time    0.0921: real time    0.0926
    SETDIJ:  cpu time    0.5881: real time    0.5898
    TRIAL :  cpu time    4.4420: real time    4.4676
 BZINTS: Fermi energy:  5.148675;172.000000 electrons
         Band energy:***********;  BLOECHL correction:  0.000000
 BZINTS: Fermi energy:  5.148666;172.000000 electrons
         Band energy:***********;  BLOECHL correction:  0.000000
    CORREC:  cpu time    3.9304: real time    3.9497
    CHARGE:  cpu time    1.0765: real time    1.0818
    --------------------------------------------
      LOOP:  cpu time   10.1456: real time   10.1996

 eigenvalue-minimisations  :     0
 total energy-change (2. order) :-0.1614372E-04  (-0.2444866E-05)
 number of electron     172.0000024 magnetization       0.0000000      0.0000000      0.0000000
 augmentation part       70.5471529 magnetization       0.0000001      0.0000001     -0.0005674

 Free energy of the ion-electron system (eV)
  ---------------------------------------------------
  alpha Z        PSCENC =       605.20477398
  Ewald energy   TEWEN  =    -15772.95649942
  -Hartree energ DENC   =    -10640.39567974
  -exchange      EXHF   =         0.00000000
  -V(xc)+E(xc)   XCENC  =       822.44066441
  PAW double counting   =     28293.05216375   -29217.04563695
  entropy T*S    EENTRO =         0.00000000
  eigenvalues    EBANDS =     -2677.14845366
  atomic energy  EATOM  =     28505.01627691
  ---------------------------------------------------
  free energy    TOTEN  =       -81.83239073 eV

  energy without entropy =      -81.83239073  energy(sigma->0) =      -81.83239073


--------------------------------------------------------------------------------------------------------




--------------------------------------- Iteration      1(   4)  ---------------------------------------


    POTLOK:  cpu time    0.0926: real time    0.0931
    SETDIJ:  cpu time    0.5878: real time    0.5895
    TRIAL :  cpu time    4.4868: real time    4.5127
 BZINTS: Fermi energy:  5.148673;172.000000 electrons
         Band energy:***********;  BLOECHL correction:  0.000000
 BZINTS: Fermi energy:  5.148666;172.000000 electrons
         Band energy:***********;  BLOECHL correction:  0.000000
    CORREC:  cpu time    3.8800: real time    3.8990
    CHARGE:  cpu time    1.0766: real time    1.0821
    --------------------------------------------
      LOOP:  cpu time   10.1421: real time   10.2277

 eigenvalue-minimisations  :     0
 total energy-change (2. order) :-0.9802821E-05  (-0.1309268E-05)
 number of electron     172.0000024 magnetization       0.0000000      0.0000000      0.0000000
 augmentation part       70.5471530 magnetization      -0.0000000     -0.0000000     -0.0005674

 Free energy of the ion-electron system (eV)
  ---------------------------------------------------
  alpha Z        PSCENC =       605.20477398
  Ewald energy   TEWEN  =    -15772.95649942
  -Hartree energ DENC   =    -10640.39569148
  -exchange      EXHF   =         0.00000000
  -V(xc)+E(xc)   XCENC  =       822.44065209
  PAW double counting   =     28293.05251171   -29217.04598210
  entropy T*S    EENTRO =         0.00000000
  eigenvalues    EBANDS =     -2677.14844221
  atomic energy  EATOM  =     28505.01627691
  ---------------------------------------------------
  free energy    TOTEN  =       -81.83240053 eV

  energy without entropy =      -81.83240053  energy(sigma->0) =      -81.83240053


--------------------------------------------------------------------------------------------------------




--------------------------------------- Iteration      1(   5)  ---------------------------------------


    POTLOK:  cpu time    0.0929: real time    0.0934
    SETDIJ:  cpu time    0.5877: real time    0.5895
    TRIAL :  cpu time    4.4315: real time    4.4572
 BZINTS: Fermi energy:  5.148670;172.000000 electrons
         Band energy:***********;  BLOECHL correction:  0.000000
 BZINTS: Fermi energy:  5.148666;172.000000 electrons
         Band energy:***********;  BLOECHL correction:  0.000000
    CORREC:  cpu time    3.9113: real time    3.9405
    CHARGE:  cpu time    1.0727: real time    1.0781
    --------------------------------------------
      LOOP:  cpu time   10.1105: real time   10.1755

 eigenvalue-minimisations  :     0
 total energy-change (2. order) :-0.4464175E-05  (-0.1287875E-05)
 number of electron     172.0000024 magnetization       0.0000000      0.0000000      0.0000000
 augmentation part       70.5471531 magnetization       0.0000000      0.0000001     -0.0005674

 Free energy of the ion-electron system (eV)
  ---------------------------------------------------
  alpha Z        PSCENC =       605.20477398
  Ewald energy   TEWEN  =    -15772.95649942
  -Hartree energ DENC   =    -10640.39569800
  -exchange      EXHF   =         0.00000000
  -V(xc)+E(xc)   XCENC  =       822.44064701
  PAW double counting   =     28293.05270352   -29217.04617282
  entropy T*S    EENTRO =         0.00000000
  eigenvalues    EBANDS =     -2677.14843616
  atomic energy  EATOM  =     28505.01627691
  ---------------------------------------------------
  free energy    TOTEN  =       -81.83240500 eV

  energy without entropy =      -81.83240500  energy(sigma->0) =      -81.83240500


--------------------------------------------------------------------------------------------------------




--------------------------------------- Iteration      1(   6)  ---------------------------------------


    POTLOK:  cpu time    0.0906: real time    0.0912
    SETDIJ:  cpu time    0.5872: real time    0.6251
    TRIAL :  cpu time    4.3867: real time    4.4121
 BZINTS: Fermi energy:  5.148670;172.000000 electrons
         Band energy:***********;  BLOECHL correction:  0.000000
 BZINTS: Fermi energy:  5.148666;172.000000 electrons
         Band energy:***********;  BLOECHL correction:  0.000000
    CORREC:  cpu time    3.9268: real time    3.9459
    CHARGE:  cpu time    1.0871: real time    1.0926
    --------------------------------------------
      LOOP:  cpu time   10.0958: real time   10.1845

 eigenvalue-minimisations  :     0
 total energy-change (2. order) :-0.1806646E-05  (-0.8242203E-06)
 number of electron     172.0000024 magnetization       0.0000000      0.0000000      0.0000000
 augmentation part       70.5471531 magnetization      -0.0000000      0.0000000     -0.0005674

 Free energy of the ion-electron system (eV)
  ---------------------------------------------------
  alpha Z        PSCENC =       605.20477398
  Ewald energy   TEWEN  =    -15772.95649942
  -Hartree energ DENC   =    -10640.39570869
  -exchange      EXHF   =         0.00000000
  -V(xc)+E(xc)   XCENC  =       822.44064837
  PAW double counting   =     28293.05295601   -29217.04642452
  entropy T*S    EENTRO =         0.00000000
  eigenvalues    EBANDS =     -2677.14842942
  atomic energy  EATOM  =     28505.01627691
  ---------------------------------------------------
  free energy    TOTEN  =       -81.83240680 eV

  energy without entropy =      -81.83240680  energy(sigma->0) =      -81.83240680


--------------------------------------------------------------------------------------------------------




--------------------------------------- Iteration      1(   7)  ---------------------------------------


    POTLOK:  cpu time    0.0914: real time    0.0920
    SETDIJ:  cpu time    0.5881: real time    0.5900
    TRIAL :  cpu time    4.4510: real time    4.4769
 BZINTS: Fermi energy:  5.148669;172.000000 electrons
         Band energy:***********;  BLOECHL correction:  0.000000
 BZINTS: Fermi energy:  5.148666;172.000000 electrons
         Band energy:***********;  BLOECHL correction:  0.000000
    CORREC:  cpu time    3.8929: real time    3.9119
    CHARGE:  cpu time    1.0983: real time    1.1041
    --------------------------------------------
      LOOP:  cpu time   10.1367: real time   10.1921

 eigenvalue-minimisations  :     0
 total energy-change (2. order) :-0.2882531E-05  (-0.7124785E-06)
 number of electron     172.0000024 magnetization       0.0000000      0.0000000      0.0000000
 augmentation part       70.5471532 magnetization       0.0000000      0.0000000     -0.0005674

 Free energy of the ion-electron system (eV)
  ---------------------------------------------------
  alpha Z        PSCENC =       605.20477398
  Ewald energy   TEWEN  =    -15772.95649942
  -Hartree energ DENC   =    -10640.39571541
  -exchange      EXHF   =         0.00000000
  -V(xc)+E(xc)   XCENC  =       822.44064534
  PAW double counting   =     28293.05313876   -29217.04660671
  entropy T*S    EENTRO =         0.00000000
  eigenvalues    EBANDS =     -2677.14842313
  atomic energy  EATOM  =     28505.01627691
  ---------------------------------------------------
  free energy    TOTEN  =       -81.83240969 eV

  energy without entropy =      -81.83240969  energy(sigma->0) =      -81.83240969


--------------------------------------------------------------------------------------------------------




--------------------------------------- Iteration      1(   8)  ---------------------------------------


    POTLOK:  cpu time    0.0906: real time    0.0911
    SETDIJ:  cpu time    0.5878: real time    0.5896
    TRIAL :  cpu time    4.4439: real time    4.4701
 BZINTS: Fermi energy:  5.148668;172.000000 electrons
         Band energy:***********;  BLOECHL correction:  0.000000
 BZINTS: Fermi energy:  5.148665;172.000000 electrons
         Band energy:***********;  BLOECHL correction:  0.000000
    CORREC:  cpu time    3.8942: real time    3.9133
    CHARGE:  cpu time    1.0738: real time    1.0793
    --------------------------------------------
      LOOP:  cpu time   10.1055: real time   10.1600

 eigenvalue-minimisations  :     0
 total energy-change (2. order) :-0.1410197E-05  (-0.5393118E-06)
 number of electron     172.0000024 magnetization       0.0000000      0.0000000      0.0000000
 augmentation part       70.5471532 magnetization      -0.0000000      0.0000000     -0.0005674

 Free energy of the ion-electron system (eV)
  ---------------------------------------------------
  alpha Z        PSCENC =       605.20477398
  Ewald energy   TEWEN  =    -15772.95649942
  -Hartree energ DENC   =    -10640.39572252
  -exchange      EXHF   =         0.00000000
  -V(xc)+E(xc)   XCENC  =       822.44064524
  PAW double counting   =     28293.05332119   -29217.04678867
  entropy T*S    EENTRO =         0.00000000
  eigenvalues    EBANDS =     -2677.14841779
  atomic energy  EATOM  =     28505.01627691
  ---------------------------------------------------
  free energy    TOTEN  =       -81.83241110 eV

  energy without entropy =      -81.83241110  energy(sigma->0) =      -81.83241110


--------------------------------------------------------------------------------------------------------




--------------------------------------- Iteration      1(   9)  ---------------------------------------


    POTLOK:  cpu time    0.0912: real time    0.0917
    SETDIJ:  cpu time    0.5874: real time    0.5893
    TRIAL :  cpu time    4.4911: real time    4.5175
 BZINTS: Fermi energy:  5.148667;172.000000 electrons
         Band energy:***********;  BLOECHL correction:  0.000000
 BZINTS: Fermi energy:  5.148665;172.000000 electrons
         Band energy:***********;  BLOECHL correction:  0.000000
    CORREC:  cpu time    3.9052: real time    3.9241
    CHARGE:  cpu time    1.0753: real time    1.0808
    --------------------------------------------
      LOOP:  cpu time   10.1671: real time   10.2206

 eigenvalue-minimisations  :     0
 total energy-change (2. order) :-0.1568005E-05  (-0.4534789E-06)
 number of electron     172.0000024 magnetization       0.0000000      0.0000000      0.0000000
 augmentation part       70.5471533 magnetization      -0.0000000      0.0000000     -0.0005674

 Free energy of the ion-electron system (eV)
  ---------------------------------------------------
  alpha Z        PSCENC =       605.20477398
  Ewald energy   TEWEN  =    -15772.95649942
  -Hartree energ DENC   =    -10640.39572822
  -exchange      EXHF   =         0.00000000
  -V(xc)+E(xc)   XCENC  =       822.44064404
  PAW double counting   =     28293.05347870   -29217.04694578
  entropy T*S    EENTRO =         0.00000000
  eigenvalues    EBANDS =     -2677.14841286
  atomic energy  EATOM  =     28505.01627691
  ---------------------------------------------------
  free energy    TOTEN  =       -81.83241267 eV

  energy without entropy =      -81.83241267  energy(sigma->0) =      -81.83241267


--------------------------------------------------------------------------------------------------------




--------------------------------------- Iteration      1(  10)  ---------------------------------------


    POTLOK:  cpu time    0.0910: real time    0.0915
    SETDIJ:  cpu time    0.5880: real time    0.5898
    TRIAL :  cpu time    4.3762: real time    4.4020
 BZINTS: Fermi energy:  5.148667;172.000000 electrons
         Band energy:***********;  BLOECHL correction:  0.000000
 BZINTS: Fermi energy:  5.148665;172.000000 electrons
         Band energy:***********;  BLOECHL correction:  0.000000
    CORREC:  cpu time    3.9283: real time    3.9469
    CHARGE:  cpu time    1.0793: real time    1.0845
    --------------------------------------------
      LOOP:  cpu time   10.0777: real time   10.1318

 eigenvalue-minimisations  :     0
 total energy-change (2. order) :-0.9674477E-06  (-0.3727655E-06)
 number of electron     172.0000024 magnetization       0.0000000      0.0000000      0.0000000
 augmentation part       70.5471533 magnetization      -0.0000000      0.0000000     -0.0005674

 Free energy of the ion-electron system (eV)
  ---------------------------------------------------
  alpha Z        PSCENC =       605.20477398
  Ewald energy   TEWEN  =    -15772.95649942
  -Hartree energ DENC   =    -10640.39573361
  -exchange      EXHF   =         0.00000000
  -V(xc)+E(xc)   XCENC  =       822.44064387
  PAW double counting   =     28293.05362714   -29217.04709387
  entropy T*S    EENTRO =         0.00000000
  eigenvalues    EBANDS =     -2677.14840862
  atomic energy  EATOM  =     28505.01627691
  ---------------------------------------------------
  free energy    TOTEN  =       -81.83241363 eV

  energy without entropy =      -81.83241363  energy(sigma->0) =      -81.83241363


--------------------------------------------------------------------------------------------------------




--------------------------------------- Iteration      1(  11)  ---------------------------------------


    POTLOK:  cpu time    0.0911: real time    0.0916
    SETDIJ:  cpu time    0.5877: real time    0.5896
    TRIAL :  cpu time    4.4020: real time    4.4276
 BZINTS: Fermi energy:  5.148667;172.000000 electrons
         Band energy:***********;  BLOECHL correction:  0.000000
 BZINTS: Fermi energy:  5.148665;172.000000 electrons
         Band energy:***********;  BLOECHL correction:  0.000000
    CORREC:  cpu time    3.8765: real time    3.8948
    CHARGE:  cpu time    1.0724: real time    1.0779
    --------------------------------------------
      LOOP:  cpu time   10.0453: real time   10.0990

 eigenvalue-minimisations  :     0
 total energy-change (2. order) :-0.9312389E-06  (-0.3096410E-06)
 number of electron     172.0000024 magnetization       0.0000000      0.0000000      0.0000000
 augmentation part       70.5471533 magnetization      -0.0000000      0.0000000     -0.0005674

 Free energy of the ion-electron system (eV)
  ---------------------------------------------------
  alpha Z        PSCENC =       605.20477398
  Ewald energy   TEWEN  =    -15772.95649942
  -Hartree energ DENC   =    -10640.39573839
  -exchange      EXHF   =         0.00000000
  -V(xc)+E(xc)   XCENC  =       822.44064341
  PAW double counting   =     28293.05376379   -29217.04723020
  entropy T*S    EENTRO =         0.00000000
  eigenvalues    EBANDS =     -2677.14840464
  atomic energy  EATOM  =     28505.01627691
  ---------------------------------------------------
  free energy    TOTEN  =       -81.83241456 eV

  energy without entropy =      -81.83241456  energy(sigma->0) =      -81.83241456


--------------------------------------------------------------------------------------------------------




--------------------------------------- Iteration      1(  12)  ---------------------------------------


    POTLOK:  cpu time    0.0910: real time    0.0916
    SETDIJ:  cpu time    0.5881: real time    0.5897
    TRIAL :  cpu time    4.4248: real time    4.4502
 BZINTS: Fermi energy:  5.148666;172.000000 electrons
         Band energy:***********;  BLOECHL correction:  0.000000
 BZINTS: Fermi energy:  5.148665;172.000000 electrons
         Band energy:***********;  BLOECHL correction:  0.000000
    CORREC:  cpu time    3.8844: real time    3.9109
    CHARGE:  cpu time    1.0763: real time    1.0818
    --------------------------------------------
      LOOP:  cpu time   10.0811: real time   10.1432

 eigenvalue-minimisations  :     0
 total energy-change (2. order) :-0.6790760E-06  (-0.2633154E-06)
 number of electron     172.0000024 magnetization       0.0000000      0.0000000      0.0000000
 augmentation part       70.5471534 magnetization      -0.0000000      0.0000000     -0.0005674

 Free energy of the ion-electron system (eV)
  ---------------------------------------------------
  alpha Z        PSCENC =       605.20477398
  Ewald energy   TEWEN  =    -15772.95649942
  -Hartree energ DENC   =    -10640.39574262
  -exchange      EXHF   =         0.00000000
  -V(xc)+E(xc)   XCENC  =       822.44064327
  PAW double counting   =     28293.05388926   -29217.04735538
  entropy T*S    EENTRO =         0.00000000
  eigenvalues    EBANDS =     -2677.14840123
  atomic energy  EATOM  =     28505.01627691
  ---------------------------------------------------
  free energy    TOTEN  =       -81.83241524 eV

  energy without entropy =      -81.83241524  energy(sigma->0) =      -81.83241524


--------------------------------------------------------------------------------------------------------




--------------------------------------- Iteration      1(  13)  ---------------------------------------


    POTLOK:  cpu time    0.0914: real time    0.0919
    SETDIJ:  cpu time    0.5891: real time    0.5911
    TRIAL :  cpu time    4.4075: real time    4.4328
 BZINTS: Fermi energy:  5.148666;172.000000 electrons
         Band energy:***********;  BLOECHL correction:  0.000000
 BZINTS: Fermi energy:  5.148665;172.000000 electrons
         Band energy:***********;  BLOECHL correction:  0.000000
    CORREC:  cpu time    3.8956: real time    3.9145
    CHARGE:  cpu time    1.0767: real time    1.0822
    --------------------------------------------
      LOOP:  cpu time   10.2312: real time   10.2842

 eigenvalue-minimisations  :     0
 total energy-change (2. order) :-0.6240916E-06  (-0.2170782E-06)
 number of electron     172.0000024 magnetization       0.0000000      0.0000000      0.0000000
 augmentation part       70.5471534 magnetization      -0.0000000      0.0000000     -0.0005674

 Free energy of the ion-electron system (eV)
  ---------------------------------------------------
  alpha Z        PSCENC =       605.20477398
  Ewald energy   TEWEN  =    -15772.95649942
  -Hartree energ DENC   =    -10640.39574640
  -exchange      EXHF   =         0.00000000
  -V(xc)+E(xc)   XCENC  =       822.44064304
  PAW double counting   =     28293.05400622   -29217.04747208
  entropy T*S    EENTRO =         0.00000000
  eigenvalues    EBANDS =     -2677.14839811
  atomic energy  EATOM  =     28505.01627691
  ---------------------------------------------------
  free energy    TOTEN  =       -81.83241587 eV

  energy without entropy =      -81.83241587  energy(sigma->0) =      -81.83241587


--------------------------------------------------------------------------------------------------------




--------------------------------------- Iteration      1(  14)  ---------------------------------------


    POTLOK:  cpu time    0.0922: real time    0.0929
    SETDIJ:  cpu time    0.5877: real time    0.5897
    TRIAL :  cpu time    4.4754: real time    4.5017
 BZINTS: Fermi energy:  5.148666;172.000000 electrons
         Band energy:***********;  BLOECHL correction:  0.000000
 BZINTS: Fermi energy:  5.148665;172.000000 electrons
         Band energy:***********;  BLOECHL correction:  0.000000
    CORREC:  cpu time    3.8858: real time    3.9048
    CHARGE:  cpu time    1.0821: real time    1.0876
    --------------------------------------------
      LOOP:  cpu time   10.1395: real time   10.1936

 eigenvalue-minimisations  :     0
 total energy-change (2. order) :-0.5023539E-06  (-0.1881285E-06)
 number of electron     172.0000024 magnetization       0.0000000      0.0000000      0.0000000
 augmentation part       70.5471534 magnetization      -0.0000000      0.0000000     -0.0005674

 Free energy of the ion-electron system (eV)
  ---------------------------------------------------
  alpha Z        PSCENC =       605.20477398
  Ewald energy   TEWEN  =    -15772.95649942
  -Hartree energ DENC   =    -10640.39574971
  -exchange      EXHF   =         0.00000000
  -V(xc)+E(xc)   XCENC  =       822.44064289
  PAW double counting   =     28293.05411214   -29217.04757775
  entropy T*S    EENTRO =         0.00000000
  eigenvalues    EBANDS =     -2677.14839539
  atomic energy  EATOM  =     28505.01627691
  ---------------------------------------------------
  free energy    TOTEN  =       -81.83241637 eV

  energy without entropy =      -81.83241637  energy(sigma->0) =      -81.83241637


--------------------------------------------------------------------------------------------------------




--------------------------------------- Iteration      1(  15)  ---------------------------------------


    POTLOK:  cpu time    0.0898: real time    0.0903
    SETDIJ:  cpu time    0.5875: real time    0.5894
    TRIAL :  cpu time    4.4037: real time    4.4295
 BZINTS: Fermi energy:  5.148666;172.000000 electrons
         Band energy:***********;  BLOECHL correction:  0.000000
 BZINTS: Fermi energy:  5.148665;172.000000 electrons
         Band energy:***********;  BLOECHL correction:  0.000000
    CORREC:  cpu time    3.8865: real time    3.9048
    CHARGE:  cpu time    1.0709: real time    1.0762
    --------------------------------------------
      LOOP:  cpu time   10.0517: real time   10.1081

 eigenvalue-minimisations  :     0
 total energy-change (2. order) :-0.4466165E-06  (-0.1557976E-06)
 number of electron     172.0000024 magnetization       0.0000000      0.0000000      0.0000000
 augmentation part       70.5471534 magnetization      -0.0000000      0.0000000     -0.0005674

 Free energy of the ion-electron system (eV)
  ---------------------------------------------------
  alpha Z        PSCENC =       605.20477398
  Ewald energy   TEWEN  =    -15772.95649942
  -Hartree energ DENC   =    -10640.39575274
  -exchange      EXHF   =         0.00000000
  -V(xc)+E(xc)   XCENC  =       822.44064272
  PAW double counting   =     28293.05421147   -29217.04767687
  entropy T*S    EENTRO =         0.00000000
  eigenvalues    EBANDS =     -2677.14839286
  atomic energy  EATOM  =     28505.01627691
  ---------------------------------------------------
  free energy    TOTEN  =       -81.83241682 eV

  energy without entropy =      -81.83241682  energy(sigma->0) =      -81.83241682


--------------------------------------------------------------------------------------------------------




--------------------------------------- Iteration      1(  16)  ---------------------------------------


    POTLOK:  cpu time    0.0909: real time    0.0915
    SETDIJ:  cpu time    0.5876: real time    0.5895
    TRIAL :  cpu time    4.4260: real time    4.4516
 BZINTS: Fermi energy:  5.148666;172.000000 electrons
         Band energy:***********;  BLOECHL correction:  0.000000
 BZINTS: Fermi energy:  5.148665;172.000000 electrons
         Band energy:***********;  BLOECHL correction:  0.000000
    CORREC:  cpu time    3.9175: real time    3.9360
    CHARGE:  cpu time    1.0765: real time    1.0819
    --------------------------------------------
      LOOP:  cpu time   10.1125: real time   10.1680

 eigenvalue-minimisations  :     0
 total energy-change (2. order) :-0.3801688E-06  (-0.1366815E-06)
 number of electron     172.0000024 magnetization       0.0000000      0.0000000      0.0000000
 augmentation part       70.5471535 magnetization      -0.0000000      0.0000000     -0.0005674

 Free energy of the ion-electron system (eV)
  ---------------------------------------------------
  alpha Z        PSCENC =       605.20477398
  Ewald energy   TEWEN  =    -15772.95649942
  -Hartree energ DENC   =    -10640.39575540
  -exchange      EXHF   =         0.00000000
  -V(xc)+E(xc)   XCENC  =       822.44064258
  PAW double counting   =     28293.05430114   -29217.04776635
  entropy T*S    EENTRO =         0.00000000
  eigenvalues    EBANDS =     -2677.14839062
  atomic energy  EATOM  =     28505.01627691
  ---------------------------------------------------
  free energy    TOTEN  =       -81.83241720 eV

  energy without entropy =      -81.83241720  energy(sigma->0) =      -81.83241720


--------------------------------------------------------------------------------------------------------




--------------------------------------- Iteration      1(  17)  ---------------------------------------


    POTLOK:  cpu time    0.0915: real time    0.0920
    SETDIJ:  cpu time    0.5874: real time    0.5894
    TRIAL :  cpu time    4.4053: real time    4.4314
 BZINTS: Fermi energy:  5.148666;172.000000 electrons
         Band energy:***********;  BLOECHL correction:  0.000000
 BZINTS: Fermi energy:  5.148665;172.000000 electrons
         Band energy:***********;  BLOECHL correction:  0.000000
    CORREC:  cpu time    3.8823: real time    3.9012
    CHARGE:  cpu time    1.0812: real time    1.0866
    --------------------------------------------
      LOOP:  cpu time   10.0641: real time   10.1175

 eigenvalue-minimisations  :     0
 total energy-change (2. order) :-0.3310597E-06  (-0.1148828E-06)
 number of electron     172.0000024 magnetization       0.0000000      0.0000000      0.0000000
 augmentation part       70.5471535 magnetization      -0.0000000      0.0000000     -0.0005674

 Free energy of the ion-electron system (eV)
  ---------------------------------------------------
  alpha Z        PSCENC =       605.20477398
  Ewald energy   TEWEN  =    -15772.95649942
  -Hartree energ DENC   =    -10640.39575786
  -exchange      EXHF   =         0.00000000
  -V(xc)+E(xc)   XCENC  =       822.44064245
  PAW double counting   =     28293.05438534   -29217.04785037
  entropy T*S    EENTRO =         0.00000000
  eigenvalues    EBANDS =     -2677.14838854
  atomic energy  EATOM  =     28505.01627691
  ---------------------------------------------------
  free energy    TOTEN  =       -81.83241753 eV

  energy without entropy =      -81.83241753  energy(sigma->0) =      -81.83241753


--------------------------------------------------------------------------------------------------------




--------------------------------------- Iteration      1(  18)  ---------------------------------------


    POTLOK:  cpu time    0.0909: real time    0.0914
    SETDIJ:  cpu time    0.5879: real time    0.5899
    TRIAL :  cpu time    4.3955: real time    4.4211
 BZINTS: Fermi energy:  5.148665;172.000000 electrons
         Band energy:***********;  BLOECHL correction:  0.000000
 BZINTS: Fermi energy:  5.148665;172.000000 electrons
         Band energy:***********;  BLOECHL correction:  0.000000
    CORREC:  cpu time    3.9075: real time    3.9267
    CHARGE:  cpu time    1.0712: real time    1.0767
    --------------------------------------------
      LOOP:  cpu time   10.0671: real time   10.1231

 eigenvalue-minimisations  :     0
 total energy-change (2. order) :-0.2927081E-06  (-0.1011077E-06)
 number of electron     172.0000024 magnetization       0.0000000      0.0000000      0.0000000
 augmentation part       70.5471535 magnetization      -0.0000000      0.0000000     -0.0005674

 Free energy of the ion-electron system (eV)
  ---------------------------------------------------
  alpha Z        PSCENC =       605.20477398
  Ewald energy   TEWEN  =    -15772.95649942
  -Hartree energ DENC   =    -10640.39576004
  -exchange      EXHF   =         0.00000000
  -V(xc)+E(xc)   XCENC  =       822.44064231
  PAW double counting   =     28293.05446180   -29217.04792668
  entropy T*S    EENTRO =         0.00000000
  eigenvalues    EBANDS =     -2677.14838668
  atomic energy  EATOM  =     28505.01627691
  ---------------------------------------------------
  free energy    TOTEN  =       -81.83241782 eV

  energy without entropy =      -81.83241782  energy(sigma->0) =      -81.83241782


--------------------------------------------------------------------------------------------------------




--------------------------------------- Iteration      1(  19)  ---------------------------------------


    POTLOK:  cpu time    0.0918: real time    0.0923
    SETDIJ:  cpu time    0.5875: real time    0.5895
    TRIAL :  cpu time    4.3899: real time    4.4158
 BZINTS: Fermi energy:  5.148665;172.000000 electrons
         Band energy:***********;  BLOECHL correction:  0.000000
 BZINTS: Fermi energy:  5.148665;172.000000 electrons
         Band energy:***********;  BLOECHL correction:  0.000000
    CORREC:  cpu time    3.8833: real time    3.9020
    CHARGE:  cpu time    1.0819: real time    1.0874
    --------------------------------------------
      LOOP:  cpu time   10.0478: real time   10.1035

 eigenvalue-minimisations  :     0
 total energy-change (2. order) :-0.2566230E-06  (-0.8563248E-07)
 number of electron     172.0000024 magnetization       0.0000000      0.0000000      0.0000000
 augmentation part       70.5471535 magnetization      -0.0000000      0.0000000     -0.0005674

 Free energy of the ion-electron system (eV)
  ---------------------------------------------------
  alpha Z        PSCENC =       605.20477398
  Ewald energy   TEWEN  =    -15772.95649942
  -Hartree energ DENC   =    -10640.39576205
  -exchange      EXHF   =         0.00000000
  -V(xc)+E(xc)   XCENC  =       822.44064220
  PAW double counting   =     28293.05453320   -29217.04799794
  entropy T*S    EENTRO =         0.00000000
  eigenvalues    EBANDS =     -2677.14838494
  atomic energy  EATOM  =     28505.01627691
  ---------------------------------------------------
  free energy    TOTEN  =       -81.83241808 eV

  energy without entropy =      -81.83241808  energy(sigma->0) =      -81.83241808


--------------------------------------------------------------------------------------------------------




--------------------------------------- Iteration      1(  20)  ---------------------------------------


    POTLOK:  cpu time    0.0916: real time    0.0921
    SETDIJ:  cpu time    0.5874: real time    0.5893
    TRIAL :  cpu time    4.4120: real time    4.4377
 BZINTS: Fermi energy:  5.148665;172.000000 electrons
         Band energy:***********;  BLOECHL correction:  0.000000
 BZINTS: Fermi energy:  5.148665;172.000000 electrons
         Band energy:***********;  BLOECHL correction:  0.000000
    CORREC:  cpu time    3.9203: real time    3.9391
    CHARGE:  cpu time    1.0733: real time    1.0784
    --------------------------------------------
      LOOP:  cpu time   10.1010: real time   10.1531

 eigenvalue-minimisations  :     0
 total energy-change (2. order) :-0.2418710E-06  (-0.7426175E-07)
 number of electron     172.0000024 magnetization       0.0000000      0.0000000      0.0000000
 augmentation part       70.5471535 magnetization      -0.0000000      0.0000000     -0.0005674

 Free energy of the ion-electron system (eV)
  ---------------------------------------------------
[...]
  0.000   0.000   0.000   0.000  -0.000   0.000   0.000  -0.000  -0.000   0.000  -0.000   0.000   0.000  -0.000  -0.000   0.000
 pseudopotential strength for first ion, spin component:           3
 -0.000  -0.000  -0.000  -0.000   0.000  -0.000   0.000   0.000   0.000  -0.000   0.000  -0.000   0.000   0.000   0.000  -0.000
 -0.000  -0.000  -0.000  -0.000   0.000  -0.000   0.000   0.000   0.000  -0.000   0.000  -0.000   0.000   0.000   0.000  -0.000
  0.000  -0.000   0.000  -0.000   0.000  -0.000  -0.000   0.000  -0.000  -0.000   0.000  -0.000  -0.000   0.000  -0.000  -0.000
  0.000   0.000   0.000   0.000  -0.000   0.000  -0.000  -0.000   0.000   0.000  -0.000   0.000  -0.000  -0.000   0.000   0.000
  0.000  -0.000   0.000  -0.000  -0.000  -0.000   0.000   0.000  -0.000  -0.000  -0.000  -0.000   0.000   0.000  -0.000  -0.000
  0.000  -0.000   0.000  -0.000   0.000  -0.000  -0.000   0.000  -0.000  -0.000   0.000  -0.000  -0.000   0.000  -0.000  -0.000
  0.000   0.000   0.000   0.000  -0.000   0.000  -0.000  -0.000   0.000   0.000  -0.000   0.000  -0.000  -0.000   0.000   0.000
  0.000  -0.000   0.000  -0.000  -0.000  -0.000   0.000   0.000  -0.000  -0.000  -0.000  -0.000   0.000   0.000  -0.000  -0.000
 pseudopotential strength for first ion, spin component:           4
 39.442   0.000  45.297   0.000  -0.002   0.000  -0.001   0.000  -0.002   0.000  -0.002   0.000  -0.001   0.000  -0.003   0.000
 45.297   0.000  52.023   0.000  -0.002   0.000  -0.001   0.000  -0.003   0.000  -0.003   0.000  -0.001   0.000  -0.004   0.000
 -0.002   0.000  -0.002   0.000   8.195   0.000   0.002   0.000  -0.000   0.000  11.108   0.000   0.002   0.000  -0.000   0.000
 -0.001   0.000  -0.001   0.000   0.002   0.000   8.193   0.000  -0.001   0.000   0.002   0.000  11.106   0.000  -0.001   0.000
 -0.002   0.000  -0.003   0.000  -0.000   0.000  -0.001   0.000   8.193   0.000  -0.000   0.000  -0.001   0.000  11.106   0.000
 -0.002   0.000  -0.003   0.000  11.108   0.000   0.002   0.000  -0.000   0.000  15.076   0.000   0.003   0.000  -0.000   0.000
 -0.001   0.000  -0.001   0.000   0.002   0.000  11.106   0.000  -0.001   0.000   0.003   0.000  15.073   0.000  -0.002   0.000
 -0.003   0.000  -0.004   0.000  -0.000   0.000  -0.001   0.000  11.106   0.000  -0.000   0.000  -0.002   0.000  15.073   0.000
 total augmentation occupancy for first ion, spin component:           1
 11.324  -7.096   0.000   0.000  -0.483   0.000   0.000   0.117
 -7.096   5.157   0.000   0.000   0.394   0.000   0.000  -0.067
  0.000   0.000   3.851   0.085   0.000  -1.140  -0.044   0.000
  0.000   0.000   0.085   3.598   0.000  -0.044  -1.010   0.000
 -0.483   0.394   0.000   0.000   3.626   0.000   0.000  -1.024
  0.000   0.000  -1.140  -0.044   0.000   0.392   0.016   0.000
  0.000   0.000  -0.044  -1.010   0.000   0.016   0.342   0.000
  0.117  -0.067   0.000   0.000  -1.024   0.000   0.000   0.349
 total augmentation occupancy for first ion, spin component:           2
  0.000  -0.000  -0.000   0.000  -0.000  -0.000  -0.000   0.000
 -0.000   0.000   0.000  -0.000   0.000   0.000   0.000  -0.000
  0.000   0.000  -0.000  -0.000   0.000   0.000   0.000   0.000
  0.000  -0.000  -0.000   0.000  -0.000   0.000  -0.000   0.000
 -0.000   0.000   0.000  -0.000   0.000   0.000   0.000  -0.000
  0.000   0.000   0.000   0.000   0.000  -0.000  -0.000   0.000
 -0.000   0.000   0.000  -0.000   0.000  -0.000   0.000   0.000
  0.000  -0.000   0.000   0.000  -0.000   0.000   0.000   0.000
 total augmentation occupancy for first ion, spin component:           3
  0.000   0.000  -0.000  -0.000   0.000   0.000   0.000   0.000
  0.000   0.000   0.000   0.000   0.000  -0.000  -0.000  -0.000
 -0.000   0.000   0.000   0.000   0.000   0.000   0.000  -0.000
 -0.000   0.000   0.000   0.000   0.000   0.000   0.000  -0.000
  0.000   0.000   0.000   0.000   0.000  -0.000  -0.000   0.000
  0.000  -0.000  -0.000   0.000  -0.000   0.000   0.000   0.000
  0.000  -0.000   0.000   0.000  -0.000   0.000   0.000   0.000
  0.000  -0.000  -0.000  -0.000   0.000   0.000   0.000   0.000
 total augmentation occupancy for first ion, spin component:           4
  0.000   0.000   0.095   0.092   0.000   0.089   0.086   0.000
  0.000   0.000  -0.073  -0.072   0.000  -0.096  -0.093  -0.000
  0.095  -0.073  -0.000   0.000   0.008   0.000   0.000  -0.009
  0.092  -0.072  -0.000   0.000   0.008  -0.000   0.000  -0.002
  0.000  -0.000   0.008   0.008  -0.000  -0.008  -0.002  -0.000
  0.089  -0.096   0.000   0.000  -0.008  -0.000   0.000   0.017
  0.086  -0.093   0.000   0.000  -0.002   0.000  -0.000   0.014
  0.000  -0.000  -0.009  -0.002  -0.000   0.017   0.014  -0.000


------------------------ aborting loop because EDIFF is reached ----------------------------------------


 


 total charge     
 
# of ion       s       p       d       tot
------------------------------------------
    1        1.314   2.420   0.000   3.734
    2        1.314   2.419   0.000   3.733
    3        1.315   2.415   0.000   3.730
    4        1.315   2.416   0.000   3.730
    5        1.314   2.419   0.000   3.733
    6        1.314   2.420   0.000   3.734
    7        1.315   2.415   0.000   3.730
    8        1.315   2.416   0.000   3.730
    9        0.265   6.211   8.915  15.391
   10        0.265   6.211   8.915  15.392
   11        0.265   6.211   8.915  15.391
   12        0.265   6.211   8.915  15.392
   13        0.354   6.363   5.841  12.558
   14        0.354   6.363   5.841  12.557
   15        0.354   6.363   5.841  12.558
   16        0.354   6.363   5.841  12.557
--------------------------------------------------
tot         12.990  69.636  59.025 141.651
 


 magnetization (x)
 
# of ion       s       p       d       tot
------------------------------------------
    1        0.000  -0.000   0.000  -0.000
    2       -0.000   0.000   0.000   0.000
    3        0.000   0.000   0.000   0.000
    4       -0.000   0.000   0.000  -0.000
    5       -0.000   0.000   0.000   0.000
    6        0.000  -0.000   0.000  -0.000
    7        0.000   0.000   0.000   0.000
    8       -0.000   0.000   0.000  -0.000
    9       -0.000   0.000   0.000   0.000
   10       -0.000   0.000  -0.000  -0.000
   11       -0.000   0.000   0.000   0.000
   12       -0.000   0.000  -0.000  -0.000
   13       -0.000   0.000  -0.000  -0.000
   14       -0.000  -0.000  -0.000  -0.000
   15       -0.000   0.000  -0.000  -0.000
   16       -0.000  -0.000  -0.000  -0.000
--------------------------------------------------
tot         -0.000   0.000  -0.000  -0.000
 


 magnetization (y)
 
# of ion       s       p       d       tot
------------------------------------------
    1       -0.000  -0.000   0.000  -0.000
    2       -0.000   0.000   0.000  -0.000
    3        0.000  -0.000   0.000  -0.000
    4       -0.000   0.000   0.000   0.000
    5       -0.000   0.000   0.000  -0.000
    6       -0.000  -0.000   0.000  -0.000
    7        0.000  -0.000   0.000  -0.000
    8       -0.000   0.000   0.000   0.000
    9       -0.000   0.000  -0.000  -0.000
   10       -0.000   0.000  -0.000  -0.000
   11       -0.000   0.000  -0.000  -0.000
   12       -0.000   0.000  -0.000  -0.000
   13       -0.000   0.000   0.000   0.000
   14       -0.000   0.000  -0.000  -0.000
   15       -0.000   0.000   0.000   0.000
   16       -0.000   0.000  -0.000  -0.000
--------------------------------------------------
tot         -0.000   0.000  -0.000  -0.000
 


 magnetization (z)
 
# of ion       s       p       d       tot
------------------------------------------
    1        0.000  -0.003   0.000  -0.003
    2        0.000  -0.003   0.000  -0.003
    3       -0.000   0.003   0.000   0.003
    4       -0.000   0.003   0.000   0.003
    5        0.000  -0.003   0.000  -0.003
    6        0.000  -0.003   0.000  -0.003
    7       -0.000   0.003   0.000   0.003
    8       -0.000   0.003   0.000   0.003
    9        0.000   0.002  -0.007  -0.005
   10       -0.000  -0.002   0.007   0.005
   11        0.000   0.002  -0.007  -0.005
   12       -0.000  -0.002   0.007   0.005
   13        0.020   0.055   3.637   3.711
   14       -0.020  -0.055  -3.637  -3.711
   15        0.020   0.055   3.637   3.711
   16       -0.020  -0.055  -3.637  -3.711
--------------------------------------------------
tot          0.000   0.000  -0.001  -0.000
 
    FORLOC:  cpu time    0.0027: real time    0.0027
    FORNL :  cpu time    1.1071: real time    1.1122
    STRESS:  cpu time    1.0621: real time    1.0669
    FORCOR:  cpu time    0.0806: real time    0.0811
    OFIELD:  cpu time    0.0003: real time    0.0003

  FORCE on cell =-STRESS in cart. coord.  units (eV):
  Direction    XX          YY          ZZ          XY          YZ          ZX
  --------------------------------------------------------------------------------------
  Alpha Z   605.20477   605.20477   605.20477
  Ewald   -5387.04308 -4963.89853 -5422.05193    -0.00000    -0.00000     0.00000
  Hartree  3486.16751  3678.55231  3475.67595    -0.00000     0.00000     0.00000
  E(xc)   -1051.52383 -1051.28580 -1051.51938    -0.00000    -0.00000    -0.00000
  Local   -1000.11483 -1613.95154  -951.32870    -0.00000    -0.00000    -0.00000
  n-local   122.07232   128.07824   122.07597    -0.20370    -0.08663    -0.01952
  augment  1180.11428  1183.64894  1177.80485    -0.00000    -0.00000    -0.00000
  Kinetic  2050.86267  2033.65230  2049.40333    -0.82981     0.05942    -0.01049
  Fock        0.00000     0.00000     0.00000     0.00000     0.00000     0.00000
  -------------------------------------------------------------------------------------
  Total       5.73982     0.00070     5.26486     0.00000     0.00000     0.00000
  in kB      32.84560     0.00400    30.12769     0.00000     0.00000     0.00000
  external pressure =       20.99 kB  Pullay stress =        0.00 kB


 VOLUME and BASIS-vectors are now :
 -----------------------------------------------------------------------------
  energy-cutoff  :      700.00
  volume of cell :      279.98
      direct lattice vectors                 reciprocal lattice vectors
     5.048434229  0.000000000  0.000000000     0.198081218  0.000000000  0.000000000
     0.000000000  5.550372351  0.000000000     0.000000000  0.180168093  0.000000000
     0.000000000  0.000000000  9.992001355     0.000000000  0.000000000  0.100080050

  length of vectors
     5.048434229  5.550372351  9.992001355     0.198081218  0.180168093  0.100080050


 FORCES acting on ions:
    Electron-Ion                     Ewald-Force                    Non-Local-Force
 -----------------------------------------------------------------------------------------------
   0.414E+02 0.279E-12 0.234E-12   -.421E+02 -.132E-10 0.816E-11   0.828E+00 0.434E-18 -.867E-18
   -.414E+02 -.128E-11 0.170E-12   0.421E+02 0.131E-10 0.804E-11   -.828E+00 0.000E+00 -.867E-18
   0.581E-12 -.460E+02 0.233E-12   -.293E-13 0.470E+02 0.342E-11   0.434E-18 -.992E+00 -.173E-17
   -.311E-12 0.460E+02 0.421E-12   -.151E-13 -.470E+02 0.341E-11   0.000E+00 0.992E+00 -.347E-17
   -.414E+02 0.182E-12 0.510E-13   0.421E+02 -.132E-10 -.813E-11   -.828E+00 0.000E+00 -.867E-18
   0.414E+02 -.110E-12 0.417E-13   -.421E+02 0.131E-10 -.823E-11   0.828E+00 -.434E-18 -.867E-18
   -.337E-12 -.460E+02 0.942E-12   0.426E-13 0.470E+02 -.333E-11   0.434E-18 -.992E+00 -.173E-17
   0.327E-12 0.460E+02 0.404E-12   0.142E-13 -.470E+02 -.344E-11   -.867E-18 0.992E+00 -.347E-17
   -.418E-12 0.174E-12 -.377E+01   0.129E-04 -.260E-04 0.381E+01   -.136E-19 0.000E+00 -.357E-01
   0.960E-12 -.154E-12 0.377E+01   -.129E-04 -.260E-04 -.381E+01   0.000E+00 0.108E-18 0.357E-01
   0.104E-11 -.341E-11 -.377E+01   -.129E-04 0.260E-04 0.381E+01   -.136E-19 0.000E+00 -.357E-01
   -.534E-12 0.145E-11 0.377E+01   0.129E-04 0.260E-04 -.381E+01   0.000E+00 0.108E-18 0.357E-01
   -.197E-12 0.614E-13 0.109E+02   -.102E-04 0.219E-04 -.109E+02   0.000E+00 0.000E+00 -.267E-02
   0.543E-12 -.102E-13 -.109E+02   0.102E-04 0.219E-04 0.109E+02   -.434E-18 0.217E-18 0.267E-02
   0.514E-12 0.196E-11 0.109E+02   0.102E-04 -.219E-04 -.109E+02   0.000E+00 0.000E+00 -.267E-02
   -.173E-12 0.533E-12 -.109E+02   -.102E-04 -.219E-04 0.109E+02   -.434E-18 0.217E-18 0.267E-02
 -----------------------------------------------------------------------------------------------
   0.498E-11 0.456E-11 -.288E-10   0.681E-13 0.317E-13 0.208E-12   -.112E-15 0.651E-18 -.208E-16
 
 
 POSITION                                       TOTAL-FORCE (eV/Angst)
 -----------------------------------------------------------------------------------
      1.27125      1.38759      1.24900        -0.000003     -0.000000      0.000000
      3.77718      4.16278      1.24900         0.000003     -0.000000      0.000000
      1.26211      4.14629      8.74300         0.000000      0.000004      0.000000
      3.78633      1.40409      8.74300         0.000000     -0.000004      0.000000
      1.25297      1.38759      6.24500         0.000003     -0.000000      0.000000
      3.79547      4.16278      6.24500        -0.000003     -0.000000      0.000000
      3.78633      1.37110      3.74700         0.000000      0.000004      0.000000
      1.26211      4.17927      3.74700         0.000000     -0.000004      0.000000
      0.00000      0.00000      5.00623         0.000000     -0.000000      0.000010
      2.52422      0.00000      2.48778         0.000000     -0.000000     -0.000010
      2.52422      2.77519      0.01023         0.000000     -0.000000      0.000010
      0.00000      2.77519      7.48378         0.000000     -0.000000     -0.000010
      0.00000      0.00000      9.99057         0.000000     -0.000000      0.000001
      2.52422      0.00000      7.49543         0.000000     -0.000000     -0.000001
      2.52422      2.77519      4.99457         0.000000     -0.000000      0.000001
      0.00000      2.77519      2.49943         0.000000     -0.000000     -0.000001
 -----------------------------------------------------------------------------------
    total drift:                                0.000000      0.000000     -0.000000


--------------------------------------------------------------------------------------------------------



  FREE ENERGIE OF THE ION-ELECTRON SYSTEM (eV)
  ---------------------------------------------------
  free  energy   TOTEN  =       -81.83241997 eV

  energy  without entropy=      -81.83241997  energy(sigma->0) =      -81.83241997
 


--------------------------------------------------------------------------------------------------------


    POTLOK:  cpu time    0.6775: real time    0.6799


--------------------------------------------------------------------------------------------------------


 writing wavefunctions
     LOOP+:  cpu time  478.6881: real time  566.1053
    4ORBIT:  cpu time    0.0000: real time    0.0000
 


 total charge     
 
# of ion       s       p       d       tot
------------------------------------------
    1        1.314   2.420   0.000   3.734
    2        1.314   2.419   0.000   3.733
    3        1.315   2.415   0.000   3.730
    4        1.315   2.416   0.000   3.730
    5        1.314   2.419   0.000   3.733
    6        1.314   2.420   0.000   3.734
    7        1.315   2.415   0.000   3.730
    8        1.315   2.416   0.000   3.730
    9        0.265   6.211   8.915  15.391
   10        0.265   6.211   8.915  15.392
   11        0.265   6.211   8.915  15.391
   12        0.265   6.211   8.915  15.392
   13        0.354   6.363   5.841  12.558
   14        0.354   6.363   5.841  12.557
   15        0.354   6.363   5.841  12.558
   16        0.354   6.363   5.841  12.557
--------------------------------------------------
tot         12.990  69.636  59.025 141.651
 


 magnetization (x)
 
# of ion       s       p       d       tot
------------------------------------------
    1        0.000  -0.000   0.000  -0.000
    2       -0.000   0.000   0.000   0.000
    3        0.000   0.000   0.000   0.000
    4       -0.000   0.000   0.000  -0.000
    5       -0.000   0.000   0.000   0.000
    6        0.000  -0.000   0.000  -0.000
    7        0.000   0.000   0.000   0.000
    8       -0.000   0.000   0.000  -0.000
    9       -0.000   0.000   0.000   0.000
   10       -0.000   0.000  -0.000  -0.000
   11       -0.000   0.000   0.000   0.000
   12       -0.000   0.000  -0.000  -0.000
   13       -0.000   0.000  -0.000  -0.000
   14       -0.000  -0.000  -0.000  -0.000
   15       -0.000   0.000  -0.000  -0.000
   16       -0.000  -0.000  -0.000  -0.000
--------------------------------------------------
tot         -0.000   0.000  -0.000  -0.000
 


 magnetization (y)
 
# of ion       s       p       d       tot
------------------------------------------
    1       -0.000  -0.000   0.000  -0.000
    2       -0.000   0.000   0.000  -0.000
    3        0.000  -0.000   0.000  -0.000
    4       -0.000   0.000   0.000   0.000
    5       -0.000   0.000   0.000  -0.000
    6       -0.000  -0.000   0.000  -0.000
    7        0.000  -0.000   0.000  -0.000
    8       -0.000   0.000   0.000   0.000
    9       -0.000   0.000  -0.000  -0.000
   10       -0.000   0.000  -0.000  -0.000
   11       -0.000   0.000  -0.000  -0.000
   12       -0.000   0.000  -0.000  -0.000
   13       -0.000   0.000   0.000   0.000
   14       -0.000   0.000  -0.000  -0.000
   15       -0.000   0.000   0.000   0.000
   16       -0.000   0.000  -0.000  -0.000
--------------------------------------------------
tot         -0.000   0.000  -0.000  -0.000
 


 magnetization (z)
 
# of ion       s       p       d       tot
------------------------------------------
    1        0.000  -0.003   0.000  -0.003
    2        0.000  -0.003   0.000  -0.003
    3       -0.000   0.003   0.000   0.003
    4       -0.000   0.003   0.000   0.003
    5        0.000  -0.003   0.000  -0.003
    6        0.000  -0.003   0.000  -0.003
    7       -0.000   0.003   0.000   0.003
    8       -0.000   0.003   0.000   0.003
    9        0.000   0.002  -0.007  -0.005
   10       -0.000  -0.002   0.007   0.005
   11        0.000   0.002  -0.007  -0.005
   12       -0.000  -0.002   0.007   0.005
   13        0.020   0.055   3.637   3.711
   14       -0.020  -0.055  -3.637  -3.711
   15        0.020   0.055   3.637   3.711
   16       -0.020  -0.055  -3.637  -3.711
--------------------------------------------------
tot          0.000   0.000  -0.001  -0.000
 
 BZINTS: Fermi energy:  5.148665;172.000000 electrons
         Band energy:***********;  BLOECHL correction:  0.000000
 BZINTS: Fermi energy:  5.148665;172.000000 electrons
         Band energy:***********;  BLOECHL correction:  0.000000
 BZINTS: Fermi energy:  5.148665;172.000000 electrons
         Band energy:***********;  BLOECHL correction:  0.000000
 BZINTS: Fermi energy:  5.148665;172.000000 electrons
         Band energy:***********;  BLOECHL correction:  0.000000

 total amount of memory used by VASP MPI-rank0    79684. kBytes
=======================================================================

   base      :      30000. kBytes
   nonl-proj :       6070. kBytes
   fftplans  :       1363. kBytes
   grid      :       5529. kBytes
   one-center:         62. kBytes
   wavefun   :      36660. kBytes
 
  
  
 General timing and accounting informations for this job:
 ========================================================
  
                  Total CPU time used (sec):      509.001
                            User time (sec):      496.546
                          System time (sec):       12.454
                         Elapsed time (sec):      597.844
  
                   Maximum memory used (kb):      525540.
                   Average memory used (kb):           0.
  
                          Minor page faults:       396966
                          Major page faults:         2883
                 Voluntary context switches:         6578
