       N       E                     dE             d eps       ncg     rms          rms(c)
DAV:   1     0.619718344479E+04    0.61972E+04   -0.50387E+05 61440   0.194E+03
DAV:   2    -0.873213932204E+02   -0.62845E+04   -0.61538E+04 64000   0.439E+02
DAV:   3    -0.372344663342E+03   -0.28502E+03   -0.28369E+03 89088   0.102E+02
DAV:   4    -0.376322318034E+03   -0.39777E+01   -0.39774E+01 65536   0.124E+01
DAV:   5    -0.376426451584E+03   -0.10413E+00   -0.10413E+00 88320   0.202E+00    0.750E+01
DAV:   6    -0.334863857604E+03    0.41563E+02   -0.59014E+02 61440   0.812E+01    0.999E+01
DAV:   7    -0.329877946850E+03    0.49859E+01   -0.10844E+02 61440   0.272E+01    0.436E+01
DAV:   8    -0.329626706848E+03    0.25124E+00   -0.33368E+01 80384   0.202E+01    0.314E+01
DAV:   9    -0.331555640380E+03   -0.19289E+01   -0.92803E+01 73216   0.234E+01    0.231E+01
DAV:  10    -0.327978804039E+03    0.35768E+01   -0.21603E+01 81920   0.157E+01    0.285E+00
DAV:  11    -0.328104098791E+03   -0.12529E+00   -0.10624E+00 80640   0.168E+00    0.351E+00
DAV:  12    -0.328092045385E+03    0.12053E-01   -0.47115E-01 81408   0.178E+00    0.135E+00
DAV:  13    -0.328096631120E+03   -0.45857E-02   -0.50898E-02 76032   0.438E-01    0.942E-01
DAV:  14    -0.328106138133E+03   -0.95070E-02   -0.47733E-02 88064   0.357E-01    0.396E-01
DAV:  15    -0.328105718124E+03    0.42001E-03   -0.57604E-03 69120   0.193E-01    0.162E-01
DAV:  16    -0.328105827702E+03   -0.10958E-03   -0.42790E-04 87552   0.305E-02    0.121E-01
DAV:  17    -0.328106182883E+03   -0.35518E-03   -0.13529E-03 72704   0.536E-02    0.895E-02
DAV:  18    -0.328106228269E+03   -0.45386E-04   -0.13161E-04 79872   0.199E-02    0.470E-02
DAV:  19    -0.328106233325E+03   -0.50568E-05   -0.33254E-05 87040   0.796E-03    0.265E-02
DAV:  20    -0.328106234794E+03   -0.14682E-05   -0.49070E-06 71168   0.265E-03    0.229E-02
DAV:  21    -0.328106233342E+03    0.14515E-05   -0.26322E-05 88832   0.949E-03    0.113E-02
DAV:  22    -0.328106233635E+03   -0.29276E-06   -0.27762E-06 77312   0.460E-03    0.946E-03
DAV:  23    -0.328106233794E+03   -0.15876E-06   -0.33838E-07 81664   0.115E-03    0.717E-03
DAV:  24    -0.328106233622E+03    0.17132E-06   -0.22210E-07 98048   0.992E-04    0.287E-03
DAV:  25    -0.328106233600E+03    0.22861E-07   -0.21423E-07 88064   0.920E-04    0.777E-04
DAV:  26    -0.328106233604E+03   -0.44820E-08   -0.17984E-08 65792   0.215E-04
   1 F= -.32810623E+03 E0= -.32810623E+03  d E =0.000000E+00  mag=     0.0000
