 vasp.5.4.4.18Apr17-6-g9f103f2a35 (build Oct 30 2023 17:30:16) complex          
  
 executed on             LinuxIFC date 2024.04.02  20:31:04
 running on  256 total cores
 distrk:  each k-point on  256 cores,    1 groups
 distr:  one band on NCORES_PER_BAND=   1 cores,  256 groups


--------------------------------------------------------------------------------------------------------


 INCAR:
 POTCAR:    PAW_PBE S 06Sep2000                   
 POTCAR:     PAW_PBE Cu_pv 06Sep2000              
 POTCAR:     PAW_PBE Fe_pv 02Aug2007              

 ----------------------------------------------------------------------------- 
|                                                                             |
|           W    W    AA    RRRRR   N    N  II  N    N   GGGG   !!!           |
|           W    W   A  A   R    R  NN   N  II  NN   N  G    G  !!!           |
|           W    W  A    A  R    R  N N  N  II  N N  N  G       !!!           |
|           W WW W  AAAAAA  RRRRR   N  N N  II  N  N N  G  GGG   !            |
|           WW  WW  A    A  R   R   N   NN  II  N   NN  G    G                |
|           W    W  A    A  R    R  N    N  II  N    N   GGGG   !!!           |
|                                                                             |
|      For optimal performance we recommend to set                            |
|        NCORE= 4 - approx SQRT( number of cores)                             |
|      NCORE specifies how many cores store one orbital (NPAR=cpu/NCORE).     |
|      This setting can  greatly improve the performance of VASP for DFT.     |
|      The default,   NCORE=1            might be grossly inefficient         |
|      on modern multi-core architectures or massively parallel machines.     |
|      Do your own testing !!!!                                               |
|      Unfortunately you need to use the default for GW and RPA calculations. |
|      (for HF NCORE is supported but not extensively tested yet)             |
|                                                                             |
 ----------------------------------------------------------------------------- 

 POTCAR:    PAW_PBE S 06Sep2000                   
   SHA256 =  0fc7481fb0695f01bdc6462160264c5c84044ae9ec85a907d398b887a2bc3132 S/
   COPYR  = (c) Copyright 06Sep2000 Georg Kresse                                
   COPYR  = This file is part of the software VASP. Any use, copying, and all ot
   COPYR  = If you do not have a valid VASP license, you may not use, copy or di
   VRHFIN =S : s2p4                                                             
   LEXCH  = PE                                                                  
   EATOM  =   276.8230 eV,   20.3459 Ry                                         
                                                                                
   TITEL  = PAW_PBE S 06Sep2000                                                 
   LULTRA =        F    use ultrasoft PP ?                                      
   IUNSCR =        1    unscreen: 0-lin 1-nonlin 2-no                           
   RPACOR =    1.500    partial core radius                                     
   POMASS =   32.066; ZVAL   =    6.000    mass and valenz                      
   RCORE  =    1.900    outmost cutoff radius                                   
   RWIGS  =    2.200; RWIGS  =    1.164    wigner-seitz radius (au A)           
   ENMAX  =  258.689; ENMIN  =  194.016 eV                                      
   ICORE  =        2    local potential                                         
   LCOR   =        T    correct aug charges                                     
   LPAW   =        T    paw PP                                                  
   EAUG   =  335.092                                                            
   DEXC   =    0.000                                                            
   RMAX   =    1.942    core radius for proj-oper                               
   RAUG   =    1.300    factor for augmentation sphere                          
   RDEP   =    1.954    radius for radial grids                                 
   RDEPT  =    1.744    core radius for aug-charge                              
                                                                                
   Atomic configuration                                                         
    6 entries                                                                   
     n  l   j            E        occ.                                          
     1  0  0.50     -2405.8406   2.0000                                         
     2  0  0.50      -211.7007   2.0000                                         
     2  1  1.50      -156.4958   6.0000                                         
     3  0  0.50       -17.2562   2.0000                                         
     3  1  0.50        -7.0085   4.0000                                         
     3  2  1.50        -6.8029   0.0000                                         
   Description                                                                  
     l       E           TYP  RCUT    TYP  RCUT                                 
     0    -17.2561641     23  1.900                                             
     0    -15.8743224     23  1.900                                             
     1     -7.0085400     23  1.900                                             
     1     -2.7779785     23  1.900                                             
     2     -6.8029130     23  1.900                                             
  local pseudopotential read in
  partial core-charges read in
  partial kinetic energy density read in
  atomic valenz-charges read in
  non local Contribution for L=           0  read in
    real space projection operators read in
  non local Contribution for L=           0  read in
    real space projection operators read in
  non local Contribution for L=           1  read in
    real space projection operators read in
  non local Contribution for L=           1  read in
    real space projection operators read in
    PAW grid and wavefunctions read in
 
   number of l-projection  operators is LMAX  =           4
   number of lm-projection operators is LMMAX =           8
 
 POTCAR:     PAW_PBE Cu_pv 06Sep2000              
   SHA256 =  cb7b504e2ea725fe1f25c85a9ac77d4012ce94cd394135b722c4e25ec297f1cb Cu
   COPYR  = (c) Copyright 06Sep2000 Georg Kresse                                
   COPYR  = This file is part of the software VASP. Any use, copying, and all ot
   COPYR  = If you do not have a valid VASP license, you may not use, copy or di
   VRHFIN =Cu: d10 p1                                                           
   LEXCH  = PE                                                                  
   EATOM  =  4120.1201 eV,  302.8203 Ry                                         
                                                                                
   TITEL  = PAW_PBE Cu_pv 06Sep2000                                             
   LULTRA =        F    use ultrasoft PP ?                                      
   IUNSCR =        1    unscreen: 0-lin 1-nonlin 2-no                           
   RPACOR =    1.500    partial core radius                                     
   POMASS =   63.546; ZVAL   =   17.000    mass and valenz                      
   RCORE  =    2.000    outmost cutoff radius                                   
   RWIGS  =    2.000; RWIGS  =    1.058    wigner-seitz radius (au A)           
   ENMAX  =  368.648; ENMIN  =  276.486 eV                                      
   RCLOC  =    1.304    cutoff for local pot                                    
   LCOR   =        T    correct aug charges                                     
   LPAW   =        T    paw PP                                                  
   EAUG   =  758.233                                                            
   DEXC   =    0.000                                                            
   RMAX   =    2.046    core radius for proj-oper                               
   RAUG   =    1.300    factor for augmentation sphere                          
   RDEP   =    2.025    radius for radial grids                                 
   RDEPT  =    1.558    core radius for aug-charge                              
                                                                                
   Atomic configuration                                                         
    8 entries                                                                   
     n  l   j            E        occ.                                          
     1  0  0.50     -8850.2467   2.0000                                         
     2  0  0.50     -1062.3498   2.0000                                         
     2  1  1.50      -916.8226   6.0000                                         
     3  0  0.50      -114.6929   2.0000                                         
     3  1  1.50       -72.1325   6.0000                                         
     3  2  2.50        -5.0394  10.0000                                         
     4  0  0.50        -4.6097   1.0000                                         
     4  3  2.50        -1.3606   0.0000                                         
   Description                                                                  
     l       E           TYP  RCUT    TYP  RCUT                                 
     1    -72.1324777     23  1.700                                             
     1     -1.3605826     23  1.700                                             
     2     -5.0393776     23  2.000                                             
     2     -6.3999602     23  2.000                                             
     0     -4.6097062     23  1.800                                             
     0     14.1620818     23  1.800                                             
  local pseudopotential read in
  partial core-charges read in
  partial kinetic energy density read in
  atomic valenz-charges read in
  non local Contribution for L=           1  read in
    real space projection operators read in
  non local Contribution for L=           1  read in
    real space projection operators read in
  non local Contribution for L=           2  read in
    real space projection operators read in
  non local Contribution for L=           2  read in
    real space projection operators read in
  non local Contribution for L=           0  read in
    real space projection operators read in
  non local Contribution for L=           0  read in
    real space projection operators read in
    PAW grid and wavefunctions read in
 
   number of l-projection  operators is LMAX  =           6
   number of lm-projection operators is LMMAX =          18
 
 POTCAR:     PAW_PBE Fe_pv 02Aug2007              
   SHA256 =  5d22e414b1f82158bf2c7ecb8b97b28fd0923e48cadc1c3bf74d524558f5dd32 Fe
   COPYR  = (c) Copyright 02Aug2007 Georg Kresse                                
   COPYR  = This file is part of the software VASP. Any use, copying, and all ot
   COPYR  = If you do not have a valid VASP license, you may not use, copy or di
   VRHFIN =Fe:  3pd7s1                                                          
   LEXCH  = PE                                                                  
   EATOM  =  2457.4239 eV,  180.6156 Ry                                         
                                                                                
   TITEL  = PAW_PBE Fe_pv 02Aug2007                                             
   LULTRA =        F    use ultrasoft PP ?                                      
   IUNSCR =        1    unscreen: 0-lin 1-nonlin 2-no                           
   RPACOR =    1.750    partial core radius                                     
   POMASS =   55.847; ZVAL   =   14.000    mass and valenz                      
   RCORE  =    2.200    outmost cutoff radius                                   
   RWIGS  =    2.200; RWIGS  =    1.164    wigner-seitz radius (au A)           
   ENMAX  =  293.238; ENMIN  =  219.928 eV                                      
   ICORE  =        3    local potential                                         
   LCOR   =        T    correct aug charges                                     
   LPAW   =        T    paw PP                                                  
   EAUG   =  578.342                                                            
   DEXC   =    0.000                                                            
   RMAX   =    2.249    core radius for proj-oper                               
   RAUG   =    1.300    factor for augmentation sphere                          
   RDEP   =    2.296    radius for radial grids                                 
   RDEPT  =    1.766    core radius for aug-charge                              
                                                                                
   Atomic configuration                                                         
    8 entries                                                                   
     n  l   j            E        occ.                                          
     1  0  0.50     -6993.8440   2.0000                                         
     2  0  0.50      -814.6047   2.0000                                         
     2  1  1.50      -693.3689   6.0000                                         
     3  0  0.50       -89.4732   2.0000                                         
     3  1  1.50       -55.6373   6.0000                                         
     3  2  2.50        -3.8151   7.0000                                         
     4  0  0.50        -4.2551   1.0000                                         
     4  3  2.50        -1.3606   0.0000                                         
   Description                                                                  
     l       E           TYP  RCUT    TYP  RCUT                                 
     1    -55.6372668     23  2.000                                             
     1     -5.4423304     23  2.000                                             
     2     -3.8151096     23  2.200                                             
     2     -5.1756922     23  2.200                                             
     0     -4.2550951     23  2.200                                             
     0     27.2116520     23  2.200                                             
     3     -1.3605826     23  2.200                                             
  local pseudopotential read in
  partial core-charges read in
  partial kinetic energy density read in
  atomic valenz-charges read in
  non local Contribution for L=           1  read in
    real space projection operators read in
  non local Contribution for L=           1  read in
    real space projection operators read in
  non local Contribution for L=           2  read in
    real space projection operators read in
  non local Contribution for L=           2  read in
    real space projection operators read in
  non local Contribution for L=           0  read in
    real space projection operators read in
  non local Contribution for L=           0  read in
    real space projection operators read in
    PAW grid and wavefunctions read in
 
   number of l-projection  operators is LMAX  =           6
   number of lm-projection operators is LMMAX =          18
 

 ----------------------------------------------------------------------------- 
|                                                                             |
|  ADVICE TO THIS USER RUNNING 'VASP/VAMP'   (HEAR YOUR MASTER'S VOICE ...):  |
|                                                                             |
|      You have a (more or less) 'large supercell' and for larger cells       |
|      it might be more efficient to use real space projection opertators     |
|      So try LREAL= Auto  in the INCAR   file.                               |
|      Mind:          For very  accurate calculation you might also keep the  |
|      reciprocal projection scheme          (i.e. LREAL=.FALSE.)             |
|                                                                             |
 ----------------------------------------------------------------------------- 


 ----------------------------------------------------------------------------- 
|                                                                             |
|  ADVICE TO THIS USER RUNNING 'VASP/VAMP'   (HEAR YOUR MASTER'S VOICE ...):  |
|                                                                             |
|      You enforced a specific xc-type in the INCAR file,                     |
|      a different type was found on the POTCAR file                          |
|          I HOPE YOU KNOW, WHAT YOU ARE  DOING                               |
|                                                                             |
 ----------------------------------------------------------------------------- 

  PAW_PBE S 06Sep2000                   :
 energy of atom  1       EATOM= -276.8230
 kinetic energy error for atom=    0.0007 (will be added to EATOM!!)
   PAW_PBE Cu_pv 06Sep2000              :
 energy of atom  2       EATOM=-4120.1201
 kinetic energy error for atom=    0.0094 (will be added to EATOM!!)
   PAW_PBE Fe_pv 02Aug2007              :
 energy of atom  3       EATOM=-2457.4239
 kinetic energy error for atom=    0.0025 (will be added to EATOM!!)
 
 
 POSCAR: Fe16 Cu16 S32                           
  positions in direct lattice
  No initial velocities read in
 exchange correlation table for  LEXCH =       14
   RHO(1)=    0.500       N(1)  =     2000
   RHO(2)=  100.500       N(2)  =     4000
 


--------------------------------------------------------------------------------------------------------


 ion  position               nearest neighbor table
   1  0.126  0.124  0.125-  41 2.26  37 2.26  61 2.27  49 2.28
   2  0.626  0.124  0.125-  42 2.26  38 2.26  62 2.27  50 2.28
   3  0.126  0.624  0.125-  43 2.26  39 2.26  63 2.27  51 2.28
   4  0.626  0.624  0.125-  44 2.26  40 2.26  64 2.27  52 2.28
   5  0.374  0.374  0.125-  39 2.26  41 2.26  52 2.27  62 2.28
   6  0.874  0.374  0.125-  40 2.26  42 2.26  51 2.27  61 2.28
   7  0.374  0.874  0.125-  37 2.26  43 2.26  50 2.27  64 2.28
   8  0.874  0.874  0.125-  38 2.26  44 2.26  49 2.27  63 2.28
   9  0.125  0.373  0.875-  41 2.26  45 2.26  51 2.27  55 2.27
  10  0.625  0.373  0.875-  42 2.26  46 2.26  52 2.27  56 2.27
  11  0.125  0.873  0.875-  43 2.26  47 2.26  49 2.27  53 2.27
  12  0.625  0.873  0.875-  44 2.26  48 2.26  50 2.27  54 2.27
  13  0.375  0.126  0.875-  41 2.26  46 2.26  50 2.28  53 2.28
  14  0.875  0.126  0.875-  42 2.26  45 2.26  49 2.28  54 2.28
  15  0.375  0.626  0.875-  43 2.26  48 2.26  52 2.28  55 2.28
  16  0.875  0.626  0.875-  44 2.26  47 2.26  51 2.28  56 2.28
  17  0.124  0.124  0.625-  45 2.26  33 2.26  57 2.27  53 2.28
  18  0.624  0.124  0.625-  46 2.26  34 2.26  58 2.27  54 2.28
  19  0.124  0.624  0.625-  47 2.26  35 2.26  59 2.27  55 2.28
  20  0.624  0.624  0.625-  48 2.26  36 2.26  60 2.27  56 2.28
  21  0.376  0.374  0.625-  36 2.26  46 2.26  55 2.27  57 2.28
  22  0.876  0.374  0.625-  35 2.26  45 2.26  56 2.27  58 2.28
  23  0.376  0.874  0.625-  34 2.26  48 2.26  53 2.27  59 2.28
  24  0.876  0.874  0.625-  33 2.26  47 2.26  54 2.27  60 2.28
  25  0.375  0.123  0.375-  34 2.26  37 2.26  57 2.27  62 2.27
  26  0.875  0.123  0.375-  33 2.26  38 2.26  58 2.27  61 2.27
  27  0.375  0.623  0.375-  36 2.26  39 2.26  59 2.27  64 2.27
  28  0.875  0.623  0.375-  35 2.26  40 2.26  60 2.27  63 2.27
  29  0.125  0.376  0.375-  35 2.26  39 2.26  57 2.28  61 2.28
  30  0.625  0.376  0.375-  36 2.26  40 2.26  58 2.28  62 2.28
  31  0.125  0.876  0.375-  33 2.26  37 2.26  59 2.28  63 2.28
  32  0.625  0.876  0.375-  34 2.26  38 2.26  60 2.28  64 2.28
  33  1.000  0.001  0.500-  24 2.26  31 2.26  26 2.26  17 2.26
  34  0.500  0.001  0.500-  23 2.26  32 2.26  25 2.26  18 2.26
  35  1.000  0.501  0.500-  22 2.26  29 2.26  28 2.26  19 2.26
  36  0.500  0.501  0.500-  21 2.26  30 2.26  27 2.26  20 2.26
  37  0.250  0.001  0.250-   7 2.26  31 2.26  25 2.26   1 2.26
  38  0.750  0.001  0.250-   8 2.26  32 2.26  26 2.26   2 2.26
  39  0.250  0.501  0.250-   5 2.26  29 2.26  27 2.26   3 2.26
  40  0.750  0.501  0.250-   6 2.26  30 2.26  28 2.26   4 2.26
  41  0.250  0.251  1.000-   1 2.26  13 2.26   9 2.26   5 2.26
  42  0.750  0.251  1.000-   2 2.26  14 2.26  10 2.26   6 2.26
  43  0.250  0.751  1.000-   3 2.26  15 2.26  11 2.26   7 2.26
  44  0.750  0.751  1.000-   4 2.26  16 2.26  12 2.26   8 2.26
  45  0.000  0.251  0.750-  17 2.26  14 2.26   9 2.26  22 2.26
  46  0.500  0.251  0.750-  18 2.26  13 2.26  10 2.26  21 2.26
  47  0.000  0.751  0.750-  19 2.26  16 2.26  11 2.26  24 2.26
  48  0.500  0.751  0.750-  20 2.26  15 2.26  12 2.26  23 2.26
  49  1.000  0.001  0.000-   8 2.27  11 2.27  14 2.28   1 2.28
  50  0.500  0.001  0.000-   7 2.27  12 2.27  13 2.28   2 2.28
  51  1.000  0.501  0.000-   6 2.27   9 2.27  16 2.28   3 2.28
  52  0.500  0.501  0.000-   5 2.27  10 2.27  15 2.28   4 2.28
  53  0.250  0.001  0.750-  23 2.27  11 2.27  13 2.28  17 2.28
  54  0.750  0.001  0.750-  24 2.27  12 2.27  14 2.28  18 2.28
  55  0.250  0.501  0.750-  21 2.27   9 2.27  15 2.28  19 2.28
  56  0.750  0.501  0.750-  22 2.27  10 2.27  16 2.28  20 2.28
  57  0.250  0.251  0.500-  17 2.27  25 2.27  29 2.28  21 2.28
  58  0.750  0.251  0.500-  18 2.27  26 2.27  30 2.28  22 2.28
  59  0.250  0.751  0.500-  19 2.27  27 2.27  31 2.28  23 2.28
  60  0.750  0.751  0.500-  20 2.27  28 2.27  32 2.28  24 2.28
  61  0.000  0.251  0.250-   1 2.27  26 2.27  29 2.28   6 2.28
  62  0.500  0.251  0.250-   2 2.27  25 2.27  30 2.28   5 2.28
  63  0.000  0.751  0.250-   3 2.27  28 2.27  31 2.28   8 2.28
  64  0.500  0.751  0.250-   4 2.27  27 2.27  32 2.28   7 2.28
 
  LATTYP: Found a simple monoclinic cell.
 ALAT       =    14.9005114259
 B/A-ratio  =     0.7057583931
 C/A-ratio  =     1.5742487215
 COS(beta)  =    -0.9496897619
  
  Lattice vectors:
  
 A1 = ( -10.5882960000,   0.0000000000, -10.4839510000)
 A2 = (   0.0000000000, -10.5161610000,   0.0000000000)
 A3 = (  10.6609770000,   0.0000000000,  20.8944880000)


Analysis of symmetry for initial positions (statically):
=====================================================================
 Subroutine PRICEL returns following result:
 
  LATTYP: Found a base centered monoclinic cell.
 ALAT       =    11.5974948023
 B/A-ratio  =     0.4533807162
 C/A-ratio  =     0.8976758244
 COS(beta)  =    -0.8118071487
  
  Lattice vectors:
  
 A1 = (  -2.5925632500,  -2.6290402500,   5.1869150000)
 A2 = (  -2.5925632500,   2.6290402500,   5.1869150000)
 A3 = (  -0.0726810000,   0.0000000000, -10.4105370000)
 
   8 primitive cells build up your supercell.
 

 Routine SETGRP: Setting up the symmetry group for a 
 simple monoclinic supercell.


 Subroutine GETGRP returns: Found  2 space group operations
 (whereof  1 operations were pure point group operations)
 out of a pool of  4 trial point group operations.


The static configuration has the point symmetry C_1 .
 The point group associated with its full space group is C_2 .


Analysis of symmetry for dynamics (positions and initial velocities):
=====================================================================
 Subroutine PRICEL returns following result:
 
  LATTYP: Found a base centered monoclinic cell.
 ALAT       =    11.5974948023
 B/A-ratio  =     0.4533807162
 C/A-ratio  =     0.8976758244
 COS(beta)  =    -0.8118071487
  
  Lattice vectors:
  
 A1 = (  -2.5925632500,  -2.6290402500,   5.1869150000)
 A2 = (  -2.5925632500,   2.6290402500,   5.1869150000)
 A3 = (  -0.0726810000,   0.0000000000, -10.4105370000)
 
   8 primitive cells build up your supercell.
 

 Routine SETGRP: Setting up the symmetry group for a 
 simple monoclinic supercell.


 Subroutine GETGRP returns: Found  2 space group operations
 (whereof  1 operations were pure point group operations)
 out of a pool of  4 trial point group operations.


The dynamic configuration has the point symmetry C_1 .
 The point group associated with its full space group is C_2 .


Analysis of structural, dynamic, and magnetic symmetry:
=====================================================================
 Subroutine PRICEL returns following result:
 
  LATTYP: Found a base centered monoclinic cell.
 ALAT       =    11.5974948023
 B/A-ratio  =     0.4533807162
 C/A-ratio  =     0.8976758244
 COS(beta)  =    -0.8118071487
  
  Lattice vectors:
  
 A1 = (  -2.5925632500,  -2.6290402500,   5.1869150000)
 A2 = (  -2.5925632500,   2.6290402500,   5.1869150000)
 A3 = (  -0.0726810000,   0.0000000000, -10.4105370000)
 
   8 primitive cells build up your supercell.
 

 Routine SETGRP: Setting up the symmetry group for a 
 simple monoclinic supercell.


 Subroutine GETGRP returns: Found  2 space group operations
 (whereof  1 operations were pure point group operations)
 out of a pool of  4 trial point group operations.


The magnetic configuration has the point symmetry C_1 .
 The point group associated with its full space group is C_2 .


 Subroutine INISYM returns: Found  2 space group operations
 (whereof  1 operations are pure point group operations),
 and found     8 'primitive' translations

 
 
 KPOINTS: Automatic mesh                          

Automatic generation of k-mesh.
Space group operators:
 irot       det(A)        alpha          n_x          n_y          n_z        tau_x        tau_y        tau_z
    1     1.000000     0.000000     1.000000     0.000000     0.000000     0.000000     0.000000     0.000000
    2     1.000000   180.000000     0.000000     1.000000     0.000000    -0.250000     0.000000    -0.250000
 
 Subroutine IBZKPT returns following result:
 ===========================================
 
 Found     30 irreducible k-points:
 
 Following reciprocal coordinates:
            Coordinates               Weight
  0.000000  0.000000  0.000000      1.000000
  0.250000  0.000000 -0.000000      2.000000
  0.500000  0.000000 -0.000000      1.000000
  0.000000  0.250000  0.000000      2.000000
  0.250000  0.250000 -0.000000      4.000000
  0.500000  0.250000 -0.000000      2.000000
  0.000000  0.500000  0.000000      1.000000
  0.250000  0.500000 -0.000000      2.000000
  0.500000  0.500000 -0.000000      1.000000
  0.000000  0.000000  0.250000      2.000000
  0.250000  0.000000  0.250000      2.000000
  0.500000  0.000000  0.250000      2.000000
 -0.250000  0.000000  0.250000      2.000000
  0.000000  0.250000  0.250000      4.000000
  0.250000  0.250000  0.250000      4.000000
  0.500000  0.250000  0.250000      4.000000
 -0.250000  0.250000  0.250000      4.000000
  0.000000  0.500000  0.250000      2.000000
  0.250000  0.500000  0.250000      2.000000
  0.500000  0.500000  0.250000      2.000000
 -0.250000  0.500000  0.250000      2.000000
  0.000000  0.000000  0.500000      1.000000
  0.250000  0.000000  0.500000      2.000000
  0.500000  0.000000  0.500000      1.000000
  0.000000  0.250000  0.500000      2.000000
  0.250000  0.250000  0.500000      4.000000
  0.500000  0.250000  0.500000      2.000000
  0.000000  0.500000  0.500000      1.000000
  0.250000  0.500000  0.500000      2.000000
  0.500000  0.500000  0.500000      1.000000
 
 Following cartesian coordinates:
            Coordinates               Weight
  0.000000  0.000000  0.000000      1.000000
  0.023775  0.000000 -0.000166      2.000000
  0.047551  0.000000 -0.000332      1.000000
  0.000000  0.023773  0.000000      2.000000
  0.023775  0.023773 -0.000166      4.000000
  0.047551  0.023773 -0.000332      2.000000
  0.000000  0.047546  0.000000      1.000000
  0.023775  0.047546 -0.000166      2.000000
  0.047551  0.047546 -0.000332      1.000000
 -0.000168  0.000000  0.024015      2.000000
  0.023608  0.000000  0.023849      2.000000
  0.047383  0.000000  0.023683      2.000000
 -0.023943  0.000000  0.024181      2.000000
 -0.000168  0.023773  0.024015      4.000000
  0.023608  0.023773  0.023849      4.000000
  0.047383  0.023773  0.023683      4.000000
 -0.023943  0.023773  0.024181      4.000000
 -0.000168  0.047546  0.024015      2.000000
  0.023608  0.047546  0.023849      2.000000
  0.047383  0.047546  0.023683      2.000000
 -0.023943  0.047546  0.024181      2.000000
 -0.000335  0.000000  0.048031      1.000000
  0.023440  0.000000  0.047865      2.000000
  0.047215  0.000000  0.047699      1.000000
 -0.000335  0.023773  0.048031      2.000000
  0.023440  0.023773  0.047865      4.000000
  0.047215  0.023773  0.047699      2.000000
 -0.000335  0.047546  0.048031      1.000000
  0.023440  0.047546  0.047865      2.000000
  0.047215  0.047546  0.047699      1.000000
 
 TETIRR: Found    192 inequivalent tetrahedra from      384
 
 Subroutine IBZKPT_HF returns following result:
 ==============================================
 
 Found     64 k-points in 1st BZ
 the following     64 k-points will be used (e.g. in the exchange kernel)
 Following reciprocal coordinates:   # in IRBZ
  0.000000  0.000000  0.000000    0.01562500   1 t-inv F
  0.250000  0.000000 -0.000000    0.01562500   2 t-inv F
  0.500000  0.000000 -0.000000    0.01562500   3 t-inv F
  0.000000  0.250000  0.000000    0.01562500   4 t-inv F
  0.250000  0.250000 -0.000000    0.01562500   5 t-inv F
  0.500000  0.250000 -0.000000    0.01562500   6 t-inv F
  0.000000  0.500000  0.000000    0.01562500   7 t-inv F
  0.250000  0.500000 -0.000000    0.01562500   8 t-inv F
  0.500000  0.500000 -0.000000    0.01562500   9 t-inv F
  0.000000  0.000000  0.250000    0.01562500  10 t-inv F
  0.250000  0.000000  0.250000    0.01562500  11 t-inv F
  0.500000  0.000000  0.250000    0.01562500  12 t-inv F
 -0.250000  0.000000  0.250000    0.01562500  13 t-inv F
  0.000000  0.250000  0.250000    0.01562500  14 t-inv F
  0.250000  0.250000  0.250000    0.01562500  15 t-inv F
  0.500000  0.250000  0.250000    0.01562500  16 t-inv F
 -0.250000  0.250000  0.250000    0.01562500  17 t-inv F
  0.000000  0.500000  0.250000    0.01562500  18 t-inv F
  0.250000  0.500000  0.250000    0.01562500  19 t-inv F
  0.500000  0.500000  0.250000    0.01562500  20 t-inv F
 -0.250000  0.500000  0.250000    0.01562500  21 t-inv F
  0.000000  0.000000  0.500000    0.01562500  22 t-inv F
  0.250000  0.000000  0.500000    0.01562500  23 t-inv F
  0.500000  0.000000  0.500000    0.01562500  24 t-inv F
  0.000000  0.250000  0.500000    0.01562500  25 t-inv F
  0.250000  0.250000  0.500000    0.01562500  26 t-inv F
  0.500000  0.250000  0.500000    0.01562500  27 t-inv F
  0.000000  0.500000  0.500000    0.01562500  28 t-inv F
  0.250000  0.500000  0.500000    0.01562500  29 t-inv F
  0.500000  0.500000  0.500000    0.01562500  30 t-inv F
 -0.250000  0.000000  0.000000    0.01562500   2 t-inv F spinflp
 -0.250000  0.250000  0.000000    0.01562500   5 t-inv F spinflp
 -0.250000  0.500000  0.000000    0.01562500   8 t-inv F spinflp
  0.000000  0.000000 -0.250000    0.01562500  10 t-inv F spinflp
 -0.250000  0.000000 -0.250000    0.01562500  11 t-inv F spinflp
 -0.500000  0.000000 -0.250000    0.01562500  12 t-inv F spinflp
  0.250000  0.000000 -0.250000    0.01562500  13 t-inv F spinflp
  0.000000  0.250000 -0.250000    0.01562500  14 t-inv F spinflp
 -0.250000  0.250000 -0.250000    0.01562500  15 t-inv F spinflp
 -0.500000  0.250000 -0.250000    0.01562500  16 t-inv F spinflp
  0.250000  0.250000 -0.250000    0.01562500  17 t-inv F spinflp
  0.000000  0.500000 -0.250000    0.01562500  18 t-inv F spinflp
 -0.250000  0.500000 -0.250000    0.01562500  19 t-inv F spinflp
 -0.500000  0.500000 -0.250000    0.01562500  20 t-inv F spinflp
  0.250000  0.500000 -0.250000    0.01562500  21 t-inv F spinflp
 -0.250000  0.000000 -0.500000    0.01562500  23 t-inv F spinflp
 -0.250000  0.250000 -0.500000    0.01562500  26 t-inv F spinflp
 -0.250000  0.500000 -0.500000    0.01562500  29 t-inv F spinflp
  0.000000 -0.250000  0.000000    0.01562500   4 t-inv T
 -0.250000 -0.250000  0.000000    0.01562500   5 t-inv T
  0.250000 -0.250000 -0.000000    0.01562500   5 t-inv T spinflp
 -0.500000 -0.250000  0.000000    0.01562500   6 t-inv T
  0.000000 -0.250000 -0.250000    0.01562500  14 t-inv T
  0.000000 -0.250000  0.250000    0.01562500  14 t-inv T spinflp
 -0.250000 -0.250000 -0.250000    0.01562500  15 t-inv T
  0.250000 -0.250000  0.250000    0.01562500  15 t-inv T spinflp
 -0.500000 -0.250000 -0.250000    0.01562500  16 t-inv T
  0.500000 -0.250000  0.250000    0.01562500  16 t-inv T spinflp
  0.250000 -0.250000 -0.250000    0.01562500  17 t-inv T
 -0.250000 -0.250000  0.250000    0.01562500  17 t-inv T spinflp
  0.000000 -0.250000 -0.500000    0.01562500  25 t-inv T
 -0.250000 -0.250000 -0.500000    0.01562500  26 t-inv T
  0.250000 -0.250000  0.500000    0.01562500  26 t-inv T spinflp
 -0.500000 -0.250000 -0.500000    0.01562500  27 t-inv T


--------------------------------------------------------------------------------------------------------




 Dimension of arrays:
   k-points           NKPTS =     30   k-points in BZ     NKDIM =     30   number of bands    NBANDS=    512
   number of dos      NEDOS =    301   number of ions     NIONS =     64
   non local maximal  LDIM  =      6   non local SUM 2l+1 LMDIM =     18
   total plane-waves  NPLWV = 829440
   max r-space proj   IRMAX =      1   max aug-charges    IRDMAX=  22897
   dimension x,y,z NGX =    96 NGY =   96 NGZ =   90
   dimension x,y,z NGXF=   192 NGYF=  192 NGZF=  180
   support grid    NGXF=   192 NGYF=  192 NGZF=  180
   ions per type =              32  16  16
   NGX,Y,Z   is equivalent  to a cutoff of  15.18, 15.18, 14.37 a.u.
   NGXF,Y,Z  is equivalent  to a cutoff of  30.35, 30.35, 28.74 a.u.

 SYSTEM =  CuFeS2                                  
 POSCAR =  Fe16 Cu16 S32                           

 Startparameter for this run:
   NWRITE =      2    write-flag & timer
   PREC   = accura    normal or accurate (medium, high low for compatibility)
   ISTART =      0    job   : 0-new  1-cont  2-samecut
   ICHARG =      1    charge: 1-file 2-atom 10-const
   ISPIN  =      2    spin polarized calculation?
   LNONCOLLINEAR =      F non collinear calculations
   LSORBIT =      F    spin-orbit coupling
   INIWAV =      1    electr: 0-lowe 1-rand  2-diag
   LASPH  =      F    aspherical Exc in radial PAW
   METAGGA=      F    non-selfconsistent MetaGGA calc.

 Electronic Relaxation 1
   ENCUT  =  700.0 eV  51.45 Ry    7.17 a.u.  22.69 22.69 22.46*2*pi/ulx,y,z
   ENINI  =  700.0     initial cutoff
   ENAUG  =  758.2 eV  augmentation charge cutoff
   NELM   =    500;   NELMIN=  2; NELMDL=  0     # of ELM steps 
   EDIFF  = 0.1E-07   stopping-criterion for ELM
   LREAL  =      F    real-space projection
   NLSPLINE    = F    spline interpolate recip. space projectors
   LCOMPAT=      F    compatible to vasp.4.4
   GGA_COMPAT  = T    GGA compatible to vasp.4.4-vasp.4.6
   LMAXPAW     = -100 max onsite density
   LMAXMIX     =    4 max onsite mixed and CHGCAR
   VOSKOWN=      0    Vosko Wilk Nusair interpolation
   ROPT   =    0.00000   0.00000   0.00000
 Ionic relaxation
   EDIFFG = -.1E-04   stopping-criterion for IOM
   NSW    =      0    number of steps for IOM
   NBLOCK =      1;   KBLOCK =      1    inner block; outer block 
   IBRION =     -1    ionic relax: 0-MD 1-quasi-New 2-CG
   NFREE  =      0    steps in history (QN), initial steepest desc. (CG)
   ISIF   =      2    stress and relaxation
   IWAVPR =     10    prediction:  0-non 1-charg 2-wave 3-comb
   ISYM   =      2    0-nonsym 1-usesym 2-fastsym
   LCORR  =      T    Harris-Foulkes like correction to forces

   POTIM  = 0.5000    time-step for ionic-motion
   TEIN   =    0.0    initial temperature
   TEBEG  =    0.0;   TEEND  =   0.0 temperature during run
   SMASS  =  -3.00    Nose mass-parameter (am)
   estimated Nose-frequenzy (Omega)   =  0.10E-29 period in steps =****** mass=  -0.253E-26a.u.
   SCALEE = 1.0000    scale energy and forces
   NPACO  =    256;   APACO  = 16.0  distance and # of slots for P.C.
   PSTRESS=    0.0 pullay stress

  Mass of Ions in am
   POMASS =  32.07 63.55 55.85
  Ionic Valenz
   ZVAL   =   6.00 17.00 14.00
  Atomic Wigner-Seitz radii
   RWIGS  =  -1.00 -1.00 -1.00
  virtual crystal weights 
   VCA    =   1.00  1.00  1.00
   NELECT =     688.0000    total number of electrons
   NUPDOWN=      -1.0000    fix difference up-down

 DOS related values:
   EMIN   =  10.00;   EMAX   =-10.00  energy-range for DOS
   EFERMI =   0.00
   ISMEAR =    -5;   SIGMA  =   0.03  broadening in eV -4-tet -1-fermi 0-gaus

 Electronic relaxation 2 (details)
   IALGO  =     38    algorithm
   LDIAG  =      T    sub-space diagonalisation (order eigenvalues)
   LSUBROT=      F    optimize rotation matrix (better conditioning)
   TURBO    =      0    0=normal 1=particle mesh
   IRESTART =      0    0=no restart 2=restart with 2 vectors
   NREBOOT  =      0    no. of reboots
   NMIN     =      0    reboot dimension
   EREF     =   0.00    reference energy to select bands
   IMIX   =      4    mixing-type and parameters
     AMIX     =   0.40;   BMIX     =  1.00
     AMIX_MAG =   1.60;   BMIX_MAG =  1.00
     AMIN     =   0.10
     WC   =   100.;   INIMIX=   1;  MIXPRE=   1;  MAXMIX= -45

 Intra band minimization:
   WEIMIN = 0.0000     energy-eigenvalue tresh-hold
   EBREAK =  0.49E-11  absolut break condition
   DEPER  =   0.30     relativ break condition  

   TIME   =   0.40     timestep for ELM

  volume/ion in A,a.u.               =      17.99       121.38
  Fermi-wavevector in a.u.,A,eV,Ry     =   1.378975  2.605885 25.872454  1.901572
  Thomas-Fermi vector in A             =   2.503987
 
 Write flags
   LWAVE        =      T    write WAVECAR
   LDOWNSAMPLE  =      F    k-point downsampling of WAVECAR
   LCHARG       =      T    write CHGCAR
   LVTOT        =      F    write LOCPOT, total local potential
   LVHAR        =      F    write LOCPOT, Hartree potential only
   LELF         =      F    write electronic localiz. function (ELF)
   LORBIT       =     11    0 simple, 1 ext, 2 COOP (PROOUT), +10 PAW based schemes


 Dipole corrections
   LMONO  =      F    monopole corrections only (constant potential shift)
   LDIPOL =      F    correct potential (dipole corrections)
   IDIPOL =      0    1-x, 2-y, 3-z, 4-all directions 
   EPSILON=  1.0000000 bulk dielectric constant

 LDA+U is selected, type is set to LDAUTYPE =  2
   angular momentum for each species LDAUL =     2    2    2
   U (eV)           for each species LDAUU =   0.0  0.1  4.7
   J (eV)           for each species LDAUJ =   0.0  0.0  0.0
 Exchange correlation treatment:
   GGA     =    PS    GGA type
   LEXCH   =    14    internal setting for exchange type
   VOSKOWN=      0    Vosko Wilk Nusair interpolation
   LHFCALC =     F    Hartree Fock is set to
   LHFONE  =     F    Hartree Fock one center treatment
   AEXX    =    0.0000 exact exchange contribution

 Linear response parameters
   LEPSILON=     F    determine dielectric tensor
   LRPA    =     F    only Hartree local field effects (RPA)
   LNABLA  =     F    use nabla operator in PAW spheres
   LVEL    =     F    velocity operator in full k-point grid
   LINTERFAST=   F  fast interpolation
   KINTER  =     0    interpolate to denser k-point grid
   CSHIFT  =0.1000    complex shift for real part using Kramers Kronig
   OMEGAMAX=  -1.0    maximum frequency
   DEG_THRESHOLD= 0.2000000E-02 threshold for treating states as degnerate
   RTIME   =   -0.100 relaxation time in fs
  (WPLASMAI=    0.000 imaginary part of plasma frequency in eV, 0.658/RTIME)
   DFIELD  = 0.0000000 0.0000000 0.0000000 field for delta impulse in time
 
 Orbital magnetization related:
   ORBITALMAG=     F  switch on orbital magnetization
   LCHIMAG   =     F  perturbation theory with respect to B field
   DQ        =  0.001000  dq finite difference perturbation B field
   LLRAUG    =     F  two centre corrections for induced B field

 PEAD related settings:
   LPEAD      =     T    switch on PEAD
   IPEAD      =     4    finite difference order for dpsi/dk
   LCALCPOL   =     T    calculate macroscopic polarization
   LCALCEPS   =     F    calculate dielectric tensor
   EFIELD_PEAD=    0.0000    0.0000    0.0000
   SKIP_EDOTP =     F
   LRPA       =     F
   SKIP_SCF   =     F


--------------------------------------------------------------------------------------------------------


 Static calculation
 charge density and potential will be updated during run
 spin polarized calculation
 Variant of blocked Davidson
 Davidson routine will perform the subspace rotation
 perform sub-space diagonalisation
    after iterative eigenvector-optimisation
 modified Broyden-mixing scheme, WC =      100.0
 initial mixing is a Kerker type mixing with AMIX =  0.4000 and BMIX =      1.0000
 Hartree-type preconditioning will be used
 using additional bands          168
 reciprocal scheme for non local part
 use partial core corrections
 calculate Harris-corrections to forces 
   (improved forces if not selfconsistent)
 use gradient corrections 
 use of overlap-Matrix (Vanderbilt PP)
 Fermi weights with tetrahedron method with Bloechl corrections


--------------------------------------------------------------------------------------------------------


  energy-cutoff  :      700.00
  volume of cell :     1151.18
      direct lattice vectors                 reciprocal lattice vectors
    10.515615000  0.000000000  0.073414000     0.095101308  0.000000000 -0.000663948
     0.000000000 10.516161000  0.000000000     0.000000000  0.095091735  0.000000000
     0.072681000  0.000000000 10.410537000    -0.000670644  0.000000000  0.096061206

  length of vectors
    10.515871264 10.516161000 10.410790708     0.095103626  0.095091735  0.096063547


 
 k-points in units of 2pi/SCALE and weight: Automatic mesh                          
   0.00000000  0.00000000  0.00000000       0.016
   0.02377533  0.00000000 -0.00016599       0.031
   0.04755065  0.00000000 -0.00033197       0.016
   0.00000000  0.02377293  0.00000000       0.031
   0.02377533  0.02377293 -0.00016599       0.062
   0.04755065  0.02377293 -0.00033197       0.031
   0.00000000  0.04754587  0.00000000       0.016
   0.02377533  0.04754587 -0.00016599       0.031
   0.04755065  0.04754587 -0.00033197       0.016
  -0.00016766  0.00000000  0.02401530       0.031
   0.02360767  0.00000000  0.02384931       0.031
   0.04738299  0.00000000  0.02368333       0.031
  -0.02394299  0.00000000  0.02418129       0.031
  -0.00016766  0.02377293  0.02401530       0.062
   0.02360767  0.02377293  0.02384931       0.062
   0.04738299  0.02377293  0.02368333       0.062
  -0.02394299  0.02377293  0.02418129       0.062
  -0.00016766  0.04754587  0.02401530       0.031
   0.02360767  0.04754587  0.02384931       0.031
   0.04738299  0.04754587  0.02368333       0.031
  -0.02394299  0.04754587  0.02418129       0.031
  -0.00033532  0.00000000  0.04803060       0.016
   0.02344000  0.00000000  0.04786462       0.031
   0.04721533  0.00000000  0.04769863       0.016
  -0.00033532  0.02377293  0.04803060       0.031
   0.02344000  0.02377293  0.04786462       0.062
   0.04721533  0.02377293  0.04769863       0.031
  -0.00033532  0.04754587  0.04803060       0.016
   0.02344000  0.04754587  0.04786462       0.031
   0.04721533  0.04754587  0.04769863       0.016
 
 k-points in reciprocal lattice and weights: Automatic mesh                          
   0.00000000  0.00000000  0.00000000       0.016
   0.25000000  0.00000000 -0.00000000       0.031
   0.50000000  0.00000000 -0.00000000       0.016
   0.00000000  0.25000000  0.00000000       0.031
   0.25000000  0.25000000 -0.00000000       0.062
   0.50000000  0.25000000 -0.00000000       0.031
   0.00000000  0.50000000  0.00000000       0.016
   0.25000000  0.50000000 -0.00000000       0.031
   0.50000000  0.50000000 -0.00000000       0.016
   0.00000000  0.00000000  0.25000000       0.031
   0.25000000  0.00000000  0.25000000       0.031
   0.50000000  0.00000000  0.25000000       0.031
  -0.25000000  0.00000000  0.25000000       0.031
   0.00000000  0.25000000  0.25000000       0.062
   0.25000000  0.25000000  0.25000000       0.062
   0.50000000  0.25000000  0.25000000       0.062
  -0.25000000  0.25000000  0.25000000       0.062
   0.00000000  0.50000000  0.25000000       0.031
   0.25000000  0.50000000  0.25000000       0.031
   0.50000000  0.50000000  0.25000000       0.031
  -0.25000000  0.50000000  0.25000000       0.031
   0.00000000  0.00000000  0.50000000       0.016
   0.25000000  0.00000000  0.50000000       0.031
   0.50000000  0.00000000  0.50000000       0.016
   0.00000000  0.25000000  0.50000000       0.031
   0.25000000  0.25000000  0.50000000       0.062
   0.50000000  0.25000000  0.50000000       0.031
   0.00000000  0.50000000  0.50000000       0.016
   0.25000000  0.50000000  0.50000000       0.031
   0.50000000  0.50000000  0.50000000       0.016
 
 position of ions in fractional coordinates (direct lattice) 
   0.12616300  0.12412600  0.12514600
   0.62616300  0.12412600  0.12514600
   0.12616300  0.62412600  0.12514600
   0.62616300  0.62412600  0.12514600
   0.37383700  0.37412600  0.12485400
   0.87383700  0.37412600  0.12485400
   0.37383700  0.87412600  0.12485400
   0.87383700  0.87412600  0.12485400
   0.12500000  0.37323800  0.87500000
   0.62500000  0.37323800  0.87500000
   0.12500000  0.87323800  0.87500000
   0.62500000  0.87323800  0.87500000
   0.37500000  0.12553600  0.87500000
   0.87500000  0.12553600  0.87500000
   0.37500000  0.62553600  0.87500000
   0.87500000  0.62553600  0.87500000
   0.12383700  0.12412600  0.62485400
   0.62383700  0.12412600  0.62485400
   0.12383700  0.62412600  0.62485400
   0.62383700  0.62412600  0.62485400
   0.37616300  0.37412600  0.62514600
   0.87616300  0.37412600  0.62514600
   0.37616300  0.87412600  0.62514600
   0.87616300  0.87412600  0.62514600
   0.37500000  0.12323800  0.37500000
   0.87500000  0.12323800  0.37500000
   0.37500000  0.62323800  0.37500000
   0.87500000  0.62323800  0.37500000
   0.12500000  0.37553600  0.37500000
   0.62500000  0.37553600  0.37500000
   0.12500000  0.87553600  0.37500000
   0.62500000  0.87553600  0.37500000
   0.99973200  0.00075500  0.49999700
   0.49973200  0.00075500  0.49999700
   0.99973200  0.50075500  0.49999700
   0.49973200  0.50075500  0.49999700
   0.25026800  0.00075500  0.25000300
   0.75026800  0.00075500  0.25000300
   0.25026800  0.50075500  0.25000300
   0.75026800  0.50075500  0.25000300
   0.24973200  0.25075500  0.99999700
   0.74973200  0.25075500  0.99999700
   0.24973200  0.75075500  0.99999700
   0.74973200  0.75075500  0.99999700
   0.00026800  0.25075500  0.75000300
   0.50026800  0.25075500  0.75000300
   0.00026800  0.75075500  0.75000300
   0.50026800  0.75075500  0.75000300
   0.99986800  0.00073200  0.00001400
   0.49986800  0.00073200  0.00001400
   0.99986800  0.50073200  0.00001400
   0.49986800  0.50073200  0.00001400
   0.25013200  0.00073200  0.74998600
   0.75013200  0.00073200  0.74998600
   0.25013200  0.50073200  0.74998600
   0.75013200  0.50073200  0.74998600
   0.24986800  0.25073200  0.50001400
   0.74986800  0.25073200  0.50001400
   0.24986800  0.75073200  0.50001400
   0.74986800  0.75073200  0.50001400
   0.00013200  0.25073200  0.24998600
   0.50013200  0.25073200  0.24998600
   0.00013200  0.75073200  0.24998600
   0.50013200  0.75073200  0.24998600
 
 position of ions in cartesian coordinates  (Angst):
   1.33577727  1.30532900  1.31209919
   6.59358477  1.30532900  1.34880619
   1.33577727  6.56340950  1.31209919
   6.59358477  6.56340950  1.34880619
   3.94020048  3.93436925  1.32724206
   9.19800798  3.93436925  1.36394906
   3.94020048  9.19244975  1.32724206
   9.19800798  9.19244975  1.36394906
   1.37804775  3.92503090  9.11839662
   6.63585525  3.92503090  9.15510362
   1.37804775  9.18311140  9.11839662
   6.63585525  9.18311140  9.15510362
   4.00695150  1.32015679  9.13675012
   9.26475900  1.32015679  9.17345712
   4.00695150  6.57823729  9.13675012
   9.26475900  6.57823729  9.17345712
   1.34763723  1.30532900  6.51415706
   6.60544473  1.30532900  6.55086406
   1.34763723  6.56340950  6.51415706
   6.60544473  6.56340950  6.55086406
   4.00102152  3.93436925  6.53572119
   9.25882902  3.93436925  6.57242819
   4.00102152  9.19244975  6.53572119
   9.25882902  9.19244975  6.57242819
   3.97061100  1.29599065  3.93148162
   9.22841850  1.29599065  3.96818863
   3.97061100  6.55407115  3.93148162
   9.22841850  6.55407115  3.96818863
   1.34170725  3.94919704  3.91312813
   6.59951475  3.94919704  3.94983512
   1.34170725  9.20727754  3.91312813
   6.59951475  9.20727754  3.94983512
  10.54913710  0.00793970  5.27863159
   5.29132960  0.00793970  5.24192459
  10.54913710  5.26602020  5.27863159
   5.29132960  5.26602020  5.24192459
   2.64989240  0.00793970  2.62103866
   7.90769990  0.00793970  2.65774566
   2.64989240  5.26602020  2.62103866
   7.90769990  5.26602020  2.65774566
   2.69876635  2.63697995 10.42883959
   7.95657385  2.63697995 10.46554659
   2.69876635  7.89506045 10.42883959
   7.95657385  7.89506045 10.46554659
   0.05732915  2.63697995  7.80795366
   5.31513665  2.63697995  7.84466066
   0.05732915  7.89506045  7.80795366
   5.31513665  7.89506045  7.84466066
  10.51422796  0.00769783  0.07355006
   5.25642046  0.00769783  0.03684306
  10.51422796  5.26577833  0.07355006
   5.25642046  5.26577833  0.03684306
   2.68480154  0.00769783  7.82612019
   7.94260904  0.00769783  7.86282719
   2.68480154  5.26577833  7.82612019
   7.94260904  5.26577833  7.86282719
   2.66385721  2.63673808  5.22375806
   7.92166471  2.63673808  5.26046506
   2.66385721  7.89481858  5.22375806
   7.92166471  7.89481858  5.26046506
   0.01955729  2.63673808  2.60249819
   5.27736479  2.63673808  2.63920519
   0.01955729  7.89481858  2.60249819
   5.27736479  7.89481858  2.63920519
 


--------------------------------------------------------------------------------------------------------


 k-point  1 :   0.0000 0.0000 0.0000  plane waves:   48427
 k-point  2 :   0.2500 0.0000-0.0000  plane waves:   48458
 k-point  3 :   0.5000 0.0000-0.0000  plane waves:   48466
 k-point  4 :   0.0000 0.2500 0.0000  plane waves:   48439
 k-point  5 :   0.2500 0.2500-0.0000  plane waves:   48428
 k-point  6 :   0.5000 0.2500-0.0000  plane waves:   48428
 k-point  7 :   0.0000 0.5000 0.0000  plane waves:   48478
 k-point  8 :   0.2500 0.5000-0.0000  plane waves:   48426
 k-point  9 :   0.5000 0.5000-0.0000  plane waves:   48404
 k-point 10 :   0.0000 0.0000 0.2500  plane waves:   48424
 k-point 11 :   0.2500 0.0000 0.2500  plane waves:   48399
 k-point 12 :   0.5000 0.0000 0.2500  plane waves:   48421
 k-point 13 :  -0.2500 0.0000 0.2500  plane waves:   48430
 k-point 14 :   0.0000 0.2500 0.2500  plane waves:   48416
 k-point 15 :   0.2500 0.2500 0.2500  plane waves:   48422
 k-point 16 :   0.5000 0.2500 0.2500  plane waves:   48397
 k-point 17 :  -0.2500 0.2500 0.2500  plane waves:   48397
 k-point 18 :   0.0000 0.5000 0.2500  plane waves:   48458
 k-point 19 :   0.2500 0.5000 0.2500  plane waves:   48418
 k-point 20 :   0.5000 0.5000 0.2500  plane waves:   48392
 k-point 21 :  -0.2500 0.5000 0.2500  plane waves:   48396
 k-point 22 :   0.0000 0.0000 0.5000  plane waves:   48406
 k-point 23 :   0.2500 0.0000 0.5000  plane waves:   48424
 k-point 24 :   0.5000 0.0000 0.5000  plane waves:   48400
 k-point 25 :   0.0000 0.2500 0.5000  plane waves:   48410
 k-point 26 :   0.2500 0.2500 0.5000  plane waves:   48376
 k-point 27 :   0.5000 0.2500 0.5000  plane waves:   48386
 k-point 28 :   0.0000 0.5000 0.5000  plane waves:   48364
 k-point 29 :   0.2500 0.5000 0.5000  plane waves:   48366
 k-point 30 :   0.5000 0.5000 0.5000  plane waves:   48372

 maximum and minimum number of plane-waves per node :     48478    48364

 maximum number of plane-waves:     48478
 maximum index in each direction: 
   IXMAX=   22   IYMAX=   22   IZMAX=   22
   IXMIN=  -23   IYMIN=  -23   IZMIN=  -22


 serial   3D FFT for wavefunctions
 parallel 3D FFT for charge:
    minimum data exchange during FFTs selected (reduces bandwidth)


 total amount of memory used by VASP MPI-rank0   881832. kBytes
=======================================================================

   base      :      30000. kBytes
   nonl-proj :     680181. kBytes
   fftplans  :       4588. kBytes
   grid      :      69719. kBytes
   one-center:       1990. kBytes
   wavefun   :      95354. kBytes
 
     INWAV:  cpu time    0.0000: real time    0.0000
 Broyden mixing: mesh for mixing (old mesh)
   NGX = 45   NGY = 45   NGZ = 45
  (NGX  =192   NGY  =192   NGZ  =180)
  gives a total of  91125 points

 initial charge density was supplied:
 charge density of overlapping atoms calculated
 number of electron     688.0000000 magnetization      -0.0000000
 keeping initial charge density in first step


--------------------------------------------------------------------------------------------------------


 Maximum index for augmentation-charges          897 (set IRDMAX)


--------------------------------------------------------------------------------------------------------


 First call to EWALD:  gamma=   0.169
 Maximum number of real-space cells 3x 3x 3
 Maximum number of reciprocal cells 3x 3x 3

    FEWALD:  cpu time    0.0026: real time    0.0031


--------------------------------------- Iteration      1(   1)  ---------------------------------------


    POTLOK:  cpu time    0.3345: real time    0.3875
    SETDIJ:  cpu time    0.0146: real time    0.0146
     EDDAV:  cpu time  314.8125: real time  317.4580
 BZINTS: Fermi energy: 16.813335;688.000000 electrons
         Band energy:***********;  BLOECHL correction: -0.012754
       DOS:  cpu time    0.3386: real time    0.3401
    --------------------------------------------
      LOOP:  cpu time  315.5001: real time  318.2003

 eigenvalue-minimisations  : 61440
 total energy-change (2. order) : 0.6197183E+04  (-0.5038667E+05)
 number of electron     688.0000000 magnetization      -0.0000000
 augmentation part      688.0000000 magnetization      -0.0000000

 Free energy of the ion-electron system (eV)
  ---------------------------------------------------
  alpha Z        PSCENC =      2355.10224489
  Ewald energy   TEWEN  =    -62458.72646993
  -Hartree energ DENC   =    -44327.30968774
  -exchange      EXHF   =         0.00000000
  -V(xc)+E(xc)   XCENC  =      3320.12232785
  PAW double counting   =     94592.23312189   -98164.79192727
  entropy T*S    EENTRO =         0.00000000
  eigenvalues    EBANDS =     -3139.51127252
  atomic energy  EATOM  =    114020.06510763
  Solvation  Ediel_sol  =         0.00000000
  ---------------------------------------------------
  free energy    TOTEN  =      6197.18344479 eV

  energy without entropy =     6197.18344479  energy(sigma->0) =     6197.18344479


--------------------------------------------------------------------------------------------------------




--------------------------------------- Iteration      1(   2)  ---------------------------------------


     EDDAV:  cpu time  342.2960: real time  344.8353
 BZINTS: Fermi energy:  6.585700;688.000000 electrons
         Band energy:***********;  BLOECHL correction:  0.000000
       DOS:  cpu time    0.0467: real time    0.0469
    --------------------------------------------
      LOOP:  cpu time  342.3427: real time  344.8822

 eigenvalue-minimisations  : 64000
 total energy-change (2. order) :-0.6284505E+04  (-0.6153804E+04)
 number of electron     688.0000000 magnetization      -0.0000000
 augmentation part      688.0000000 magnetization      -0.0000000

 Free energy of the ion-electron system (eV)
  ---------------------------------------------------
  alpha Z        PSCENC =      2355.10224489
  Ewald energy   TEWEN  =    -62458.72646993
  -Hartree energ DENC   =    -44327.30968774
  -exchange      EXHF   =         0.00000000
  -V(xc)+E(xc)   XCENC  =      3320.12232785
  PAW double counting   =     94592.23312189   -98164.79192727
  entropy T*S    EENTRO =         0.00000000
  eigenvalues    EBANDS =     -9424.01611053
  atomic energy  EATOM  =    114020.06510763
  Solvation  Ediel_sol  =         0.00000000
  ---------------------------------------------------
  free energy    TOTEN  =       -87.32139322 eV

  energy without entropy =      -87.32139322  energy(sigma->0) =      -87.32139322


--------------------------------------------------------------------------------------------------------




--------------------------------------- Iteration      1(   3)  ---------------------------------------


     EDDAV:  cpu time  638.6988: real time  642.9503
 BZINTS: Fermi energy:  5.979752;688.000000 electrons
         Band energy:***********;  BLOECHL correction:  0.000000
       DOS:  cpu time    0.0386: real time    0.0388
    --------------------------------------------
      LOOP:  cpu time  638.7374: real time  642.9891

 eigenvalue-minimisations  : 89088
 total energy-change (2. order) :-0.2850233E+03  (-0.2836872E+03)
 number of electron     688.0000000 magnetization      -0.0000000
 augmentation part      688.0000000 magnetization      -0.0000000

 Free energy of the ion-electron system (eV)
  ---------------------------------------------------
  alpha Z        PSCENC =      2355.10224489
  Ewald energy   TEWEN  =    -62458.72646993
  -Hartree energ DENC   =    -44327.30968774
  -exchange      EXHF   =         0.00000000
  -V(xc)+E(xc)   XCENC  =      3320.12232785
  PAW double counting   =     94592.23312189   -98164.79192727
  entropy T*S    EENTRO =         0.00000000
  eigenvalues    EBANDS =     -9709.03938065
  atomic energy  EATOM  =    114020.06510763
  Solvation  Ediel_sol  =         0.00000000
  ---------------------------------------------------
  free energy    TOTEN  =      -372.34466334 eV

  energy without entropy =     -372.34466334  energy(sigma->0) =     -372.34466334


--------------------------------------------------------------------------------------------------------




--------------------------------------- Iteration      1(   4)  ---------------------------------------


     EDDAV:  cpu time  364.4645: real time  367.1301
 BZINTS: Fermi energy:  6.056572;688.000000 electrons
         Band energy:***********;  BLOECHL correction:  0.000000
       DOS:  cpu time    0.0463: real time    0.0465
    --------------------------------------------
      LOOP:  cpu time  364.5108: real time  367.1766

 eigenvalue-minimisations  : 65536
 total energy-change (2. order) :-0.3977655E+01  (-0.3977398E+01)
 number of electron     688.0000000 magnetization      -0.0000000
 augmentation part      688.0000000 magnetization      -0.0000000

 Free energy of the ion-electron system (eV)
  ---------------------------------------------------
  alpha Z        PSCENC =      2355.10224489
  Ewald energy   TEWEN  =    -62458.72646993
  -Hartree energ DENC   =    -44327.30968774
  -exchange      EXHF   =         0.00000000
  -V(xc)+E(xc)   XCENC  =      3320.12232785
  PAW double counting   =     94592.23312189   -98164.79192727
  entropy T*S    EENTRO =         0.00000000
  eigenvalues    EBANDS =     -9713.01703534
  atomic energy  EATOM  =    114020.06510763
  Solvation  Ediel_sol  =         0.00000000
  ---------------------------------------------------
  free energy    TOTEN  =      -376.32231803 eV

  energy without entropy =     -376.32231803  energy(sigma->0) =     -376.32231803


--------------------------------------------------------------------------------------------------------




--------------------------------------- Iteration      1(   5)  ---------------------------------------


     EDDAV:  cpu time  631.1418: real time  635.2947
 BZINTS: Fermi energy:  6.088757;688.000000 electrons
         Band energy:***********;  BLOECHL correction:  0.000000
       DOS:  cpu time    0.0389: real time    0.0391
    CHARGE:  cpu time    3.9542: real time    3.9848
    MIXING:  cpu time    0.0051: real time    0.0052
    --------------------------------------------
      LOOP:  cpu time  635.1400: real time  639.3238

 eigenvalue-minimisations  : 88320
 total energy-change (2. order) :-0.1041336E+00  (-0.1041328E+00)
 number of electron     688.0000437 magnetization      -0.0000000
 augmentation part      261.0334556 magnetization      -0.0000000

 Broyden mixing:
  rms(total) = 0.74969E+01    rms(broyden)= 0.74969E+01
  rms(prec ) = 0.89738E+01
  weight for this iteration     100.00

 Free energy of the ion-electron system (eV)
  ---------------------------------------------------
  alpha Z        PSCENC =      2355.10224489
  Ewald energy   TEWEN  =    -62458.72646993
  -Hartree energ DENC   =    -44327.30968774
  -exchange      EXHF   =         0.00000000
  -V(xc)+E(xc)   XCENC  =      3320.12232785
  PAW double counting   =     94592.23312189   -98164.79192727
  entropy T*S    EENTRO =         0.00000000
  eigenvalues    EBANDS =     -9713.12116889
  atomic energy  EATOM  =    114020.06510763
  Solvation  Ediel_sol  =         0.00000000
  ---------------------------------------------------
  free energy    TOTEN  =      -376.42645158 eV

  energy without entropy =     -376.42645158  energy(sigma->0) =     -376.42645158


--------------------------------------------------------------------------------------------------------




--------------------------------------- Iteration      1(   6)  ---------------------------------------


    POTLOK:  cpu time    0.1221: real time    0.1237
    SETDIJ:  cpu time    0.0127: real time    0.0128
     EDDAV:  cpu time  320.4986: real time  322.9265
 BZINTS: Fermi energy:  4.290152;688.000000 electrons
         Band energy:***********;  BLOECHL correction:  0.000000
       DOS:  cpu time    0.0900: real time    0.0904
    CHARGE:  cpu time    3.9635: real time    3.9936
    MIXING:  cpu time    0.0026: real time    0.0599
    --------------------------------------------
      LOOP:  cpu time  324.6896: real time  327.2070

 eigenvalue-minimisations  : 61440
 total energy-change (2. order) : 0.4156259E+02  (-0.5901385E+02)
 number of electron     688.0000474 magnetization       0.0000000
 augmentation part      296.1611374 magnetization       0.0000000

 Broyden mixing:
  rms(total) = 0.99900E+01    rms(broyden)= 0.99900E+01
  rms(prec ) = 0.10429E+02
  weight for this iteration     100.00

 eigenvalues of (default mixing * dielectric matrix)
  average eigenvalue GAMMA=   0.1669
  0.1669

 Free energy of the ion-electron system (eV)
  ---------------------------------------------------
  alpha Z        PSCENC =      2355.10224489
  Ewald energy   TEWEN  =    -62458.72646993
  -Hartree energ DENC   =    -42371.75781797
  -exchange      EXHF   =         0.00000000
  -V(xc)+E(xc)   XCENC  =      3267.55252361
  PAW double counting   =     96416.36128682   -99775.70201672
  entropy T*S    EENTRO =         0.00000000
  eigenvalues    EBANDS =    -11787.75871593
  atomic energy  EATOM  =    114020.06510763
  Solvation  Ediel_sol  =         0.00000000
  ---------------------------------------------------
  free energy    TOTEN  =      -334.86385760 eV

  energy without entropy =     -334.86385760  energy(sigma->0) =     -334.86385760


--------------------------------------------------------------------------------------------------------




--------------------------------------- Iteration      1(   7)  ---------------------------------------


    POTLOK:  cpu time    0.1211: real time    0.1220
    SETDIJ:  cpu time    0.0126: real time    0.0127
     EDDAV:  cpu time  318.0255: real time  320.4320
 BZINTS: Fermi energy:  4.540808;688.000000 electrons
         Band energy:***********;  BLOECHL correction:  0.000000
       DOS:  cpu time    0.0463: real time    0.0465
    CHARGE:  cpu time    3.9672: real time    3.9971
    MIXING:  cpu time    0.0016: real time    0.0452
    --------------------------------------------
      LOOP:  cpu time  322.1743: real time  324.6554

 eigenvalue-minimisations  : 61440
 total energy-change (2. order) : 0.4985911E+01  (-0.1084391E+02)
 number of electron     688.0000461 magnetization       0.0000000
 augmentation part      286.1192730 magnetization       0.0000000

 Broyden mixing:
  rms(total) = 0.43625E+01    rms(broyden)= 0.43625E+01
  rms(prec ) = 0.44364E+01
  weight for this iteration     100.00

 eigenvalues of (default mixing * dielectric matrix)
  average eigenvalue GAMMA=   0.6169
  0.7614  0.4724

 Free energy of the ion-electron system (eV)
  ---------------------------------------------------
  alpha Z        PSCENC =      2355.10224489
  Ewald energy   TEWEN  =    -62458.72646993
  -Hartree energ DENC   =    -42852.05211477
  -exchange      EXHF   =         0.00000000
  -V(xc)+E(xc)   XCENC  =      3278.97174153
  PAW double counting   =     99826.97225797  -103342.86472145
  entropy T*S    EENTRO =         0.00000000
  eigenvalues    EBANDS =    -11157.34599272
  atomic energy  EATOM  =    114020.06510763
  Solvation  Ediel_sol  =         0.00000000
  ---------------------------------------------------
  free energy    TOTEN  =      -329.87794685 eV

  energy without entropy =     -329.87794685  energy(sigma->0) =     -329.87794685


--------------------------------------------------------------------------------------------------------




--------------------------------------- Iteration      1(   8)  ---------------------------------------


    POTLOK:  cpu time    0.1218: real time    0.1226
    SETDIJ:  cpu time    0.0126: real time    0.0126
     EDDAV:  cpu time  538.5083: real time  542.1294
 BZINTS: Fermi energy:  5.132277;688.000000 electrons
         Band energy:***********;  BLOECHL correction:  0.000000
       DOS:  cpu time    0.0388: real time    0.0390
    CHARGE:  cpu time    3.9719: real time    4.0023
    MIXING:  cpu time    0.0013: real time    0.0013
    --------------------------------------------
      LOOP:  cpu time  542.6546: real time  546.3072

 eigenvalue-minimisations  : 80384
 total energy-change (2. order) : 0.2512400E+00  (-0.3336788E+01)
 number of electron     688.0000456 magnetization      -0.0000000
 augmentation part      281.4653391 magnetization      -0.0000000

 Broyden mixing:
  rms(total) = 0.31388E+01    rms(broyden)= 0.31387E+01
  rms(prec ) = 0.33739E+01
  weight for this iteration     100.00

 eigenvalues of (default mixing * dielectric matrix)
  average eigenvalue GAMMA=   0.8929
  1.6008  0.6199  0.4581

 Free energy of the ion-electron system (eV)
  ---------------------------------------------------
  alpha Z        PSCENC =      2355.10224489
  Ewald energy   TEWEN  =    -62458.72646993
  -Hartree energ DENC   =    -43109.64628874
  -exchange      EXHF   =         0.00000000
  -V(xc)+E(xc)   XCENC  =      3291.05135816
  PAW double counting   =    105323.80118778  -108939.54115046
  entropy T*S    EENTRO =         0.00000000
  eigenvalues    EBANDS =    -10811.73269617
  atomic energy  EATOM  =    114020.06510763
  Solvation  Ediel_sol  =         0.00000000
  ---------------------------------------------------
  free energy    TOTEN  =      -329.62670685 eV

  energy without entropy =     -329.62670685  energy(sigma->0) =     -329.62670685


--------------------------------------------------------------------------------------------------------




--------------------------------------- Iteration      1(   9)  ---------------------------------------


    POTLOK:  cpu time    0.1214: real time    0.1223
    SETDIJ:  cpu time    0.0126: real time    0.0127
     EDDAV:  cpu time  427.8901: real time  431.2840
 BZINTS: Fermi energy:  4.537655;688.000000 electrons
         Band energy:***********;  BLOECHL correction:  0.000000
       DOS:  cpu time    0.0471: real time    0.0487
    CHARGE:  cpu time    4.0152: real time    4.0469
    MIXING:  cpu time    0.0131: real time    0.3706
    --------------------------------------------
      LOOP:  cpu time  432.0996: real time  435.8853

 eigenvalue-minimisations  : 73216
 total energy-change (2. order) :-0.1928934E+01  (-0.9280284E+01)
 number of electron     688.0000457 magnetization      -0.0000000
 augmentation part      282.1036728 magnetization      -0.0000000

 Broyden mixing:
  rms(total) = 0.23123E+01    rms(broyden)= 0.23122E+01
  rms(prec ) = 0.27522E+01
  weight for this iteration     100.00

 eigenvalues of (default mixing * dielectric matrix)
  average eigenvalue GAMMA=   0.9820
  2.3975  0.5957  0.5957  0.3389

 Free energy of the ion-electron system (eV)
  ---------------------------------------------------
  alpha Z        PSCENC =      2355.10224489
  Ewald energy   TEWEN  =    -62458.72646993
  -Hartree energ DENC   =    -42897.24763314
  -exchange      EXHF   =         0.00000000
  -V(xc)+E(xc)   XCENC  =      3284.02277893
  PAW double counting   =    109916.53956612  -113570.39113123
  entropy T*S    EENTRO =         0.00000000
  eigenvalues    EBANDS =    -10980.92010365
  atomic energy  EATOM  =    114020.06510763
  Solvation  Ediel_sol  =         0.00000000
  ---------------------------------------------------
  free energy    TOTEN  =      -331.55564038 eV

  energy without entropy =     -331.55564038  energy(sigma->0) =     -331.55564038


--------------------------------------------------------------------------------------------------------




--------------------------------------- Iteration      1(  10)  ---------------------------------------


    POTLOK:  cpu time    0.1297: real time    0.1321
    SETDIJ:  cpu time    0.0143: real time    0.0144
     EDDAV:  cpu time  535.3962: real time  539.0830
 BZINTS: Fermi energy:  4.987566;688.000000 electrons
         Band energy:***********;  BLOECHL correction:  0.000000
       DOS:  cpu time    0.0462: real time    0.0464
    CHARGE:  cpu time    3.9582: real time    3.9883
    MIXING:  cpu time    0.0036: real time    0.0036
    --------------------------------------------
      LOOP:  cpu time  539.5481: real time  543.2677

 eigenvalue-minimisations  : 81920
 total energy-change (2. order) : 0.3576836E+01  (-0.2160292E+01)
 number of electron     688.0000455 magnetization       0.0000000
 augmentation part      282.3874298 magnetization       0.0000000

 Broyden mixing:
  rms(total) = 0.28538E+00    rms(broyden)= 0.28532E+00
  rms(prec ) = 0.30230E+00
  weight for this iteration     100.00

 eigenvalues of (default mixing * dielectric matrix)
  average eigenvalue GAMMA=   0.9176
  2.3647  0.7577  0.5692  0.5692  0.3271

 Free energy of the ion-electron system (eV)
  ---------------------------------------------------
  alpha Z        PSCENC =      2355.10224489
  Ewald energy   TEWEN  =    -62458.72646993
  -Hartree energ DENC   =    -42929.40399630
  -exchange      EXHF   =         0.00000000
  -V(xc)+E(xc)   XCENC  =      3287.37546192
  PAW double counting   =    113304.01633570  -117001.44966122
  entropy T*S    EENTRO =         0.00000000
  eigenvalues    EBANDS =    -10904.95782673
  atomic energy  EATOM  =    114020.06510763
  Solvation  Ediel_sol  =         0.00000000
  ---------------------------------------------------
  free energy    TOTEN  =      -327.97880404 eV

  energy without entropy =     -327.97880404  energy(sigma->0) =     -327.97880404


--------------------------------------------------------------------------------------------------------




--------------------------------------- Iteration      1(  11)  ---------------------------------------


    POTLOK:  cpu time    0.1191: real time    0.1197
    SETDIJ:  cpu time    0.0127: real time    0.0127
     EDDAV:  cpu time  532.6163: real time  536.2285
 BZINTS: Fermi energy:  4.998887;688.000000 electrons
         Band energy:***********;  BLOECHL correction:  0.000000
       DOS:  cpu time    0.0462: real time    0.0464
    CHARGE:  cpu time    3.9712: real time    3.9970
    MIXING:  cpu time    0.0022: real time    0.0023
    --------------------------------------------
      LOOP:  cpu time  536.7677: real time  540.4065

 eigenvalue-minimisations  : 80640
 total energy-change (2. order) :-0.1252948E+00  (-0.1062406E+00)
 number of electron     688.0000455 magnetization       0.0000000
 augmentation part      282.3543075 magnetization       0.0000000

 Broyden mixing:
  rms(total) = 0.35137E+00    rms(broyden)= 0.35135E+00
  rms(prec ) = 0.38692E+00
  weight for this iteration     100.00

 eigenvalues of (default mixing * dielectric matrix)
  average eigenvalue GAMMA=   0.9027
  2.2596  0.7434  0.7434  0.7343  0.5918  0.3437

 Free energy of the ion-electron system (eV)
  ---------------------------------------------------
  alpha Z        PSCENC =      2355.10224489
  Ewald energy   TEWEN  =    -62458.72646993
  -Hartree energ DENC   =    -42945.61196290
  -exchange      EXHF   =         0.00000000
  -V(xc)+E(xc)   XCENC  =      3287.04191689
  PAW double counting   =    113091.84107903  -116789.29145455
  entropy T*S    EENTRO =         0.00000000
  eigenvalues    EBANDS =    -10888.52455984
  atomic energy  EATOM  =    114020.06510763
  Solvation  Ediel_sol  =         0.00000000
  ---------------------------------------------------
  free energy    TOTEN  =      -328.10409879 eV

  energy without entropy =     -328.10409879  energy(sigma->0) =     -328.10409879


--------------------------------------------------------------------------------------------------------




--------------------------------------- Iteration      1(  12)  ---------------------------------------


    POTLOK:  cpu time    0.1188: real time    0.1196
    SETDIJ:  cpu time    0.0127: real time    0.0127
     EDDAV:  cpu time  541.7263: real time  545.3947
 BZINTS: Fermi energy:  4.981795;688.000000 electrons
         Band energy:***********;  BLOECHL correction:  0.000000
       DOS:  cpu time    0.0462: real time    0.0464
    CHARGE:  cpu time    3.9641: real time    3.9886
    MIXING:  cpu time    0.0016: real time    0.0017
    --------------------------------------------
      LOOP:  cpu time  545.8697: real time  549.5637

 eigenvalue-minimisations  : 81408
 total energy-change (2. order) : 0.1205341E-01  (-0.4711502E-01)
 number of electron     688.0000455 magnetization      -0.0000000
 augmentation part      282.2536085 magnetization      -0.0000000

 Broyden mixing:
  rms(total) = 0.13519E+00    rms(broyden)= 0.13518E+00
  rms(prec ) = 0.14926E+00
  weight for this iteration     100.00

 eigenvalues of (default mixing * dielectric matrix)
  average eigenvalue GAMMA=   0.9374
  2.2789  1.0641  1.0641  0.6140  0.6140  0.5832  0.3438

 Free energy of the ion-electron system (eV)
  ---------------------------------------------------
  alpha Z        PSCENC =      2355.10224489
  Ewald energy   TEWEN  =    -62458.72646993
  -Hartree energ DENC   =    -42944.61274337
  -exchange      EXHF   =         0.00000000
  -V(xc)+E(xc)   XCENC  =      3286.56813523
  PAW double counting   =    112702.02895254  -116396.59927445
  entropy T*S    EENTRO =         0.00000000
  eigenvalues    EBANDS =    -10891.91799793
  atomic energy  EATOM  =    114020.06510763
  Solvation  Ediel_sol  =         0.00000000
  ---------------------------------------------------
  free energy    TOTEN  =      -328.09204539 eV

  energy without entropy =     -328.09204539  energy(sigma->0) =     -328.09204539


--------------------------------------------------------------------------------------------------------




--------------------------------------- Iteration      1(  13)  ---------------------------------------


    POTLOK:  cpu time    0.1177: real time    0.1182
    SETDIJ:  cpu time    0.0131: real time    0.0132
     EDDAV:  cpu time  481.9584: real time  485.2787
 BZINTS: Fermi energy:  4.985552;688.000000 electrons
         Band energy:***********;  BLOECHL correction:  0.000000
       DOS:  cpu time    0.0463: real time    0.0465
    CHARGE:  cpu time    3.9678: real time    3.9937
    MIXING:  cpu time    0.0016: real time    0.0016
    --------------------------------------------
      LOOP:  cpu time  486.1049: real time  489.4519

 eigenvalue-minimisations  : 76032
 total energy-change (2. order) :-0.4585735E-02  (-0.5089796E-02)
 number of electron     688.0000455 magnetization       0.0000000
 augmentation part      282.2530703 magnetization       0.0000000

 Broyden mixing:
  rms(total) = 0.94190E-01    rms(broyden)= 0.94189E-01
  rms(prec ) = 0.95675E-01
  weight for this iteration     100.00

 eigenvalues of (default mixing * dielectric matrix)
  average eigenvalue GAMMA=   1.1242
  2.5391  2.5391  0.3439  0.8437  0.8437  0.6475  0.6475  0.5895

 Free energy of the ion-electron system (eV)
  ---------------------------------------------------
  alpha Z        PSCENC =      2355.10224489
  Ewald energy   TEWEN  =    -62458.72646993
  -Hartree energ DENC   =    -42951.33791014
  -exchange      EXHF   =         0.00000000
  -V(xc)+E(xc)   XCENC  =      3286.63958249
  PAW double counting   =    112443.25870412  -116137.71314116
  entropy T*S    EENTRO =         0.00000000
  eigenvalues    EBANDS =    -10885.38474901
  atomic energy  EATOM  =    114020.06510763
  Solvation  Ediel_sol  =         0.00000000
  ---------------------------------------------------
  free energy    TOTEN  =      -328.09663112 eV

  energy without entropy =     -328.09663112  energy(sigma->0) =     -328.09663112


--------------------------------------------------------------------------------------------------------




--------------------------------------- Iteration      1(  14)  ---------------------------------------


    POTLOK:  cpu time    0.1184: real time    0.1190
    SETDIJ:  cpu time    0.0124: real time    0.0125
     EDDAV:  cpu time  626.3151: real time  630.4528
 BZINTS: Fermi energy:  4.988112;688.000000 electrons
         Band energy:***********;  BLOECHL correction:  0.000000
       DOS:  cpu time    0.0461: real time    0.0463
    CHARGE:  cpu time    3.9692: real time    3.9965
    MIXING:  cpu time    0.0032: real time    0.0032
    --------------------------------------------
      LOOP:  cpu time  630.4645: real time  634.6304

 eigenvalue-minimisations  : 88064
 total energy-change (2. order) :-0.9507012E-02  (-0.4773278E-02)
 number of electron     688.0000454 magnetization       0.0000000
 augmentation part      282.2123432 magnetization       0.0000000

 Broyden mixing:
  rms(total) = 0.39644E-01    rms(broyden)= 0.39638E-01
  rms(prec ) = 0.44441E-01
  weight for this iteration     100.00

 eigenvalues of (default mixing * dielectric matrix)
  average eigenvalue GAMMA=   1.0506
  2.3532  2.3532  0.9399  0.9399  0.3438  0.6393  0.6393  0.5732  0.6737

 Free energy of the ion-electron system (eV)
  ---------------------------------------------------
  alpha Z        PSCENC =      2355.10224489
  Ewald energy   TEWEN  =    -62458.72646993
  -Hartree energ DENC   =    -42959.57408359
  -exchange      EXHF   =         0.00000000
  -V(xc)+E(xc)   XCENC  =      3286.44578782
  PAW double counting   =    112152.45469214  -115846.52930017
  entropy T*S    EENTRO =         0.00000000
  eigenvalues    EBANDS =    -10877.34411692
  atomic energy  EATOM  =    114020.06510763
  Solvation  Ediel_sol  =         0.00000000
  ---------------------------------------------------
  free energy    TOTEN  =      -328.10613813 eV

  energy without entropy =     -328.10613813  energy(sigma->0) =     -328.10613813


--------------------------------------------------------------------------------------------------------




--------------------------------------- Iteration      1(  15)  ---------------------------------------


    POTLOK:  cpu time    0.1186: real time    0.1192
    SETDIJ:  cpu time    0.0126: real time    0.0127
     EDDAV:  cpu time  408.7393: real time  411.6556
[...]
   -.421E+02 0.487E+01 -.415E+00   0.430E+02 -.491E+01 0.420E+00   -.861E+00 0.318E-01 -.484E-02   -.490E-04 -.182E-05 -.158E-05
   -.421E+02 0.487E+01 -.415E+00   0.430E+02 -.491E+01 0.420E+00   -.861E+00 0.318E-01 -.484E-02   -.490E-04 -.182E-05 -.158E-05
   -.421E+02 0.487E+01 -.415E+00   0.430E+02 -.491E+01 0.420E+00   -.861E+00 0.318E-01 -.484E-02   -.490E-04 -.182E-05 -.158E-05
   -.421E+02 0.487E+01 -.415E+00   0.430E+02 -.491E+01 0.420E+00   -.861E+00 0.318E-01 -.484E-02   -.490E-04 -.182E-05 -.158E-05
   0.421E+02 0.487E+01 0.415E+00   -.430E+02 -.491E+01 -.420E+00   0.861E+00 0.318E-01 0.484E-02   0.490E-04 -.182E-05 0.158E-05
   0.421E+02 0.487E+01 0.415E+00   -.430E+02 -.491E+01 -.420E+00   0.861E+00 0.318E-01 0.484E-02   0.490E-04 -.182E-05 0.158E-05
   0.421E+02 0.487E+01 0.415E+00   -.430E+02 -.491E+01 -.420E+00   0.861E+00 0.318E-01 0.484E-02   0.490E-04 -.182E-05 0.158E-05
   0.421E+02 0.487E+01 0.415E+00   -.430E+02 -.491E+01 -.420E+00   0.861E+00 0.318E-01 0.484E-02   0.490E-04 -.182E-05 0.158E-05
   0.590E-07 -.384E+02 0.195E-06   0.533E-13 0.393E+02 0.817E-13   0.136E-17 -.832E+00 -.163E-18   0.734E-14 -.473E-04 -.562E-13
   0.590E-07 -.384E+02 0.195E-06   0.604E-13 0.393E+02 0.888E-13   -.921E-18 -.832E+00 0.108E-18   0.989E-13 -.473E-04 -.175E-12
   0.590E-07 -.384E+02 0.195E-06   0.568E-13 0.393E+02 0.711E-13   -.309E-17 -.832E+00 0.108E-18   -.506E-13 -.473E-04 -.947E-13
   0.591E-07 -.384E+02 0.195E-06   0.782E-13 0.393E+02 0.135E-12   0.310E-17 -.832E+00 0.542E-19   0.149E-12 -.473E-04 -.156E-12
   0.140E-07 0.459E+02 -.139E-06   0.639E-13 -.468E+02 0.435E-13   0.177E-17 0.892E+00 -.412E-17   0.540E-13 0.500E-04 -.801E-13
   0.140E-07 0.459E+02 -.139E-06   0.426E-13 -.468E+02 0.320E-13   -.208E-17 0.892E+00 0.282E-17   0.840E-15 0.500E-04 -.148E-12
   0.140E-07 0.459E+02 -.139E-06   0.497E-13 -.468E+02 0.107E-13   0.268E-18 0.892E+00 -.130E-17   0.108E-12 0.500E-04 -.849E-14
   0.140E-07 0.459E+02 -.139E-06   0.568E-13 -.468E+02 0.284E-13   0.208E-17 0.892E+00 0.108E-17   -.613E-13 0.500E-04 -.145E-12
   0.102E+01 -.461E+01 0.388E-01   -.101E+01 0.443E+01 -.398E-01   -.135E-01 0.186E+00 0.101E-02   -.741E-05 0.736E-05 -.755E-06
   0.102E+01 -.461E+01 0.388E-01   -.101E+01 0.443E+01 -.398E-01   -.135E-01 0.186E+00 0.101E-02   -.741E-05 0.736E-05 -.755E-06
   0.102E+01 -.461E+01 0.388E-01   -.101E+01 0.443E+01 -.398E-01   -.135E-01 0.186E+00 0.101E-02   -.741E-05 0.736E-05 -.755E-06
   0.102E+01 -.461E+01 0.388E-01   -.101E+01 0.443E+01 -.398E-01   -.135E-01 0.186E+00 0.101E-02   -.741E-05 0.736E-05 -.755E-06
   -.102E+01 -.461E+01 -.388E-01   0.101E+01 0.443E+01 0.398E-01   0.135E-01 0.186E+00 -.101E-02   0.741E-05 0.736E-05 0.755E-06
   -.102E+01 -.461E+01 -.388E-01   0.101E+01 0.443E+01 0.398E-01   0.135E-01 0.186E+00 -.101E-02   0.741E-05 0.736E-05 0.755E-06
   -.102E+01 -.461E+01 -.388E-01   0.101E+01 0.443E+01 0.398E-01   0.135E-01 0.186E+00 -.101E-02   0.741E-05 0.736E-05 0.755E-06
   -.102E+01 -.461E+01 -.388E-01   0.101E+01 0.443E+01 0.398E-01   0.135E-01 0.186E+00 -.101E-02   0.741E-05 0.736E-05 0.755E-06
   0.102E+01 -.461E+01 0.388E-01   -.101E+01 0.443E+01 -.398E-01   -.135E-01 0.186E+00 0.101E-02   -.741E-05 0.736E-05 -.755E-06
   0.102E+01 -.461E+01 0.388E-01   -.101E+01 0.443E+01 -.398E-01   -.135E-01 0.186E+00 0.101E-02   -.741E-05 0.736E-05 -.755E-06
   0.102E+01 -.461E+01 0.388E-01   -.101E+01 0.443E+01 -.398E-01   -.135E-01 0.186E+00 0.101E-02   -.741E-05 0.736E-05 -.755E-06
   0.102E+01 -.461E+01 0.388E-01   -.101E+01 0.443E+01 -.398E-01   -.135E-01 0.186E+00 0.101E-02   -.741E-05 0.736E-05 -.755E-06
   -.102E+01 -.461E+01 -.388E-01   0.101E+01 0.443E+01 0.398E-01   0.135E-01 0.186E+00 -.101E-02   0.741E-05 0.736E-05 0.755E-06
   -.102E+01 -.461E+01 -.388E-01   0.101E+01 0.443E+01 0.398E-01   0.135E-01 0.186E+00 -.101E-02   0.741E-05 0.736E-05 0.755E-06
   -.102E+01 -.461E+01 -.388E-01   0.101E+01 0.443E+01 0.398E-01   0.135E-01 0.186E+00 -.101E-02   0.741E-05 0.736E-05 0.755E-06
   -.102E+01 -.461E+01 -.388E-01   0.101E+01 0.443E+01 0.398E-01   0.135E-01 0.186E+00 -.101E-02   0.741E-05 0.736E-05 0.755E-06
   -.119E+01 -.450E+01 0.662E-01   0.116E+01 0.426E+01 -.681E-01   0.254E-01 0.247E+00 0.167E-02   0.981E-05 -.256E-04 -.122E-05
   -.119E+01 -.450E+01 0.662E-01   0.116E+01 0.426E+01 -.681E-01   0.254E-01 0.247E+00 0.167E-02   0.981E-05 -.256E-04 -.122E-05
   -.119E+01 -.450E+01 0.662E-01   0.116E+01 0.426E+01 -.681E-01   0.254E-01 0.247E+00 0.167E-02   0.981E-05 -.256E-04 -.122E-05
   -.119E+01 -.450E+01 0.662E-01   0.116E+01 0.426E+01 -.681E-01   0.254E-01 0.247E+00 0.167E-02   0.981E-05 -.256E-04 -.122E-05
   0.119E+01 -.450E+01 -.662E-01   -.116E+01 0.426E+01 0.681E-01   -.254E-01 0.247E+00 -.167E-02   -.981E-05 -.256E-04 0.122E-05
   0.119E+01 -.450E+01 -.662E-01   -.116E+01 0.426E+01 0.681E-01   -.254E-01 0.247E+00 -.167E-02   -.981E-05 -.256E-04 0.122E-05
   0.119E+01 -.450E+01 -.662E-01   -.116E+01 0.426E+01 0.681E-01   -.254E-01 0.247E+00 -.167E-02   -.981E-05 -.256E-04 0.122E-05
   0.119E+01 -.450E+01 -.662E-01   -.116E+01 0.426E+01 0.681E-01   -.254E-01 0.247E+00 -.167E-02   -.981E-05 -.256E-04 0.122E-05
   -.119E+01 -.450E+01 0.662E-01   0.116E+01 0.426E+01 -.681E-01   0.254E-01 0.247E+00 0.167E-02   0.981E-05 -.256E-04 -.122E-05
   -.119E+01 -.450E+01 0.662E-01   0.116E+01 0.426E+01 -.681E-01   0.254E-01 0.247E+00 0.167E-02   0.981E-05 -.256E-04 -.122E-05
   -.119E+01 -.450E+01 0.662E-01   0.116E+01 0.426E+01 -.681E-01   0.254E-01 0.247E+00 0.167E-02   0.981E-05 -.256E-04 -.122E-05
   -.119E+01 -.450E+01 0.662E-01   0.116E+01 0.426E+01 -.681E-01   0.254E-01 0.247E+00 0.167E-02   0.981E-05 -.256E-04 -.122E-05
   0.119E+01 -.450E+01 -.662E-01   -.116E+01 0.426E+01 0.681E-01   -.254E-01 0.247E+00 -.167E-02   -.981E-05 -.256E-04 0.122E-05
   0.119E+01 -.450E+01 -.662E-01   -.116E+01 0.426E+01 0.681E-01   -.254E-01 0.247E+00 -.167E-02   -.981E-05 -.256E-04 0.122E-05
   0.119E+01 -.450E+01 -.662E-01   -.116E+01 0.426E+01 0.681E-01   -.254E-01 0.247E+00 -.167E-02   -.981E-05 -.256E-04 0.122E-05
   0.119E+01 -.450E+01 -.662E-01   -.116E+01 0.426E+01 0.681E-01   -.254E-01 0.247E+00 -.167E-02   -.981E-05 -.256E-04 0.122E-05
 -----------------------------------------------------------------------------------------------
   -.140E-06 -.792E+01 0.261E-03   -.326E-12 -.284E-13 0.935E-12   0.144E-14 0.791E+01 -.542E-17   -.104E-11 -.299E-03 0.603E-12
 
 
 POSITION                                       TOTAL-FORCE (eV/Angst)
 -----------------------------------------------------------------------------------
      1.33578      1.30533      1.31210         0.000024     -0.000115     -0.000014
      6.59358      1.30533      1.34881         0.000024     -0.000115     -0.000014
      1.33578      6.56341      1.31210         0.000024     -0.000115     -0.000014
      6.59358      6.56341      1.34881         0.000024     -0.000115     -0.000014
      3.94020      3.93437      1.32724        -0.000024     -0.000115      0.000014
      9.19801      3.93437      1.36395        -0.000024     -0.000115      0.000014
      3.94020      9.19245      1.32724        -0.000024     -0.000115      0.000014
      9.19801      9.19245      1.36395        -0.000024     -0.000115      0.000014
      1.37805      3.92503      9.11840         0.000000     -0.000161     -0.000000
      6.63586      3.92503      9.15510         0.000000     -0.000161     -0.000000
      1.37805      9.18311      9.11840         0.000000     -0.000161     -0.000000
      6.63586      9.18311      9.15510         0.000000     -0.000161     -0.000000
      4.00695      1.32016      9.13675         0.000000     -0.000070     -0.000000
      9.26476      1.32016      9.17346         0.000000     -0.000070     -0.000000
      4.00695      6.57824      9.13675         0.000000     -0.000070     -0.000000
      9.26476      6.57824      9.17346         0.000000     -0.000070     -0.000000
      1.34764      1.30533      6.51416        -0.000024     -0.000115      0.000014
      6.60544      1.30533      6.55086        -0.000024     -0.000115      0.000014
      1.34764      6.56341      6.51416        -0.000024     -0.000115      0.000014
      6.60544      6.56341      6.55086        -0.000024     -0.000115      0.000014
      4.00102      3.93437      6.53572         0.000024     -0.000115     -0.000014
      9.25883      3.93437      6.57243         0.000024     -0.000115     -0.000014
      4.00102      9.19245      6.53572         0.000024     -0.000115     -0.000014
      9.25883      9.19245      6.57243         0.000024     -0.000115     -0.000014
      3.97061      1.29599      3.93148         0.000000     -0.000161     -0.000000
      9.22842      1.29599      3.96819         0.000000     -0.000161     -0.000000
      3.97061      6.55407      3.93148         0.000000     -0.000161     -0.000000
      9.22842      6.55407      3.96819         0.000000     -0.000161     -0.000000
      1.34171      3.94920      3.91313         0.000000     -0.000070     -0.000000
      6.59951      3.94920      3.94984         0.000000     -0.000070     -0.000000
      1.34171      9.20728      3.91313         0.000000     -0.000070     -0.000000
      6.59951      9.20728      3.94984         0.000000     -0.000070     -0.000000
     10.54914      0.00794      5.27863        -0.000192      0.000159     -0.000009
      5.29133      0.00794      5.24192        -0.000192      0.000159     -0.000009
     10.54914      5.26602      5.27863        -0.000192      0.000159     -0.000009
      5.29133      5.26602      5.24192        -0.000192      0.000159     -0.000009
      2.64989      0.00794      2.62104         0.000192      0.000159      0.000009
      7.90770      0.00794      2.65775         0.000192      0.000159      0.000009
      2.64989      5.26602      2.62104         0.000192      0.000159      0.000009
      7.90770      5.26602      2.65775         0.000192      0.000159      0.000009
      2.69877      2.63698     10.42884        -0.000192      0.000159     -0.000009
      7.95657      2.63698     10.46555        -0.000192      0.000159     -0.000009
      2.69877      7.89506     10.42884        -0.000192      0.000159     -0.000009
      7.95657      7.89506     10.46555        -0.000192      0.000159     -0.000009
      0.05733      2.63698      7.80795         0.000192      0.000159      0.000009
      5.31514      2.63698      7.84466         0.000192      0.000159      0.000009
      0.05733      7.89506      7.80795         0.000192      0.000159      0.000009
      5.31514      7.89506      7.84466         0.000192      0.000159      0.000009
     10.51423      0.00770      0.07355         0.000029      0.000071     -0.000185
      5.25642      0.00770      0.03684         0.000029      0.000071     -0.000185
     10.51423      5.26578      0.07355         0.000029      0.000071     -0.000185
      5.25642      5.26578      0.03684         0.000029      0.000071     -0.000185
      2.68480      0.00770      7.82612        -0.000029      0.000071      0.000185
      7.94261      0.00770      7.86283        -0.000029      0.000071      0.000185
      2.68480      5.26578      7.82612        -0.000029      0.000071      0.000185
      7.94261      5.26578      7.86283        -0.000029      0.000071      0.000185
      2.66386      2.63674      5.22376         0.000029      0.000071     -0.000185
      7.92166      2.63674      5.26047         0.000029      0.000071     -0.000185
      2.66386      7.89482      5.22376         0.000029      0.000071     -0.000185
      7.92166      7.89482      5.26047         0.000029      0.000071     -0.000185
      0.01956      2.63674      2.60250        -0.000029      0.000071      0.000185
      5.27736      2.63674      2.63921        -0.000029      0.000071      0.000185
      0.01956      7.89482      2.60250        -0.000029      0.000071      0.000185
      5.27736      7.89482      2.63921        -0.000029      0.000071      0.000185
 -----------------------------------------------------------------------------------
    total drift:                               -0.000000     -0.011004      0.000261


--------------------------------------------------------------------------------------------------------



  FREE ENERGIE OF THE ION-ELECTRON SYSTEM (eV)
  ---------------------------------------------------
  free  energy   TOTEN  =      -328.10623360 eV

  energy  without entropy=     -328.10623360  energy(sigma->0) =     -328.10623360
 


--------------------------------------------------------------------------------------------------------


    POTLOK:  cpu time    0.1343: real time    0.1350


--------------------------------------------------------------------------------------------------------


 writing wavefunctions
     LOOP+:  cpu time13863.0629: real time13971.7071
    4ORBIT:  cpu time    0.0001: real time    0.0012
 


 total charge     
 
# of ion       s       p       d       tot
------------------------------------------
    1        1.313   2.410   0.000   3.724
    2        1.313   2.410   0.000   3.724
    3        1.313   2.410   0.000   3.724
    4        1.313   2.410   0.000   3.724
    5        1.313   2.410   0.000   3.724
    6        1.313   2.410   0.000   3.724
    7        1.313   2.410   0.000   3.724
    8        1.313   2.410   0.000   3.724
    9        1.314   2.409   0.000   3.723
   10        1.314   2.409   0.000   3.723
   11        1.314   2.409   0.000   3.723
   12        1.314   2.409   0.000   3.723
   13        1.313   2.411   0.000   3.724
   14        1.313   2.411   0.000   3.724
   15        1.313   2.411   0.000   3.724
   16        1.313   2.411   0.000   3.724
   17        1.313   2.410   0.000   3.724
   18        1.313   2.410   0.000   3.724
   19        1.313   2.410   0.000   3.724
   20        1.313   2.410   0.000   3.724
   21        1.313   2.410   0.000   3.724
   22        1.313   2.410   0.000   3.724
   23        1.313   2.410   0.000   3.724
   24        1.313   2.410   0.000   3.724
   25        1.314   2.409   0.000   3.723
   26        1.314   2.409   0.000   3.723
   27        1.314   2.409   0.000   3.723
   28        1.314   2.409   0.000   3.723
   29        1.313   2.411   0.000   3.724
   30        1.313   2.411   0.000   3.724
   31        1.313   2.411   0.000   3.724
   32        1.313   2.411   0.000   3.724
   33        0.260   6.202   8.917  15.378
   34        0.260   6.202   8.917  15.378
   35        0.260   6.202   8.917  15.378
   36        0.260   6.202   8.917  15.378
   37        0.260   6.202   8.917  15.378
   38        0.260   6.202   8.917  15.378
   39        0.260   6.202   8.917  15.378
   40        0.260   6.202   8.917  15.378
   41        0.260   6.202   8.917  15.378
   42        0.260   6.202   8.917  15.378
   43        0.260   6.202   8.917  15.378
   44        0.260   6.202   8.917  15.378
   45        0.260   6.202   8.917  15.378
   46        0.260   6.202   8.917  15.378
   47        0.260   6.202   8.917  15.378
   48        0.260   6.202   8.917  15.378
   49        0.350   6.351   5.820  12.521
   50        0.350   6.351   5.820  12.521
   51        0.350   6.351   5.820  12.521
   52        0.350   6.351   5.820  12.521
   53        0.350   6.351   5.820  12.521
   54        0.350   6.351   5.820  12.521
   55        0.350   6.351   5.820  12.521
   56        0.350   6.351   5.820  12.521
   57        0.350   6.351   5.820  12.521
   58        0.350   6.351   5.820  12.521
   59        0.350   6.351   5.820  12.521
   60        0.350   6.351   5.820  12.521
   61        0.350   6.351   5.820  12.521
   62        0.350   6.351   5.820  12.521
   63        0.350   6.351   5.820  12.521
   64        0.350   6.351   5.820  12.521
--------------------------------------------------
tot         51.789 277.972 235.778 565.539
 


 magnetization (x)
 
# of ion       s       p       d       tot
------------------------------------------
    1        0.000  -0.004   0.000  -0.004
    2        0.000  -0.004   0.000  -0.004
    3        0.000  -0.004   0.000  -0.004
    4        0.000  -0.004   0.000  -0.004
    5        0.000   0.003   0.000   0.003
    6        0.000   0.003   0.000   0.003
    7        0.000   0.003   0.000   0.003
    8        0.000   0.003   0.000   0.003
    9       -0.000   0.000   0.000   0.000
   10       -0.000   0.000   0.000   0.000
   11       -0.000   0.000   0.000   0.000
   12       -0.000   0.000   0.000   0.000
   13       -0.000   0.000   0.000   0.000
   14       -0.000   0.000   0.000   0.000
   15       -0.000   0.000   0.000   0.000
   16       -0.000   0.000   0.000   0.000
   17        0.000   0.003   0.000   0.003
   18        0.000   0.003   0.000   0.003
   19        0.000   0.003   0.000   0.003
   20        0.000   0.003   0.000   0.003
   21        0.000  -0.004   0.000  -0.004
   22        0.000  -0.004   0.000  -0.004
   23        0.000  -0.004   0.000  -0.004
   24        0.000  -0.004   0.000  -0.004
   25       -0.000   0.000   0.000   0.000
   26       -0.000   0.000   0.000   0.000
   27       -0.000   0.000   0.000   0.000
   28       -0.000   0.000   0.000   0.000
   29       -0.000   0.000   0.000   0.000
   30       -0.000   0.000   0.000   0.000
   31       -0.000   0.000   0.000   0.000
   32       -0.000   0.000   0.000   0.000
   33        0.000   0.001  -0.001   0.000
   34        0.000   0.001  -0.001   0.000
   35        0.000   0.001  -0.001   0.000
   36        0.000   0.001  -0.001   0.000
   37       -0.000  -0.000   0.001   0.000
   38       -0.000  -0.000   0.001   0.000
   39       -0.000  -0.000   0.001   0.000
   40       -0.000  -0.000   0.001   0.000
   41        0.000   0.001  -0.001   0.000
   42        0.000   0.001  -0.001   0.000
   43        0.000   0.001  -0.001   0.000
   44        0.000   0.001  -0.001   0.000
   45       -0.000  -0.000   0.001   0.000
   46       -0.000  -0.000   0.001   0.000
   47       -0.000  -0.000   0.001   0.000
   48       -0.000  -0.000   0.001   0.000
   49        0.020   0.054   3.671   3.745
   50        0.020   0.054   3.671   3.745
   51        0.020   0.054   3.671   3.745
   52        0.020   0.054   3.671   3.745
   53       -0.020  -0.054  -3.671  -3.745
   54       -0.020  -0.054  -3.671  -3.745
   55       -0.020  -0.054  -3.671  -3.745
   56       -0.020  -0.054  -3.671  -3.745
   57        0.020   0.054   3.671   3.745
   58        0.020   0.054   3.671   3.745
   59        0.020   0.054   3.671   3.745
   60        0.020   0.054   3.671   3.745
   61       -0.020  -0.054  -3.671  -3.745
   62       -0.020  -0.054  -3.671  -3.745
   63       -0.020  -0.054  -3.671  -3.745
   64       -0.020  -0.054  -3.671  -3.745
--------------------------------------------------
tot         -0.000   0.000   0.000   0.000
 
 BZINTS: Fermi energy:  4.986716;688.000000 electrons
         Band energy:***********;  BLOECHL correction:  0.000000

 total amount of memory used by VASP MPI-rank0   881832. kBytes
=======================================================================

   base      :      30000. kBytes
   nonl-proj :     680181. kBytes
   fftplans  :       4588. kBytes
   grid      :      69719. kBytes
   one-center:       1990. kBytes
   wavefun   :      95354. kBytes
 
  
  
 General timing and accounting informations for this job:
 ========================================================
  
                  Total CPU time used (sec):    14013.479
                            User time (sec):    13985.038
                          System time (sec):       28.441
                         Elapsed time (sec):    14125.611
  
                   Maximum memory used (kb):     1484476.
                   Average memory used (kb):           0.
  
                          Minor page faults:      2322870
                          Major page faults:        39650
                 Voluntary context switches:        50044
