       N       E                     dE             d eps       ncg     rms          ort
SDA:   1    -0.820514525514E+02   -0.82051E+02    0.00000E+00  7488   0.238E-04 0.000E+00
CGA:   2    -0.820514619271E+02   -0.93757E-05   -0.58237E-06  7488   0.121E-04 0.165E-04
CGA:   3    -0.820514671654E+02   -0.52383E-05   -0.26629E-06  7488   0.737E-05 0.929E-05
CGA:   4    -0.820514704947E+02   -0.33293E-05   -0.16113E-06  7488   0.490E-05 0.594E-05
CGA:   5    -0.820514727589E+02   -0.22642E-05   -0.11430E-06  7488   0.338E-05 0.401E-05
CGA:   6    -0.820514745750E+02   -0.18161E-05   -0.90796E-07  7488   0.235E-05 0.277E-05
CGA:   7    -0.820514764824E+02   -0.19074E-05   -0.68597E-07  7488   0.168E-05 0.195E-05
CGA:   8    -0.820514777016E+02   -0.12192E-05   -0.33079E-07  7488   0.137E-05 0.150E-05
CGA:   9    -0.820514785145E+02   -0.81294E-06   -0.23431E-07  7488   0.117E-05 0.125E-05
CGA:  10    -0.820514790610E+02   -0.54644E-06   -0.17705E-07  7488   0.101E-05 0.108E-05
CGA:  11    -0.820514797399E+02   -0.67894E-06   -0.19362E-07  7488   0.853E-06 0.923E-06
CGA:  12    -0.820514803303E+02   -0.59036E-06   -0.16801E-07  7488   0.755E-06 0.726E-06
CGA:  13    -0.820514806239E+02   -0.29359E-06   -0.42954E-08  7488   0.694E-06 0.718E-06
CGA:  14    -0.820514806333E+02   -0.94697E-08   -0.41878E-08  7488   0.626E-06 0.593E-06
   1 F= -.82051481E+02 E0= -.82051481E+02  d E =0.000000E+00  mag=     0.0000    -0.0000     0.0000
