 vasp.5.4.4.18Apr17-6-g9f103f2a35 (build Oct 30 2023 17:49:44) complex          
  
 executed on             LinuxIFC date 2024.12.09  13:24:04
 running on  256 total cores
 distrk:  each k-point on  256 cores,    1 groups
 distr:  one band on NCORES_PER_BAND=  32 cores,    8 groups


--------------------------------------------------------------------------------------------------------


 INCAR:
 POTCAR:    PAW_PBE S 06Sep2000                   
 POTCAR:     PAW_PBE Cu_pv 06Sep2000              
 POTCAR:     PAW_PBE Fe_pv 02Aug2007              
 POTCAR:    PAW_PBE S 06Sep2000                   
   SHA256 =  0fc7481fb0695f01bdc6462160264c5c84044ae9ec85a907d398b887a2bc3132 S/
   COPYR  = (c) Copyright 06Sep2000 Georg Kresse                                
   COPYR  = This file is part of the software VASP. Any use, copying, and all ot
   COPYR  = If you do not have a valid VASP license, you may not use, copy or di
   VRHFIN =S : s2p4                                                             
   LEXCH  = PE                                                                  
   EATOM  =   276.8230 eV,   20.3459 Ry                                         
                                                                                
   TITEL  = PAW_PBE S 06Sep2000                                                 
   LULTRA =        F    use ultrasoft PP ?                                      
   IUNSCR =        1    unscreen: 0-lin 1-nonlin 2-no                           
   RPACOR =    1.500    partial core radius                                     
   POMASS =   32.066; ZVAL   =    6.000    mass and valenz                      
   RCORE  =    1.900    outmost cutoff radius                                   
   RWIGS  =    2.200; RWIGS  =    1.164    wigner-seitz radius (au A)           
   ENMAX  =  258.689; ENMIN  =  194.016 eV                                      
   ICORE  =        2    local potential                                         
   LCOR   =        T    correct aug charges                                     
   LPAW   =        T    paw PP                                                  
   EAUG   =  335.092                                                            
   DEXC   =    0.000                                                            
   RMAX   =    1.942    core radius for proj-oper                               
   RAUG   =    1.300    factor for augmentation sphere                          
   RDEP   =    1.954    radius for radial grids                                 
   RDEPT  =    1.744    core radius for aug-charge                              
                                                                                
   Atomic configuration                                                         
    6 entries                                                                   
     n  l   j            E        occ.                                          
     1  0  0.50     -2405.8406   2.0000                                         
     2  0  0.50      -211.7007   2.0000                                         
     2  1  1.50      -156.4958   6.0000                                         
     3  0  0.50       -17.2562   2.0000                                         
     3  1  0.50        -7.0085   4.0000                                         
     3  2  1.50        -6.8029   0.0000                                         
   Description                                                                  
     l       E           TYP  RCUT    TYP  RCUT                                 
     0    -17.2561641     23  1.900                                             
     0    -15.8743224     23  1.900                                             
     1     -7.0085400     23  1.900                                             
     1     -2.7779785     23  1.900                                             
     2     -6.8029130     23  1.900                                             
  local pseudopotential read in
  partial core-charges read in
  partial kinetic energy density read in
  atomic valenz-charges read in
  non local Contribution for L=           0  read in
    real space projection operators read in
  non local Contribution for L=           0  read in
    real space projection operators read in
  non local Contribution for L=           1  read in
    real space projection operators read in
  non local Contribution for L=           1  read in
    real space projection operators read in
    PAW grid and wavefunctions read in
 
   number of l-projection  operators is LMAX  =           4
   number of lm-projection operators is LMMAX =           8
 
 POTCAR:     PAW_PBE Cu_pv 06Sep2000              
   SHA256 =  cb7b504e2ea725fe1f25c85a9ac77d4012ce94cd394135b722c4e25ec297f1cb Cu
   COPYR  = (c) Copyright 06Sep2000 Georg Kresse                                
   COPYR  = This file is part of the software VASP. Any use, copying, and all ot
   COPYR  = If you do not have a valid VASP license, you may not use, copy or di
   VRHFIN =Cu: d10 p1                                                           
   LEXCH  = PE                                                                  
   EATOM  =  4120.1201 eV,  302.8203 Ry                                         
                                                                                
   TITEL  = PAW_PBE Cu_pv 06Sep2000                                             
   LULTRA =        F    use ultrasoft PP ?                                      
   IUNSCR =        1    unscreen: 0-lin 1-nonlin 2-no                           
   RPACOR =    1.500    partial core radius                                     
   POMASS =   63.546; ZVAL   =   17.000    mass and valenz                      
   RCORE  =    2.000    outmost cutoff radius                                   
   RWIGS  =    2.000; RWIGS  =    1.058    wigner-seitz radius (au A)           
   ENMAX  =  368.648; ENMIN  =  276.486 eV                                      
   RCLOC  =    1.304    cutoff for local pot                                    
   LCOR   =        T    correct aug charges                                     
   LPAW   =        T    paw PP                                                  
   EAUG   =  758.233                                                            
   DEXC   =    0.000                                                            
   RMAX   =    2.046    core radius for proj-oper                               
   RAUG   =    1.300    factor for augmentation sphere                          
   RDEP   =    2.025    radius for radial grids                                 
   RDEPT  =    1.558    core radius for aug-charge                              
                                                                                
   Atomic configuration                                                         
    8 entries                                                                   
     n  l   j            E        occ.                                          
     1  0  0.50     -8850.2467   2.0000                                         
     2  0  0.50     -1062.3498   2.0000                                         
     2  1  1.50      -916.8226   6.0000                                         
     3  0  0.50      -114.6929   2.0000                                         
     3  1  1.50       -72.1325   6.0000                                         
     3  2  2.50        -5.0394  10.0000                                         
     4  0  0.50        -4.6097   1.0000                                         
     4  3  2.50        -1.3606   0.0000                                         
   Description                                                                  
     l       E           TYP  RCUT    TYP  RCUT                                 
     1    -72.1324777     23  1.700                                             
     1     -1.3605826     23  1.700                                             
     2     -5.0393776     23  2.000                                             
     2     -6.3999602     23  2.000                                             
     0     -4.6097062     23  1.800                                             
     0     14.1620818     23  1.800                                             
  local pseudopotential read in
  partial core-charges read in
  partial kinetic energy density read in
  atomic valenz-charges read in
  non local Contribution for L=           1  read in
    real space projection operators read in
  non local Contribution for L=           1  read in
    real space projection operators read in
  non local Contribution for L=           2  read in
    real space projection operators read in
  non local Contribution for L=           2  read in
    real space projection operators read in
  non local Contribution for L=           0  read in
    real space projection operators read in
  non local Contribution for L=           0  read in
    real space projection operators read in
    PAW grid and wavefunctions read in
 
   number of l-projection  operators is LMAX  =           6
   number of lm-projection operators is LMMAX =          18
 
 POTCAR:     PAW_PBE Fe_pv 02Aug2007              
   SHA256 =  5d22e414b1f82158bf2c7ecb8b97b28fd0923e48cadc1c3bf74d524558f5dd32 Fe
   COPYR  = (c) Copyright 02Aug2007 Georg Kresse                                
   COPYR  = This file is part of the software VASP. Any use, copying, and all ot
   COPYR  = If you do not have a valid VASP license, you may not use, copy or di
   VRHFIN =Fe:  3pd7s1                                                          
   LEXCH  = PE                                                                  
   EATOM  =  2457.4239 eV,  180.6156 Ry                                         
                                                                                
   TITEL  = PAW_PBE Fe_pv 02Aug2007                                             
   LULTRA =        F    use ultrasoft PP ?                                      
   IUNSCR =        1    unscreen: 0-lin 1-nonlin 2-no                           
   RPACOR =    1.750    partial core radius                                     
   POMASS =   55.847; ZVAL   =   14.000    mass and valenz                      
   RCORE  =    2.200    outmost cutoff radius                                   
   RWIGS  =    2.200; RWIGS  =    1.164    wigner-seitz radius (au A)           
   ENMAX  =  293.238; ENMIN  =  219.928 eV                                      
   ICORE  =        3    local potential                                         
   LCOR   =        T    correct aug charges                                     
   LPAW   =        T    paw PP                                                  
   EAUG   =  578.342                                                            
   DEXC   =    0.000                                                            
   RMAX   =    2.249    core radius for proj-oper                               
   RAUG   =    1.300    factor for augmentation sphere                          
   RDEP   =    2.296    radius for radial grids                                 
   RDEPT  =    1.766    core radius for aug-charge                              
                                                                                
   Atomic configuration                                                         
    8 entries                                                                   
     n  l   j            E        occ.                                          
     1  0  0.50     -6993.8440   2.0000                                         
     2  0  0.50      -814.6047   2.0000                                         
     2  1  1.50      -693.3689   6.0000                                         
     3  0  0.50       -89.4732   2.0000                                         
     3  1  1.50       -55.6373   6.0000                                         
     3  2  2.50        -3.8151   7.0000                                         
     4  0  0.50        -4.2551   1.0000                                         
     4  3  2.50        -1.3606   0.0000                                         
   Description                                                                  
     l       E           TYP  RCUT    TYP  RCUT                                 
     1    -55.6372668     23  2.000                                             
     1     -5.4423304     23  2.000                                             
     2     -3.8151096     23  2.200                                             
     2     -5.1756922     23  2.200                                             
     0     -4.2550951     23  2.200                                             
     0     27.2116520     23  2.200                                             
     3     -1.3605826     23  2.200                                             
  local pseudopotential read in
  partial core-charges read in
  partial kinetic energy density read in
  atomic valenz-charges read in
  non local Contribution for L=           1  read in
    real space projection operators read in
  non local Contribution for L=           1  read in
    real space projection operators read in
  non local Contribution for L=           2  read in
    real space projection operators read in
  non local Contribution for L=           2  read in
    real space projection operators read in
  non local Contribution for L=           0  read in
    real space projection operators read in
  non local Contribution for L=           0  read in
    real space projection operators read in
    PAW grid and wavefunctions read in
 
   number of l-projection  operators is LMAX  =           6
   number of lm-projection operators is LMMAX =          18
 

 ----------------------------------------------------------------------------- 
|                                                                             |
|  ADVICE TO THIS USER RUNNING 'VASP/VAMP'   (HEAR YOUR MASTER'S VOICE ...):  |
|                                                                             |
|      You enforced a specific xc-type in the INCAR file,                     |
|      a different type was found on the POTCAR file                          |
|          I HOPE YOU KNOW, WHAT YOU ARE  DOING                               |
|                                                                             |
 ----------------------------------------------------------------------------- 

  PAW_PBE S 06Sep2000                   :
 energy of atom  1       EATOM= -276.8230
 kinetic energy error for atom=    0.0007 (will be added to EATOM!!)
   PAW_PBE Cu_pv 06Sep2000              :
 energy of atom  2       EATOM=-4120.1201
 kinetic energy error for atom=    0.0094 (will be added to EATOM!!)
   PAW_PBE Fe_pv 02Aug2007              :
 energy of atom  3       EATOM=-2457.4239
 kinetic energy error for atom=    0.0025 (will be added to EATOM!!)
 
 
 POSCAR: sm_isp_SD0310437-standardized_unitcell  
  positions in direct lattice
  velocities in cartesian coordinates
 exchange correlation table for  LEXCH =       14
   RHO(1)=    0.500       N(1)  =     2000
   RHO(2)=  100.500       N(2)  =     4000
 


--------------------------------------------------------------------------------------------------------


 ion  position               nearest neighbor table
   1  0.252  0.250  0.125-  11 2.27  10 2.27  13 2.28  16 2.28
   2  0.748  0.750  0.125-  11 2.27  10 2.27  13 2.28  16 2.28
   3  0.250  0.748  0.875-  11 2.27  12 2.27  13 2.28  14 2.28
   4  0.750  0.252  0.875-  11 2.27  12 2.27  13 2.28  14 2.28
   5  0.248  0.250  0.625-  12 2.27   9 2.27  14 2.28  15 2.28
   6  0.752  0.750  0.625-  12 2.27   9 2.27  14 2.28  15 2.28
   7  0.750  0.248  0.375-   9 2.27  10 2.27  15 2.28  16 2.28
   8  0.250  0.752  0.375-   9 2.27  10 2.27  15 2.28  16 2.28
   9  0.000  0.000  0.500-   7 2.27   8 2.27   5 2.27   6 2.27
  10  0.500  0.000  0.250-   7 2.27   8 2.27   1 2.27   2 2.27
  11  0.500  0.500  1.000-   4 2.27   3 2.27   1 2.27   2 2.27
  12  0.000  0.500  0.750-   4 2.27   3 2.27   5 2.27   6 2.27
  13  0.000  0.000  1.000-   3 2.28   4 2.28   2 2.28   1 2.28
  14  0.500  0.000  0.750-   3 2.28   4 2.28   6 2.28   5 2.28
  15  0.500  0.500  0.500-   8 2.28   7 2.28   6 2.28   5 2.28
  16  0.000  0.500  0.250-   8 2.28   7 2.28   2 2.28   1 2.28
 
  LATTYP: Found a simple orthorhombic cell.
 ALAT       =     5.1874670855
 B/A-ratio  =     1.0238857278
 C/A-ratio  =     2.0265030926
  
  Lattice vectors:
  
 A1 = (   0.0000000000,  -5.1874670855,   0.0000000000)
 A2 = (  -5.3113735121,   0.0000000000,   0.0000000000)
 A3 = (   0.0000000000,   0.0000000000, -10.5124180917)


Analysis of symmetry for initial positions (statically):
=====================================================================
 Subroutine PRICEL returns following result:
 
  LATTYP: Found a body centered orthorhombic cell.
 ALAT       =     5.1874670855
 B/A-ratio  =     1.0238857278
 C/A-ratio  =     2.0265030926
  
  Lattice vectors:
  
 A1 = (  -2.6556867560,  -2.5937335428,   5.2562090459)
 A2 = (   2.6556867560,   2.5937335428,   5.2562090459)
 A3 = (  -2.6556867560,   2.5937335428,  -5.2562090459)
 
   2 primitive cells build up your supercell.
 

 Routine SETGRP: Setting up the symmetry group for a 
 simple orthorhombic supercell.


 Subroutine GETGRP returns: Found  4 space group operations
 (whereof  2 operations were pure point group operations)
 out of a pool of  8 trial point group operations.


The static configuration has the point symmetry C_2 .
 The point group associated with its full space group is D_2 .


Analysis of symmetry for dynamics (positions and initial velocities):
=====================================================================
 Subroutine PRICEL returns following result:
 
  LATTYP: Found a body centered orthorhombic cell.
 ALAT       =     5.1874670855
 B/A-ratio  =     1.0238857278
 C/A-ratio  =     2.0265030926
  
  Lattice vectors:
  
 A1 = (  -2.6556867560,  -2.5937335428,   5.2562090459)
 A2 = (   2.6556867560,   2.5937335428,   5.2562090459)
 A3 = (  -2.6556867560,   2.5937335428,  -5.2562090459)
 
   2 primitive cells build up your supercell.
 

 Routine SETGRP: Setting up the symmetry group for a 
 simple orthorhombic supercell.


 Subroutine GETGRP returns: Found  4 space group operations
 (whereof  2 operations were pure point group operations)
 out of a pool of  8 trial point group operations.


The dynamic configuration has the point symmetry C_2 .
 The point group associated with its full space group is D_2 .


Analysis of structural, dynamic, and magnetic symmetry:
=====================================================================
 Subroutine PRICEL returns following result:
 
  LATTYP: Found a body centered orthorhombic cell.
 ALAT       =     5.1874670855
 B/A-ratio  =     1.0238857278
 C/A-ratio  =     2.0265030926
  
  Lattice vectors:
  
 A1 = (  -2.6556867560,  -2.5937335428,   5.2562090459)
 A2 = (   2.6556867560,   2.5937335428,   5.2562090459)
 A3 = (  -2.6556867560,   2.5937335428,  -5.2562090459)
 
   2 primitive cells build up your supercell.
 

 Routine SETGRP: Setting up the symmetry group for a 
 simple orthorhombic supercell.


 Subroutine GETGRP returns: Found  4 space group operations
 (whereof  2 operations were pure point group operations)
 out of a pool of  8 trial point group operations.


The (compounded) configuration has the point symmetry C_2 .
 The point group associated with its full space group is D_2 .


 Subroutine INISYM returns: Found  4 space group operations
 (whereof  2 operations are pure point group operations),
 and found     2 'primitive' translations

 
 
 KPOINTS: Automatic mesh                          

Automatic generation of k-mesh.
Space group operators:
 irot       det(A)        alpha          n_x          n_y          n_z        tau_x        tau_y        tau_z
    1     1.000000     0.000000     1.000000     0.000000     0.000000     0.000000     0.000000     0.000000
    2     1.000000   180.000000     0.000000     0.000000     1.000000     0.000000     0.000000     0.000000
    3     1.000000   180.000000     1.000000     0.000000     0.000000    -0.000000     0.500000     0.250000
    4     1.000000   180.000000     0.000000     1.000000     0.000000    -0.000000     0.500000     0.250000
 
 Subroutine IBZKPT returns following result:
 ===========================================
 
 Found     36 irreducible k-points:
 
 Following reciprocal coordinates:
            Coordinates               Weight
  0.000000  0.000000  0.000000      1.000000
  0.166667  0.000000  0.000000      2.000000
  0.333333  0.000000  0.000000      2.000000
  0.500000  0.000000  0.000000      1.000000
  0.000000  0.166667  0.000000      2.000000
  0.166667  0.166667  0.000000      4.000000
  0.333333  0.166667  0.000000      4.000000
  0.500000  0.166667  0.000000      2.000000
  0.000000  0.333333  0.000000      2.000000
  0.166667  0.333333  0.000000      4.000000
  0.333333  0.333333  0.000000      4.000000
  0.500000  0.333333  0.000000      2.000000
  0.000000  0.500000  0.000000      1.000000
  0.166667  0.500000  0.000000      2.000000
  0.333333  0.500000  0.000000      2.000000
  0.500000  0.500000  0.000000      1.000000
  0.000000  0.000000  0.333333      2.000000
  0.166667  0.000000  0.333333      4.000000
  0.333333  0.000000  0.333333      4.000000
  0.500000  0.000000  0.333333      2.000000
  0.000000  0.166667  0.333333      4.000000
  0.166667  0.166667  0.333333      4.000000
  0.333333  0.166667  0.333333      4.000000
  0.500000  0.166667  0.333333      4.000000
 -0.333333  0.166667  0.333333      4.000000
 -0.166667  0.166667  0.333333      4.000000
  0.000000  0.333333  0.333333      4.000000
  0.166667  0.333333  0.333333      4.000000
  0.333333  0.333333  0.333333      4.000000
  0.500000  0.333333  0.333333      4.000000
 -0.333333  0.333333  0.333333      4.000000
 -0.166667  0.333333  0.333333      4.000000
  0.000000  0.500000  0.333333      2.000000
  0.166667  0.500000  0.333333      4.000000
  0.333333  0.500000  0.333333      4.000000
  0.500000  0.500000  0.333333      2.000000
 
 Following cartesian coordinates:
            Coordinates               Weight
  0.000000  0.000000  0.000000      1.000000
  0.031379  0.000000  0.000000      2.000000
  0.062758  0.000000  0.000000      2.000000
  0.094138  0.000000  0.000000      1.000000
  0.000000  0.032129  0.000000      2.000000
  0.031379  0.032129  0.000000      4.000000
  0.062758  0.032129  0.000000      4.000000
  0.094138  0.032129  0.000000      2.000000
  0.000000  0.064257  0.000000      2.000000
  0.031379  0.064257  0.000000      4.000000
  0.062758  0.064257  0.000000      4.000000
  0.094138  0.064257  0.000000      2.000000
  0.000000  0.096386  0.000000      1.000000
  0.031379  0.096386  0.000000      2.000000
  0.062758  0.096386  0.000000      2.000000
  0.094138  0.096386  0.000000      1.000000
  0.000000  0.000000  0.031709      2.000000
  0.031379  0.000000  0.031709      4.000000
  0.062758  0.000000  0.031709      4.000000
  0.094138  0.000000  0.031709      2.000000
  0.000000  0.032129  0.031709      4.000000
  0.031379  0.032129  0.031709      4.000000
  0.062758  0.032129  0.031709      4.000000
  0.094138  0.032129  0.031709      4.000000
 -0.062758  0.032129  0.031709      4.000000
 -0.031379  0.032129  0.031709      4.000000
  0.000000  0.064257  0.031709      4.000000
  0.031379  0.064257  0.031709      4.000000
  0.062758  0.064257  0.031709      4.000000
  0.094138  0.064257  0.031709      4.000000
 -0.062758  0.064257  0.031709      4.000000
 -0.031379  0.064257  0.031709      4.000000
  0.000000  0.096386  0.031709      2.000000
  0.031379  0.096386  0.031709      4.000000
  0.062758  0.096386  0.031709      4.000000
  0.094138  0.096386  0.031709      2.000000
 
 TETIRR: Found    544 inequivalent tetrahedra from      648


--------------------------------------------------------------------------------------------------------




 Dimension of arrays:
   k-points           NKPTS =     36   k-points in BZ     NKDIM =     36   number of bands    NBANDS=    208
   number of dos      NEDOS =    301   number of ions     NIONS =     16
   non local maximal  LDIM  =      6   non local SUM 2l+1 LMDIM =     18
   total plane-waves  NPLWV = 221184
   max r-space proj   IRMAX =      1   max aug-charges    IRDMAX=  24255
   dimension x,y,z NGX =    48 NGY =   48 NGZ =   96
   dimension x,y,z NGXF=    96 NGYF=   96 NGZF=  192
   support grid    NGXF=    96 NGYF=   96 NGZF=  192
   ions per type =               8   4   4
   NGX,Y,Z   is equivalent  to a cutoff of  15.02, 15.38, 15.18 a.u.
   NGXF,Y,Z  is equivalent  to a cutoff of  30.05, 30.77, 30.36 a.u.

 SYSTEM =  CuFeS2                                  
 POSCAR =  sm_isp_SD0310437-standardized_unitcell  

 Startparameter for this run:
   NWRITE =      2    write-flag & timer
   PREC   = accura    normal or accurate (medium, high low for compatibility)
   ISTART =      1    job   : 0-new  1-cont  2-samecut
   ICHARG =      1    charge: 1-file 2-atom 10-const
   ISPIN  =      1    spin polarized calculation?
   LNONCOLLINEAR =      T non collinear calculations
   LSORBIT =      F    spin-orbit coupling
   INIWAV =      1    electr: 0-lowe 1-rand  2-diag
   LASPH  =      T    aspherical Exc in radial PAW
   METAGGA=      F    non-selfconsistent MetaGGA calc.

 Electronic Relaxation 1
   ENCUT  =  700.0 eV  51.45 Ry    7.17 a.u.  11.46 11.19 22.68*2*pi/ulx,y,z
   ENINI  =  700.0     initial cutoff
   ENAUG  =  758.2 eV  augmentation charge cutoff
   NELM   =    200;   NELMIN=  2; NELMDL=  0     # of ELM steps 
   EDIFF  = 0.1E-07   stopping-criterion for ELM
   LREAL  =      F    real-space projection
   NLSPLINE    = F    spline interpolate recip. space projectors
   LCOMPAT=      F    compatible to vasp.4.4
   GGA_COMPAT  = T    GGA compatible to vasp.4.4-vasp.4.6
   LMAXPAW     = -100 max onsite density
   LMAXMIX     =    4 max onsite mixed and CHGCAR
   VOSKOWN=      0    Vosko Wilk Nusair interpolation
   ROPT   =    0.00000   0.00000   0.00000
 Ionic relaxation
   EDIFFG = -.1E-04   stopping-criterion for IOM
   NSW    =      0    number of steps for IOM
   NBLOCK =      1;   KBLOCK =      1    inner block; outer block 
   IBRION =     -1    ionic relax: 0-MD 1-quasi-New 2-CG
   NFREE  =      0    steps in history (QN), initial steepest desc. (CG)
   ISIF   =      2    stress and relaxation
   IWAVPR =     10    prediction:  0-non 1-charg 2-wave 3-comb
   ISYM   =      1    0-nonsym 1-usesym 2-fastsym
   LCORR  =      T    Harris-Foulkes like correction to forces

   POTIM  = 0.1000    time-step for ionic-motion
   TEIN   =    0.0    initial temperature
   TEBEG  =    0.0;   TEEND  =   0.0 temperature during run
   SMASS  =  -3.00    Nose mass-parameter (am)
   estimated Nose-frequenzy (Omega)   =  0.10E-29 period in steps =****** mass=  -0.645E-27a.u.
   SCALEE = 1.0000    scale energy and forces
   NPACO  =    256;   APACO  = 16.0  distance and # of slots for P.C.
   PSTRESS=    0.0 pullay stress

  Mass of Ions in am
   POMASS =  32.07 63.55 55.85
  Ionic Valenz
   ZVAL   =   6.00 17.00 14.00
  Atomic Wigner-Seitz radii
   RWIGS  =  -1.00 -1.00 -1.00
  virtual crystal weights 
   VCA    =   1.00  1.00  1.00
   NELECT =     172.0000    total number of electrons
   NUPDOWN=      -1.0000    fix difference up-down

 DOS related values:
   EMIN   =  10.00;   EMAX   =-10.00  energy-range for DOS
   EFERMI =   0.00
   ISMEAR =    -5;   SIGMA  =   0.03  broadening in eV -4-tet -1-fermi 0-gaus

 Electronic relaxation 2 (details)
   IALGO  =     58    algorithm
   LDIAG  =      T    sub-space diagonalisation (order eigenvalues)
   LSUBROT=      F    optimize rotation matrix (better conditioning)
   TURBO    =      0    0=normal 1=particle mesh
   IRESTART =      0    0=no restart 2=restart with 2 vectors
   NREBOOT  =      0    no. of reboots
   NMIN     =      0    reboot dimension
   EREF     =   0.00    reference energy to select bands
   IMIX   =      4    mixing-type and parameters
     AMIX     =   0.40;   BMIX     =  1.00
     AMIX_MAG =   1.60;   BMIX_MAG =  1.00
     AMIN     =   0.10
     WC   =   100.;   INIMIX=   1;  MIXPRE=   1;  MAXMIX= -45

 Intra band minimization:
   WEIMIN = 0.0000     energy-eigenvalue tresh-hold
   EBREAK =  0.12E-10  absolut break condition
   DEPER  =   0.30     relativ break condition  

   TIME   =   0.40     timestep for ELM

  volume/ion in A,a.u.               =      18.10       122.16
  Fermi-wavevector in a.u.,A,eV,Ry     =   1.376035  2.600328 25.762242  1.893471
  Thomas-Fermi vector in A             =   2.501316
 
 Write flags
   LWAVE        =      T    write WAVECAR
   LDOWNSAMPLE  =      F    k-point downsampling of WAVECAR
   LCHARG       =      T    write CHGCAR
   LVTOT        =      F    write LOCPOT, total local potential
   LVHAR        =      F    write LOCPOT, Hartree potential only
   LELF         =      F    write electronic localiz. function (ELF)
   LORBIT       =     11    0 simple, 1 ext, 2 COOP (PROOUT), +10 PAW based schemes


 Dipole corrections
   LMONO  =      F    monopole corrections only (constant potential shift)
   LDIPOL =      F    correct potential (dipole corrections)
   IDIPOL =      0    1-x, 2-y, 3-z, 4-all directions 
   EPSILON=  1.0000000 bulk dielectric constant

 LDA+U is selected, type is set to LDAUTYPE =  2
   angular momentum for each species LDAUL =     2    2    2
   U (eV)           for each species LDAUU =   0.0  0.1  4.7
   J (eV)           for each species LDAUJ =   0.0  0.0  0.0
 Exchange correlation treatment:
   GGA     =    PS    GGA type
   LEXCH   =    14    internal setting for exchange type
   VOSKOWN=      0    Vosko Wilk Nusair interpolation
   LHFCALC =     F    Hartree Fock is set to
   LHFONE  =     F    Hartree Fock one center treatment
   AEXX    =    0.0000 exact exchange contribution

 Linear response parameters
   LEPSILON=     F    determine dielectric tensor
   LRPA    =     F    only Hartree local field effects (RPA)
   LNABLA  =     F    use nabla operator in PAW spheres
   LVEL    =     F    velocity operator in full k-point grid
   LINTERFAST=   F  fast interpolation
   KINTER  =     0    interpolate to denser k-point grid
   CSHIFT  =0.1000    complex shift for real part using Kramers Kronig
   OMEGAMAX=  -1.0    maximum frequency
   DEG_THRESHOLD= 0.2000000E-02 threshold for treating states as degnerate
   RTIME   =   -0.100 relaxation time in fs
  (WPLASMAI=    0.000 imaginary part of plasma frequency in eV, 0.658/RTIME)
   DFIELD  = 0.0000000 0.0000000 0.0000000 field for delta impulse in time
 
 Orbital magnetization related:
   ORBITALMAG=     F  switch on orbital magnetization
   LCHIMAG   =     F  perturbation theory with respect to B field
   DQ        =  0.001000  dq finite difference perturbation B field
   LLRAUG    =     F  two centre corrections for induced B field



--------------------------------------------------------------------------------------------------------


 Static calculation
 charge density and potential will be updated during run
 non collinear spin polarized calculation
 Conjugate gradient for all bands (Freysoldt, et al. PRB 79, 241103 (2009))
 preconditioned conjugated gradient                                        
 perform sub-space diagonalisation
    before iterative eigenvector-optimisation
 modified Broyden-mixing scheme, WC =      100.0
 initial mixing is a Kerker type mixing with AMIX =  0.4000 and BMIX =      1.0000
 Hartree-type preconditioning will be used
 using additional bands          122
 reciprocal scheme for non local part
 use partial core corrections
 no Harris-corrections to forces 
 use gradient corrections 
 use of overlap-Matrix (Vanderbilt PP)
 Fermi weights with tetrahedron method with Bloechl corrections


--------------------------------------------------------------------------------------------------------


  energy-cutoff  :      700.00
  volume of cell :      289.64
      direct lattice vectors                 reciprocal lattice vectors
     5.311373512  0.000000000  0.000000000     0.188275217  0.000000000  0.000000000
     0.000000000  5.187467086  0.000000000     0.000000000  0.192772307  0.000000000
     0.000000000  0.000000000 10.512418092     0.000000000  0.000000000  0.095125593

  length of vectors
     5.311373512  5.187467086 10.512418092     0.188275217  0.192772307  0.095125593


 
 old parameters found on file WAVECAR:
  energy-cutoff  :      700.00
  volume of cell :      289.67
      direct lattice vectors                 reciprocal lattice vectors
     5.311373512  0.000000000  0.000000000     0.188275217  0.000000000  0.000000000
     0.000000000  5.187904555  0.000000000     0.000000000  0.192756052  0.000000000
     0.000000000  0.000000000 10.512418092     0.000000000  0.000000000  0.095125593

  length of vectors

 
 k-points in units of 2pi/SCALE and weight: Automatic mesh                          
   0.00000000  0.00000000  0.00000000       0.009
   0.03137920  0.00000000  0.00000000       0.019
   0.06275841  0.00000000  0.00000000       0.019
   0.09413761  0.00000000  0.00000000       0.009
   0.00000000  0.03212872  0.00000000       0.019
   0.03137920  0.03212872  0.00000000       0.037
   0.06275841  0.03212872  0.00000000       0.037
   0.09413761  0.03212872  0.00000000       0.019
   0.00000000  0.06425744  0.00000000       0.019
   0.03137920  0.06425744  0.00000000       0.037
   0.06275841  0.06425744  0.00000000       0.037
   0.09413761  0.06425744  0.00000000       0.019
   0.00000000  0.09638615  0.00000000       0.009
   0.03137920  0.09638615  0.00000000       0.019
   0.06275841  0.09638615  0.00000000       0.019
   0.09413761  0.09638615  0.00000000       0.009
   0.00000000  0.00000000  0.03170853       0.019
   0.03137920  0.00000000  0.03170853       0.037
   0.06275841  0.00000000  0.03170853       0.037
   0.09413761  0.00000000  0.03170853       0.019
   0.00000000  0.03212872  0.03170853       0.037
   0.03137920  0.03212872  0.03170853       0.037
   0.06275841  0.03212872  0.03170853       0.037
   0.09413761  0.03212872  0.03170853       0.037
  -0.06275841  0.03212872  0.03170853       0.037
  -0.03137920  0.03212872  0.03170853       0.037
   0.00000000  0.06425744  0.03170853       0.037
   0.03137920  0.06425744  0.03170853       0.037
   0.06275841  0.06425744  0.03170853       0.037
   0.09413761  0.06425744  0.03170853       0.037
  -0.06275841  0.06425744  0.03170853       0.037
  -0.03137920  0.06425744  0.03170853       0.037
   0.00000000  0.09638615  0.03170853       0.019
   0.03137920  0.09638615  0.03170853       0.037
   0.06275841  0.09638615  0.03170853       0.037
   0.09413761  0.09638615  0.03170853       0.019
 
 k-points in reciprocal lattice and weights: Automatic mesh                          
   0.00000000  0.00000000  0.00000000       0.009
   0.16666667  0.00000000  0.00000000       0.019
   0.33333333  0.00000000  0.00000000       0.019
   0.50000000  0.00000000  0.00000000       0.009
   0.00000000  0.16666667  0.00000000       0.019
   0.16666667  0.16666667  0.00000000       0.037
   0.33333333  0.16666667  0.00000000       0.037
   0.50000000  0.16666667  0.00000000       0.019
   0.00000000  0.33333333  0.00000000       0.019
   0.16666667  0.33333333  0.00000000       0.037
   0.33333333  0.33333333  0.00000000       0.037
   0.50000000  0.33333333  0.00000000       0.019
   0.00000000  0.50000000  0.00000000       0.009
   0.16666667  0.50000000  0.00000000       0.019
   0.33333333  0.50000000  0.00000000       0.019
   0.50000000  0.50000000  0.00000000       0.009
   0.00000000  0.00000000  0.33333333       0.019
   0.16666667  0.00000000  0.33333333       0.037
   0.33333333  0.00000000  0.33333333       0.037
   0.50000000  0.00000000  0.33333333       0.019
   0.00000000  0.16666667  0.33333333       0.037
   0.16666667  0.16666667  0.33333333       0.037
   0.33333333  0.16666667  0.33333333       0.037
   0.50000000  0.16666667  0.33333333       0.037
  -0.33333333  0.16666667  0.33333333       0.037
  -0.16666667  0.16666667  0.33333333       0.037
   0.00000000  0.33333333  0.33333333       0.037
   0.16666667  0.33333333  0.33333333       0.037
   0.33333333  0.33333333  0.33333333       0.037
   0.50000000  0.33333333  0.33333333       0.037
  -0.33333333  0.33333333  0.33333333       0.037
  -0.16666667  0.33333333  0.33333333       0.037
   0.00000000  0.50000000  0.33333333       0.019
   0.16666667  0.50000000  0.33333333       0.037
   0.33333333  0.50000000  0.33333333       0.037
   0.50000000  0.50000000  0.33333333       0.019
 
 position of ions in fractional coordinates (direct lattice) 
   0.25236615  0.25000000  0.12500000
   0.74763388  0.75000000  0.12500000
   0.25000000  0.74769688  0.87500000
   0.75000000  0.25230315  0.87500000
   0.24763385  0.25000000  0.62500000
   0.75236612  0.75000000  0.62500000
   0.75000000  0.24769685  0.37500000
   0.25000000  0.75230312  0.37500000
   0.00000000  0.00000000  0.49987214
   0.50000000  0.00000000  0.25012786
   0.50000000  0.50000000  0.99987214
   0.00000000  0.50000000  0.75012786
   0.00000000  0.00000000  0.99996615
   0.50000000  0.00000000  0.75003385
   0.50000000  0.50000000  0.49996615
   0.00000000  0.50000000  0.25003385
 
 position of ions in cartesian coordinates  (Angst):
   1.34041086  1.29686677  1.31405226
   3.97096281  3.89060031  1.31405226
   1.32784338  3.87865296  9.19836583
   3.98353013  1.30881428  9.19836583
   1.31527589  1.29686677  6.57026131
   3.99609746  3.89060031  6.57026131
   3.98353013  1.28491926  3.94215678
   1.32784338  3.90254767  3.94215678
   0.00000000  0.00000000  5.25486488
   2.65568676  0.00000000  2.62944869
   2.65568676  2.59373354 10.51107392
   0.00000000  2.59373354  7.88565774
   0.00000000  0.00000000 10.51206224
   2.65568676  0.00000000  7.88466942
   2.65568676  2.59373354  5.25585319
   0.00000000  2.59373354  2.62846038
 
 Euler angles ALPHA=     0.0000000  BETA=     0.0000000

 transformation matrix from SAXIS to cartesian coordinates
 ---------------------------------------------------------
     1.0000000 m_x     0.0000000 m_y     0.0000000 m_z
     0.0000000 m_x     1.0000000 m_y     0.0000000 m_z
     0.0000000 m_x     0.0000000 m_y     1.0000000 m_z

 transformation matrix from cartesian coordinates to SAXIS
 ---------------------------------------------------------
     1.0000000 m_x     0.0000000 m_y     0.0000000 m_z
     0.0000000 m_x     1.0000000 m_y     0.0000000 m_z
     0.0000000 m_x     0.0000000 m_y     1.0000000 m_z




--------------------------------------------------------------------------------------------------------


 k-point  1 :   0.0000 0.0000 0.0000  plane waves:   24370
 k-point  2 :   0.1667 0.0000 0.0000  plane waves:   24382
 k-point  3 :   0.3333 0.0000 0.0000  plane waves:   24362
 k-point  4 :   0.5000 0.0000 0.0000  plane waves:   24412
 k-point  5 :   0.0000 0.1667 0.0000  plane waves:   24378
 k-point  6 :   0.1667 0.1667 0.0000  plane waves:   24352
 k-point  7 :   0.3333 0.1667 0.0000  plane waves:   24368
 k-point  8 :   0.5000 0.1667 0.0000  plane waves:   24372
 k-point  9 :   0.0000 0.3333 0.0000  plane waves:   24444
 k-point 10 :   0.1667 0.3333 0.0000  plane waves:   24404
 k-point 11 :   0.3333 0.3333 0.0000  plane waves:   24330
 k-point 12 :   0.5000 0.3333 0.0000  plane waves:   24320
 k-point 13 :   0.0000 0.5000 0.0000  plane waves:   24388
 k-point 14 :   0.1667 0.5000 0.0000  plane waves:   24420
 k-point 15 :   0.3333 0.5000 0.0000  plane waves:   24364
 k-point 16 :   0.5000 0.5000 0.0000  plane waves:   24248
 k-point 17 :   0.0000 0.0000 0.3333  plane waves:   24400
 k-point 18 :   0.1667 0.0000 0.3333  plane waves:   24324
 k-point 19 :   0.3333 0.0000 0.3333  plane waves:   24380
 k-point 20 :   0.5000 0.0000 0.3333  plane waves:   24332
 k-point 21 :   0.0000 0.1667 0.3333  plane waves:   24342
 k-point 22 :   0.1667 0.1667 0.3333  plane waves:   24342
 k-point 23 :   0.3333 0.1667 0.3333  plane waves:   24346
 k-point 24 :   0.5000 0.1667 0.3333  plane waves:   24340
 k-point 25 :  -0.3333 0.1667 0.3333  plane waves:   24346
 k-point 26 :  -0.1667 0.1667 0.3333  plane waves:   24342
 k-point 27 :   0.0000 0.3333 0.3333  plane waves:   24414
 k-point 28 :   0.1667 0.3333 0.3333  plane waves:   24392
 k-point 29 :   0.3333 0.3333 0.3333  plane waves:   24352
 k-point 30 :   0.5000 0.3333 0.3333  plane waves:   24284
 k-point 31 :  -0.3333 0.3333 0.3333  plane waves:   24352
 k-point 32 :  -0.1667 0.3333 0.3333  plane waves:   24392
 k-point 33 :   0.0000 0.5000 0.3333  plane waves:   24408
 k-point 34 :   0.1667 0.5000 0.3333  plane waves:   24400
 k-point 35 :   0.3333 0.5000 0.3333  plane waves:   24396
 k-point 36 :   0.5000 0.5000 0.3333  plane waves:   24272

 maximum and minimum number of plane-waves per node :       800      708

 maximum number of plane-waves:     24444
 maximum index in each direction: 
   IXMAX=   11   IYMAX=   11   IZMAX=   22
   IXMIN=  -11   IYMIN=  -11   IZMIN=  -23


 parallel 3D FFT for wavefunctions:
    minimum data exchange during FFTs selected (reduces bandwidth)
 parallel 3D FFT for charge:
    minimum data exchange during FFTs selected (reduces bandwidth)


 total amount of memory used by VASP MPI-rank0    80983. kBytes
=======================================================================

   base      :      30000. kBytes
   nonl-proj :       6196. kBytes
   fftplans  :       1447. kBytes
   grid      :       5898. kBytes
   one-center:         62. kBytes
   wavefun   :      37380. kBytes
 
     INWAV:  cpu time    7.6249: real time    7.7751
 Broyden mixing: mesh for mixing (old mesh)
   NGX = 23   NGY = 23   NGZ = 45
  (NGX  = 96   NGY  = 96   NGZ  =192)
  gives a total of  23805 points

 initial charge density was supplied:
 number of electron     172.0000115 magnetization       0.0000000     -0.0000000      0.0000000
 charge density for first step will be calculated from the start-wavefunctions


--------------------------------------------------------------------------------------------------------


 BZINTS: Fermi energy:  4.807311;172.000000 electrons
         Band energy:***********;  BLOECHL correction:  0.000000
 Maximum index for augmentation-charges          961 (set IRDMAX)


--------------------------------------------------------------------------------------------------------


 initial charge from wavefunction
 First call to EWALD:  gamma=   0.268
 Maximum number of real-space cells 3x 3x 2
 Maximum number of reciprocal cells 2x 2x 4

    FEWALD:  cpu time    0.0123: real time    0.0123

 ----------------------------------------------------------------------------- 
|                                                                             |
|           W    W    AA    RRRRR   N    N  II  N    N   GGGG   !!!           |
|           W    W   A  A   R    R  NN   N  II  NN   N  G    G  !!!           |
|           W    W  A    A  R    R  N N  N  II  N N  N  G       !!!           |
|           W WW W  AAAAAA  RRRRR   N  N N  II  N  N N  G  GGG   !            |
|           WW  WW  A    A  R   R   N   NN  II  N   NN  G    G                |
|           W    W  A    A  R    R  N    N  II  N    N   GGGG   !!!           |
|                                                                             |
|      ALGO=A and IALGO=5X tend to fail with the tetrahedron method           |
|      (e.g. Bloechls method ISMEAR=-5 is not variational)                    |
|      please switch to IMSEAR=0-n, except for DOS calculations               |
|      For DOS calculations use IALGO=53 after preconverging with ISMEAR>=0   |
|          I HOPE YOU KNOW, WHAT YOU ARE  DOING                               |
|                                                                             |
 ----------------------------------------------------------------------------- 



--------------------------------------- Iteration      1(   1)  ---------------------------------------


    POTLOK:  cpu time    0.1653: real time    0.1662
    SETDIJ:  cpu time    0.6013: real time    0.6032
    TRIAL :  cpu time    4.6017: real time    4.6348
 BZINTS: Fermi energy:  4.807311;172.000000 electrons
         Band energy:***********;  BLOECHL correction:  0.000000
 BZINTS: Fermi energy:  4.807311;172.000000 electrons
         Band energy:***********;  BLOECHL correction:  0.000000
    CORREC:  cpu time    4.0436: real time    4.0627
    CHARGE:  cpu time    1.1674: real time    1.1733
    --------------------------------------------
      LOOP:  cpu time   10.5926: real time   10.6735

 eigenvalue-minimisations  :     0
 total energy-change (2. order) :-0.8205145E+02  (-0.5823698E-06)
 number of electron     172.0000115 magnetization       0.0000000      0.0000000      0.0000000
 augmentation part       70.5610597 magnetization      -0.0000000     -0.0000000      0.0001475

 Free energy of the ion-electron system (eV)
  ---------------------------------------------------
  alpha Z        PSCENC =       585.01746092
  Ewald energy   TEWEN  =    -15581.83204691
  -Hartree energ DENC   =    -10760.38883361
  -exchange      EXHF   =         0.00000000
  -V(xc)+E(xc)   XCENC  =       821.40656972
  PAW double counting   =     28004.26462616   -28927.51106093
  entropy T*S    EENTRO =         0.00000000
  eigenvalues    EBANDS =     -2728.02444481
  atomic energy  EATOM  =     28505.01627691
  ---------------------------------------------------
  free energy    TOTEN  =       -82.05145255 eV

  energy without entropy =      -82.05145255  energy(sigma->0) =      -82.05145255


--------------------------------------------------------------------------------------------------------




--------------------------------------- Iteration      1(   2)  ---------------------------------------


    POTLOK:  cpu time    0.0939: real time    0.0945
    SETDIJ:  cpu time    0.6013: real time    0.6032
    TRIAL :  cpu time    4.4923: real time    4.5184
 BZINTS: Fermi energy:  4.807311;172.000000 electrons
         Band energy:***********;  BLOECHL correction:  0.000000
 BZINTS: Fermi energy:  4.807311;172.000000 electrons
         Band energy:***********;  BLOECHL correction:  0.000000
    CORREC:  cpu time    4.0585: real time    4.0775
    CHARGE:  cpu time    1.1275: real time    1.1331
    --------------------------------------------
      LOOP:  cpu time   10.4204: real time   10.4737

 eigenvalue-minimisations  :     0
 total energy-change (2. order) :-0.9375657E-05  (-0.2662910E-06)
 number of electron     172.0000115 magnetization       0.0000000      0.0000000      0.0000000
 augmentation part       70.5610596 magnetization      -0.0000000     -0.0000000      0.0001475

 Free energy of the ion-electron system (eV)
  ---------------------------------------------------
  alpha Z        PSCENC =       585.01746092
  Ewald energy   TEWEN  =    -15581.83204691
  -Hartree energ DENC   =    -10760.38880736
  -exchange      EXHF   =         0.00000000
  -V(xc)+E(xc)   XCENC  =       821.40655016
  PAW double counting   =     28004.26451542   -28927.51094915
  entropy T*S    EENTRO =         0.00000000
  eigenvalues    EBANDS =     -2728.02446192
  atomic energy  EATOM  =     28505.01627691
  ---------------------------------------------------
  free energy    TOTEN  =       -82.05146193 eV

  energy without entropy =      -82.05146193  energy(sigma->0) =      -82.05146193


--------------------------------------------------------------------------------------------------------




--------------------------------------- Iteration      1(   3)  ---------------------------------------


    POTLOK:  cpu time    0.0998: real time    0.1004
    SETDIJ:  cpu time    0.6012: real time    0.6031
    TRIAL :  cpu time    4.5197: real time    4.5454
 BZINTS: Fermi energy:  4.807311;172.000000 electrons
         Band energy:***********;  BLOECHL correction:  0.000000
 BZINTS: Fermi energy:  4.807311;172.000000 electrons
         Band energy:***********;  BLOECHL correction:  0.000000
    CORREC:  cpu time    4.0217: real time    4.0409
    CHARGE:  cpu time    1.1262: real time    1.1317
    --------------------------------------------
      LOOP:  cpu time   10.4128: real time   10.4682

 eigenvalue-minimisations  :     0
 total energy-change (2. order) :-0.5238315E-05  (-0.1611264E-06)
 number of electron     172.0000115 magnetization       0.0000000      0.0000000      0.0000000
 augmentation part       70.5610596 magnetization      -0.0000000     -0.0000000      0.0001475

 Free energy of the ion-electron system (eV)
  ---------------------------------------------------
  alpha Z        PSCENC =       585.01746092
  Ewald energy   TEWEN  =    -15581.83204691
  -Hartree energ DENC   =    -10760.38879033
  -exchange      EXHF   =         0.00000000
  -V(xc)+E(xc)   XCENC  =       821.40653901
  PAW double counting   =     28004.26442863   -28927.51086184
  entropy T*S    EENTRO =         0.00000000
  eigenvalues    EBANDS =     -2728.02447355
  atomic energy  EATOM  =     28505.01627691
  ---------------------------------------------------
  free energy    TOTEN  =       -82.05146717 eV

  energy without entropy =      -82.05146717  energy(sigma->0) =      -82.05146717


--------------------------------------------------------------------------------------------------------




--------------------------------------- Iteration      1(   4)  ---------------------------------------


    POTLOK:  cpu time    0.0948: real time    0.0954
    SETDIJ:  cpu time    0.6018: real time    0.6038
    TRIAL :  cpu time    4.4747: real time    4.5009
 BZINTS: Fermi energy:  4.807311;172.000000 electrons
         Band energy:***********;  BLOECHL correction:  0.000000
 BZINTS: Fermi energy:  4.807311;172.000000 electrons
         Band energy:***********;  BLOECHL correction:  0.000000
    CORREC:  cpu time    4.0148: real time    4.0339
    CHARGE:  cpu time    1.1299: real time    1.1356
    --------------------------------------------
      LOOP:  cpu time   10.3627: real time   10.4167

 eigenvalue-minimisations  :     0
 total energy-change (2. order) :-0.3329311E-05  (-0.1142989E-06)
 number of electron     172.0000115 magnetization       0.0000000      0.0000000      0.0000000
 augmentation part       70.5610596 magnetization      -0.0000000     -0.0000001      0.0001475

 Free energy of the ion-electron system (eV)
  ---------------------------------------------------
  alpha Z        PSCENC =       585.01746092
  Ewald energy   TEWEN  =    -15581.83204691
  -Hartree energ DENC   =    -10760.38877732
  -exchange      EXHF   =         0.00000000
  -V(xc)+E(xc)   XCENC  =       821.40653186
  PAW double counting   =     28004.26435093   -28927.51078384
  entropy T*S    EENTRO =         0.00000000
  eigenvalues    EBANDS =     -2728.02448304
  atomic energy  EATOM  =     28505.01627691
  ---------------------------------------------------
  free energy    TOTEN  =       -82.05147049 eV

  energy without entropy =      -82.05147049  energy(sigma->0) =      -82.05147049


--------------------------------------------------------------------------------------------------------




--------------------------------------- Iteration      1(   5)  ---------------------------------------


    POTLOK:  cpu time    0.0945: real time    0.0950
    SETDIJ:  cpu time    0.6014: real time    0.6034
    TRIAL :  cpu time    4.5775: real time    4.6046
 BZINTS: Fermi energy:  4.807311;172.000000 electrons
         Band energy:***********;  BLOECHL correction:  0.000000
 BZINTS: Fermi energy:  4.807311;172.000000 electrons
         Band energy:***********;  BLOECHL correction:  0.000000
    CORREC:  cpu time    4.0213: real time    4.0409
    CHARGE:  cpu time    1.1497: real time    1.1555
    --------------------------------------------
      LOOP:  cpu time   10.4879: real time   10.5464

 eigenvalue-minimisations  :     0
 total energy-change (2. order) :-0.2264242E-05  (-0.9079556E-07)
 number of electron     172.0000115 magnetization       0.0000000      0.0000000      0.0000000
 augmentation part       70.5610596 magnetization      -0.0000000     -0.0000001      0.0001475

 Free energy of the ion-electron system (eV)
  ---------------------------------------------------
  alpha Z        PSCENC =       585.01746092
  Ewald energy   TEWEN  =    -15581.83204691
  -Hartree energ DENC   =    -10760.38876644
  -exchange      EXHF   =         0.00000000
  -V(xc)+E(xc)   XCENC  =       821.40652699
  PAW double counting   =     28004.26427602   -28927.51070879
  entropy T*S    EENTRO =         0.00000000
  eigenvalues    EBANDS =     -2728.02449145
  atomic energy  EATOM  =     28505.01627691
  ---------------------------------------------------
  free energy    TOTEN  =       -82.05147276 eV

  energy without entropy =      -82.05147276  energy(sigma->0) =      -82.05147276


--------------------------------------------------------------------------------------------------------




--------------------------------------- Iteration      1(   6)  ---------------------------------------


    POTLOK:  cpu time    0.0942: real time    0.0947
    SETDIJ:  cpu time    0.6001: real time    0.6021
    TRIAL :  cpu time    4.4294: real time    4.4554
 BZINTS: Fermi energy:  4.807311;172.000000 electrons
         Band energy:***********;  BLOECHL correction:  0.000000
 BZINTS: Fermi energy:  4.807311;172.000000 electrons
         Band energy:***********;  BLOECHL correction:  0.000000
    CORREC:  cpu time    4.0046: real time    4.0237
    CHARGE:  cpu time    1.1403: real time    1.1460
    --------------------------------------------
      LOOP:  cpu time   10.3124: real time   10.3686

 eigenvalue-minimisations  :     0
 total energy-change (2. order) :-0.1816075E-05  (-0.6859656E-07)
 number of electron     172.0000115 magnetization       0.0000000      0.0000000      0.0000000
 augmentation part       70.5610596 magnetization      -0.0000000     -0.0000001      0.0001475

 Free energy of the ion-electron system (eV)
  ---------------------------------------------------
  alpha Z        PSCENC =       585.01746092
  Ewald energy   TEWEN  =    -15581.83204691
  -Hartree energ DENC   =    -10760.38875668
  -exchange      EXHF   =         0.00000000
  -V(xc)+E(xc)   XCENC  =       821.40652307
  PAW double counting   =     28004.26419888   -28927.51063165
  entropy T*S    EENTRO =         0.00000000
  eigenvalues    EBANDS =     -2728.02449911
  atomic energy  EATOM  =     28505.01627691
  ---------------------------------------------------
  free energy    TOTEN  =       -82.05147458 eV

  energy without entropy =      -82.05147458  energy(sigma->0) =      -82.05147458


--------------------------------------------------------------------------------------------------------




--------------------------------------- Iteration      1(   7)  ---------------------------------------


    POTLOK:  cpu time    0.0953: real time    0.0958
    SETDIJ:  cpu time    0.5982: real time    0.6001
    TRIAL :  cpu time    4.4243: real time    4.4503
 BZINTS: Fermi energy:  4.807311;172.000000 electrons
         Band energy:***********;  BLOECHL correction:  0.000000
 BZINTS: Fermi energy:  4.807311;172.000000 electrons
         Band energy:***********;  BLOECHL correction:  0.000000
    CORREC:  cpu time    3.9891: real time    4.0081
    CHARGE:  cpu time    1.1391: real time    1.1448
    --------------------------------------------
      LOOP:  cpu time   10.2882: real time   10.3449

 eigenvalue-minimisations  :     0
 total energy-change (2. order) :-0.1907432E-05  (-0.3307902E-07)
 number of electron     172.0000115 magnetization       0.0000000      0.0000000      0.0000000
 augmentation part       70.5610596 magnetization      -0.0000000     -0.0000001      0.0001475

 Free energy of the ion-electron system (eV)
  ---------------------------------------------------
  alpha Z        PSCENC =       585.01746092
  Ewald energy   TEWEN  =    -15581.83204691
  -Hartree energ DENC   =    -10760.38874863
  -exchange      EXHF   =         0.00000000
  -V(xc)+E(xc)   XCENC  =       821.40651891
  PAW double counting   =     28004.26412473   -28927.51055764
  entropy T*S    EENTRO =         0.00000000
  eigenvalues    EBANDS =     -2728.02450477
  atomic energy  EATOM  =     28505.01627691
  ---------------------------------------------------
  free energy    TOTEN  =       -82.05147648 eV

  energy without entropy =      -82.05147648  energy(sigma->0) =      -82.05147648


--------------------------------------------------------------------------------------------------------




--------------------------------------- Iteration      1(   8)  ---------------------------------------


    POTLOK:  cpu time    0.0954: real time    0.0959
    SETDIJ:  cpu time    0.5991: real time    0.6011
    TRIAL :  cpu time    4.4708: real time    4.4972
 BZINTS: Fermi energy:  4.807311;172.000000 electrons
         Band energy:***********;  BLOECHL correction:  0.000000
 BZINTS: Fermi energy:  4.807311;172.000000 electrons
         Band energy:***********;  BLOECHL correction:  0.000000
    CORREC:  cpu time    3.9762: real time    3.9953
    CHARGE:  cpu time    1.1229: real time    1.1284
    --------------------------------------------
      LOOP:  cpu time   10.3064: real time   10.3637

 eigenvalue-minimisations  :     0
 total energy-change (2. order) :-0.1219152E-05  (-0.2343145E-07)
 number of electron     172.0000115 magnetization       0.0000000      0.0000000      0.0000000
 augmentation part       70.5610596 magnetization      -0.0000000     -0.0000001      0.0001475

 Free energy of the ion-electron system (eV)
  ---------------------------------------------------
  alpha Z        PSCENC =       585.01746092
  Ewald energy   TEWEN  =    -15581.83204691
  -Hartree energ DENC   =    -10760.38874453
  -exchange      EXHF   =         0.00000000
  -V(xc)+E(xc)   XCENC  =       821.40651626
  PAW double counting   =     28004.26407942   -28927.51051250
  entropy T*S    EENTRO =         0.00000000
  eigenvalues    EBANDS =     -2728.02450727
  atomic energy  EATOM  =     28505.01627691
  ---------------------------------------------------
  free energy    TOTEN  =       -82.05147770 eV

  energy without entropy =      -82.05147770  energy(sigma->0) =      -82.05147770


--------------------------------------------------------------------------------------------------------




--------------------------------------- Iteration      1(   9)  ---------------------------------------


    POTLOK:  cpu time    0.0967: real time    0.0973
    SETDIJ:  cpu time    0.6015: real time    0.6035
    TRIAL :  cpu time    4.4603: real time    4.4869
 BZINTS: Fermi energy:  4.807311;172.000000 electrons
         Band energy:***********;  BLOECHL correction:  0.000000
 BZINTS: Fermi energy:  4.807311;172.000000 electrons
         Band energy:***********;  BLOECHL correction:  0.000000
    CORREC:  cpu time    4.0007: real time    4.0197
    CHARGE:  cpu time    1.1237: real time    1.1293
    --------------------------------------------
      LOOP:  cpu time   10.3300: real time   10.3847

 eigenvalue-minimisations  :     0
 total energy-change (2. order) :-0.8129427E-06  (-0.1770503E-07)
 number of electron     172.0000115 magnetization       0.0000000      0.0000000      0.0000000
 augmentation part       70.5610596 magnetization      -0.0000000     -0.0000001      0.0001475

 Free energy of the ion-electron system (eV)
  ---------------------------------------------------
  alpha Z        PSCENC =       585.01746092
  Ewald energy   TEWEN  =    -15581.83204691
  -Hartree energ DENC   =    -10760.38874162
  -exchange      EXHF   =         0.00000000
  -V(xc)+E(xc)   XCENC  =       821.40651452
  PAW double counting   =     28004.26404312   -28927.51047637
  entropy T*S    EENTRO =         0.00000000
  eigenvalues    EBANDS =     -2728.02450907
  atomic energy  EATOM  =     28505.01627691
  ---------------------------------------------------
  free energy    TOTEN  =       -82.05147851 eV

  energy without entropy =      -82.05147851  energy(sigma->0) =      -82.05147851


--------------------------------------------------------------------------------------------------------




--------------------------------------- Iteration      1(  10)  ---------------------------------------


    POTLOK:  cpu time    0.0971: real time    0.0977
    SETDIJ:  cpu time    0.6018: real time    0.6037
    TRIAL :  cpu time    4.4723: real time    4.4983
 BZINTS: Fermi energy:  4.807311;172.000000 electrons
         Band energy:***********;  BLOECHL correction:  0.000000
 BZINTS: Fermi energy:  4.807311;172.000000 electrons
         Band energy:***********;  BLOECHL correction:  0.000000
    CORREC:  cpu time    4.0037: real time    4.0227
    CHARGE:  cpu time    1.1232: real time    1.1287
    --------------------------------------------
      LOOP:  cpu time   10.3443: real time   10.3983

 eigenvalue-minimisations  :     0
 total energy-change (2. order) :-0.5464353E-06  (-0.1936249E-07)
 number of electron     172.0000115 magnetization       0.0000000      0.0000000      0.0000000
 augmentation part       70.5610596 magnetization      -0.0000000     -0.0000001      0.0001475

 Free energy of the ion-electron system (eV)
  ---------------------------------------------------
  alpha Z        PSCENC =       585.01746092
  Ewald energy   TEWEN  =    -15581.83204691
  -Hartree energ DENC   =    -10760.38873948
  -exchange      EXHF   =         0.00000000
  -V(xc)+E(xc)   XCENC  =       821.40651337
  PAW double counting   =     28004.26401323   -28927.51044665
  entropy T*S    EENTRO =         0.00000000
  eigenvalues    EBANDS =     -2728.02451045
  atomic energy  EATOM  =     28505.01627691
  ---------------------------------------------------
  free energy    TOTEN  =       -82.05147906 eV

  energy without entropy =      -82.05147906  energy(sigma->0) =      -82.05147906


--------------------------------------------------------------------------------------------------------




--------------------------------------- Iteration      1(  11)  ---------------------------------------


    POTLOK:  cpu time    0.0943: real time    0.0949
    SETDIJ:  cpu time    0.6011: real time    0.6030
    TRIAL :  cpu time    4.4339: real time    4.4600
 BZINTS: Fermi energy:  4.807311;172.000000 electrons
         Band energy:***********;  BLOECHL correction:  0.000000
 BZINTS: Fermi energy:  4.807311;172.000000 electrons
         Band energy:***********;  BLOECHL correction:  0.000000
    CORREC:  cpu time    3.9904: real time    4.0093
    CHARGE:  cpu time    1.1229: real time    1.1285
    --------------------------------------------
      LOOP:  cpu time   10.2883: real time   10.3426

 eigenvalue-minimisations  :     0
 total energy-change (2. order) :-0.6789378E-06  (-0.1680054E-07)
 number of electron     172.0000115 magnetization       0.0000000      0.0000000      0.0000000
 augmentation part       70.5610595 magnetization      -0.0000000     -0.0000001      0.0001475

 Free energy of the ion-electron system (eV)
  ---------------------------------------------------
  alpha Z        PSCENC =       585.01746092
  Ewald energy   TEWEN  =    -15581.83204691
  -Hartree energ DENC   =    -10760.38873722
  -exchange      EXHF   =         0.00000000
  -V(xc)+E(xc)   XCENC  =       821.40651195
  PAW double counting   =     28004.26397919   -28927.51041286
  entropy T*S    EENTRO =         0.00000000
  eigenvalues    EBANDS =     -2728.02451173
  atomic energy  EATOM  =     28505.01627691
  ---------------------------------------------------
  free energy    TOTEN  =       -82.05147974 eV

  energy without entropy =      -82.05147974  energy(sigma->0) =      -82.05147974


--------------------------------------------------------------------------------------------------------




--------------------------------------- Iteration      1(  12)  ---------------------------------------


    POTLOK:  cpu time    0.0948: real time    0.0954
    SETDIJ:  cpu time    0.6016: real time    0.6036
    TRIAL :  cpu time    4.5254: real time    4.5520
 BZINTS: Fermi energy:  4.807311;172.000000 electrons
         Band energy:***********;  BLOECHL correction:  0.000000
 BZINTS: Fermi energy:  4.807311;172.000000 electrons
         Band energy:***********;  BLOECHL correction:  0.000000
    CORREC:  cpu time    3.9926: real time    4.0118
    CHARGE:  cpu time    1.1259: real time    1.1315
    --------------------------------------------
      LOOP:  cpu time   10.3832: real time   10.4411

 eigenvalue-minimisations  :     0
 total energy-change (2. order) :-0.5903639E-06  (-0.4295420E-08)
 number of electron     172.0000115 magnetization       0.0000000      0.0000000      0.0000000
 augmentation part       70.5610595 magnetization      -0.0000001     -0.0000001      0.0001475

 Free energy of the ion-electron system (eV)
  ---------------------------------------------------
  alpha Z        PSCENC =       585.01746092
  Ewald energy   TEWEN  =    -15581.83204691
  -Hartree energ DENC   =    -10760.38873540
  -exchange      EXHF   =         0.00000000
  -V(xc)+E(xc)   XCENC  =       821.40651080
  PAW double counting   =     28004.26394946   -28927.51038339
  entropy T*S    EENTRO =         0.00000000
  eigenvalues    EBANDS =     -2728.02451272
  atomic energy  EATOM  =     28505.01627691
  ---------------------------------------------------
  free energy    TOTEN  =       -82.05148033 eV

  energy without entropy =      -82.05148033  energy(sigma->0) =      -82.05148033


--------------------------------------------------------------------------------------------------------




--------------------------------------- Iteration      1(  13)  ---------------------------------------


    POTLOK:  cpu time    0.0944: real time    0.0949
    SETDIJ:  cpu time    0.6018: real time    0.6037
    TRIAL :  cpu time    4.4534: real time    4.4797
 BZINTS: Fermi energy:  4.807311;172.000000 electrons
         Band energy:***********;  BLOECHL correction:  0.000000
 BZINTS: Fermi energy:  4.807311;172.000000 electrons
         Band energy:***********;  BLOECHL correction:  0.000000
    CORREC:  cpu time    4.0059: real time    4.0252
    CHARGE:  cpu time    1.1246: real time    1.1300
    --------------------------------------------
      LOOP:  cpu time   10.3226: real time   10.3791

 eigenvalue-minimisations  :     0
 total energy-change (2. order) :-0.2935922E-06  (-0.4187756E-08)
 number of electron     172.0000115 magnetization       0.0000000      0.0000000      0.0000000
 augmentation part       70.5610595 magnetization      -0.0000001     -0.0000001      0.0001475

 Free energy of the ion-electron system (eV)
  ---------------------------------------------------
  alpha Z        PSCENC =       585.01746092
  Ewald energy   TEWEN  =    -15581.83204691
  -Hartree energ DENC   =    -10760.38873499
  -exchange      EXHF   =         0.00000000
  -V(xc)+E(xc)   XCENC  =       821.40651016
  PAW double counting   =     28004.26394249   -28927.51037649
  entropy T*S    EENTRO =         0.00000000
  eigenvalues    EBANDS =     -2728.02451271
  atomic energy  EATOM  =     28505.01627691
  ---------------------------------------------------
  free energy    TOTEN  =       -82.05148062 eV

  energy without entropy =      -82.05148062  energy(sigma->0) =      -82.05148062


--------------------------------------------------------------------------------------------------------




--------------------------------------- Iteration      1(  14)  ---------------------------------------


    POTLOK:  cpu time    0.0946: real time    0.0952
    SETDIJ:  cpu time    0.6013: real time    0.6034
    TRIAL :  cpu time    4.4688: real time    4.4948
 BZINTS: Fermi energy:  4.807311;172.000000 electrons
         Band energy:***********;  BLOECHL correction:  0.000000
 BZINTS: Fermi energy:  4.807311;172.000000 electrons
         Band energy:***********;  BLOECHL correction:  0.000000
    CORREC:  cpu time    3.9829: real time    4.0021
    EDDIAG:  cpu time    1.9110: real time    1.9207
    CHARGE:  cpu time    1.1383: real time    1.1440
    --------------------------------------------
      LOOP:  cpu time   12.2421: real time   12.3090

 eigenvalue-minimisations  :     0
 total energy-change (2. order) :-0.9469659E-08  (-0.6303739E-08)
 number of electron     172.0000115 magnetization       0.0000000      0.0000000      0.0000000
 augmentation part       70.5610596 magnetization      -0.0000001     -0.0000001      0.0001475

 Free energy of the ion-electron system (eV)
  ---------------------------------------------------
  alpha Z        PSCENC =       585.01746092
  Ewald energy   TEWEN  =    -15581.83204691
  -Hartree energ DENC   =    -10760.38873459
  -exchange      EXHF   =         0.00000000
  -V(xc)+E(xc)   XCENC  =       821.40651020
  PAW double counting   =     28004.26393538   -28927.51036947
  entropy T*S    EENTRO =         0.00000000
  eigenvalues    EBANDS =     -2728.02451308
  atomic energy  EATOM  =     28505.01627691
  ---------------------------------------------------
  free energy    TOTEN  =       -82.05148063 eV

  energy without entropy =      -82.05148063  energy(sigma->0) =      -82.05148063


--------------------------------------------------------------------------------------------------------


  average scaling for gradient   0.9208


 average (electrostatic) potential at core
  the test charge radii are     0.9698  0.8297  0.9500
  (the norm of the test charge is              1.0000)
       1 -86.6818       2 -86.6818       3 -86.6826       4 -86.6826       5 -86.6818
       6 -86.6818       7 -86.6826       8 -86.6826       9 -80.7457      10 -80.7457
      11 -80.7457      12 -80.7457      13 -80.3026      14 -80.3026      15 -80.3026
      16 -80.3026
 
 
 
 E-fermi :   4.8073     XC(G=0): -10.4324     alpha+bet :-10.4744


 k-point     1 :       0.0000    0.0000    0.0000
  band No.  band energies     occupation 
      1     -64.3498      1.00000
      2     -64.3498      1.00000
      3     -64.3498      1.00000
      4     -64.3498      1.00000
      5     -64.3316      1.00000
      6     -64.3316      1.00000
      7     -64.3316      1.00000
      8     -64.3316      1.00000
      9     -64.3212      1.00000
     10     -64.3212      1.00000
     11     -64.3212      1.00000
     12     -64.3212      1.00000
     13     -64.3140      1.00000
     14     -64.3140      1.00000
     15     -64.3140      1.00000
     16     -64.3140      1.00000
     17     -64.3132      1.00000
     18     -64.3132      1.00000
     19     -64.3132      1.00000
     20     -64.3132      1.00000
     21     -64.3066      1.00000
     22     -64.3066      1.00000
     23     -64.3066      1.00000
     24     -64.3066      1.00000
     25     -51.9487      1.00000
     26     -51.9487      1.00000
     27     -51.9487      1.00000
     28     -51.9487      1.00000
     29     -51.9484      1.00000
     30     -51.9484      1.00000
     31     -51.9484      1.00000
     32     -51.9484      1.00000
     33     -51.9143      1.00000
     34     -51.9143      1.00000
     35     -51.9143      1.00000
     36     -51.9143      1.00000
     37     -47.8072      1.00000
     38     -47.8072      1.00000
     39     -47.8072      1.00000
     40     -47.8072      1.00000
     41     -47.7950      1.00000
     42     -47.7950      1.00000
     43     -47.7950      1.00000
     44     -47.7950      1.00000
     45     -47.7906      1.00000
     46     -47.7906      1.00000
     47     -47.7906      1.00000
     48     -47.7906      1.00000
     49      -9.1411      1.00000
     50      -9.1411      1.00000
     51      -8.5446      1.00000
     52      -8.5446      1.00000
     53      -8.5230      1.00000
     54      -8.5230      1.00000
     55      -7.8329      1.00000
     56      -7.8329      1.00000
     57      -7.8118      1.00000
     58      -7.8118      1.00000
     59      -7.8072      1.00000
     60      -7.8072      1.00000
     61      -7.8029      1.00000
     62      -7.8029      1.00000
     63      -7.7880      1.00000
     64      -7.7880      1.00000
     65      -2.1285      1.00000
     66      -2.1285      1.00000
     67      -2.0813      1.00000
     68      -2.0813      1.00000
     69      -2.0501      1.00000
     70      -2.0501      1.00000
     71      -1.9775      1.00000
     72      -1.9775      1.00000
     73      -1.9669      1.00000
     74      -1.9669      1.00000
     75      -1.8755      1.00000
     76      -1.8755      1.00000
     77      -1.8515      1.00000
     78      -1.8515      1.00000
     79      -1.8491      1.00000
     80      -1.8491      1.00000
     81      -1.8296      1.00000
     82      -1.8296      1.00000
     83      -1.8070      1.00000
     84      -1.8070      1.00000
     85      -0.7734      1.00000
     86      -0.7734      1.00000
     87      -0.5759      1.00000
     88      -0.5759      1.00000
     89      -0.1635      1.00000
     90      -0.1635      1.00000
     91       0.0609      1.00000
     92       0.0609      1.00000
     93       0.1550      1.00000
     94       0.1550      1.00000
     95       0.2492      1.00000
     96       0.2492      1.00000
     97       0.2933      1.00000
     98       0.2933      1.00000
     99       0.6292      1.00000
    100       0.6292      1.00000
    101       0.7244      1.00000
    102       0.7244      1.00000
    103       1.0829      1.00000
    104       1.0829      1.00000
    105       1.1067      1.00000
    106       1.1067      1.00000
    107       1.1094      1.00000
    108       1.1094      1.00000
    109       1.1187      1.00000
    110       1.1187      1.00000
    111       1.2443      1.00000
    112       1.2443      1.00000
    113       1.2747      1.00000
    114       1.2747      1.00000
    115       1.3047      1.00000
    116       1.3047      1.00000
    117       1.3355      1.00000
    118       1.3355      1.00000
    119       1.3858      1.00000
    120       1.3858      1.00000
    121       1.5575      1.00000
    122       1.5575      1.00000
    123       1.8021      1.00000
    124       1.8021      1.00000
    125       1.8509      1.00000
    126       1.8509      1.00000
    127       2.0477      1.00000
    128       2.0477      1.00000
    129       2.0616      1.00000
    130       2.0616      1.00000
    131       2.1260      1.00000
    132       2.1260      1.00000
    133       2.5769      1.00000
    134       2.5769      1.00000
    135       2.6824      1.00000
    136       2.6824      1.00000
    137       2.7573      1.00000
    138       2.7573      1.00000
    139       2.8046      1.00000
    140       2.8046      1.00000
    141       2.8494      1.00000
    142       2.8494      1.00000
    143       2.9099      1.00000
    144       2.9099      1.00000
    145       2.9377      1.00000
    146       2.9377      1.00000
    147       3.0632      1.00000
    148       3.0632      1.00000
    149       3.1197      1.00000
    150       3.1197      1.00000
    151       3.1772      1.00000
    152       3.1772      1.00000
    153       3.2363      1.00000
    154       3.2363      1.00000
    155       3.5733      1.00000
    156       3.5733      1.00000
    157       3.6180      1.00000
    158       3.6180      1.00000
    159       3.7917      1.00000
    160       3.7917      1.00000
    161       3.9244      1.00000
    162       3.9244      1.00000
    163       4.1502      1.00000
    164       4.1502      1.00000
    165       4.1661      1.00000
    166       4.1661      1.00000
    167       4.2306      1.00000
    168       4.2306      1.00000
    169       4.2483      1.00000
    170       4.2483      1.00000
    171       4.2881      1.00000
    172       4.2881      1.00000
    173       5.6768      0.00000
    174       5.6768      0.00000
    175       5.8216      0.00000
    176       5.8216      0.00000
    177       5.8480      0.00000
    178       5.8480      0.00000
    179       5.8515      0.00000
    180       5.8515      0.00000
    181       5.9311      0.00000
    182       5.9311      0.00000
    183       5.9592      0.00000
    184       5.9592      0.00000
    185       6.3097      0.00000
    186       6.3097      0.00000
    187       6.4588      0.00000
    188       6.4588      0.00000
    189       6.6204      0.00000
    190       6.6204      0.00000
    191       6.6356      0.00000
    192       6.6356      0.00000
    193       7.5869      0.00000
    194       7.5869      0.00000
    195       8.6313      0.00000
    196       8.6313      0.00000
    197       8.7509      0.00000
    198       8.7509      0.00000
    199       8.7819      0.00000
    200       8.7819      0.00000
    201       9.2340      0.00000
    202       9.2340      0.00000
    203       9.4806      0.00000
    204       9.4806      0.00000
    205       9.9415      0.00000
    206       9.9415      0.00000
    207      10.0867      0.00000
    208      10.0867      0.00000

 k-point     2 :       0.1667    0.0000    0.0000
  band No.  band energies     occupation 
      1     -64.3498      1.00000
      2     -64.3498      1.00000
      3     -64.3498      1.00000
      4     -64.3498      1.00000
      5     -64.3316      1.00000
      6     -64.3316      1.00000
      7     -64.3316      1.00000
      8     -64.3316      1.00000
      9     -64.3212      1.00000
     10     -64.3212      1.00000
     11     -64.3212      1.00000
     12     -64.3212      1.00000
     13     -64.3140      1.00000
     14     -64.3140      1.00000
     15     -64.3140      1.00000
     16     -64.3140      1.00000
     17     -64.3132      1.00000
     18     -64.3132      1.00000
     19     -64.3132      1.00000
     20     -64.3132      1.00000
     21     -64.3066      1.00000
     22     -64.3066      1.00000
     23     -64.3066      1.00000
     24     -64.3066      1.00000
     25     -51.9487      1.00000
     26     -51.9487      1.00000
     27     -51.9487      1.00000
     28     -51.9487      1.00000
     29     -51.9484      1.00000
     30     -51.9484      1.00000
     31     -51.9484      1.00000
     32     -51.9484      1.00000
     33     -51.9143      1.00000
     34     -51.9143      1.00000
     35     -51.9143      1.00000
     36     -51.9143      1.00000
     37     -47.8072      1.00000
     38     -47.8072      1.00000
     39     -47.8072      1.00000
     40     -47.8072      1.00000
     41     -47.7951      1.00000
     42     -47.7951      1.00000
     43     -47.7950      1.00000
     44     -47.7950      1.00000
     45     -47.7906      1.00000
     46     -47.7906      1.00000
     47     -47.7906      1.00000
     48     -47.7906      1.00000
     49      -9.0664      1.00000
     50      -9.0664      1.00000
     51      -8.4972      1.00000
     52      -8.4972      1.00000
     53      -8.4754      1.00000
     54      -8.4754      1.00000
     55      -7.9369      1.00000
     56      -7.9369      1.00000
     57      -7.8580      1.00000
     58      -7.8580      1.00000
     59      -7.8513      1.00000
     60      -7.8513      1.00000
     61      -7.8091      1.00000
     62      -7.8091      1.00000
     63      -7.7885      1.00000
     64      -7.7885      1.00000
     65      -2.1076      1.00000
     66      -2.1076      1.00000
     67      -2.0767      1.00000
     68      -2.0767      1.00000
     69      -2.0177      1.00000
[...]
 -0.000  -0.000  -0.000  -0.000  -0.000  -0.000   0.000   0.000  -0.000   0.000  -0.000  -0.000   0.000   0.000  -0.000   0.000
 pseudopotential strength for first ion, spin component:           3
 -0.000  -0.000  -0.000  -0.000   0.000  -0.000  -0.000  -0.000  -0.000   0.000   0.000  -0.000  -0.000  -0.000  -0.000   0.000
 -0.000  -0.000  -0.000  -0.000   0.000  -0.000  -0.000  -0.000  -0.000   0.000   0.000  -0.000  -0.000  -0.000  -0.000   0.000
  0.000  -0.000   0.000  -0.000  -0.000  -0.000   0.000   0.000  -0.000   0.000  -0.000  -0.000   0.000   0.000  -0.000   0.000
 -0.000  -0.000  -0.000  -0.000   0.000   0.000  -0.000  -0.000   0.000  -0.000   0.000   0.000  -0.000  -0.000   0.000  -0.000
 -0.000   0.000  -0.000   0.000  -0.000   0.000   0.000  -0.000  -0.000  -0.000  -0.000   0.000   0.000  -0.000  -0.000  -0.000
  0.000  -0.000   0.000  -0.000  -0.000  -0.000   0.000   0.000  -0.000   0.000  -0.000  -0.000   0.000   0.000  -0.000   0.000
 -0.000  -0.000  -0.000  -0.000   0.000   0.000  -0.000  -0.000   0.000  -0.000   0.000   0.000  -0.000  -0.000   0.000  -0.000
 -0.000   0.000  -0.000   0.000  -0.000   0.000   0.000  -0.000  -0.000  -0.000  -0.000   0.000   0.000  -0.000  -0.000  -0.000
 pseudopotential strength for first ion, spin component:           4
 39.533   0.000  45.402   0.000  -0.001   0.000  -0.001   0.000  -0.003   0.000  -0.001   0.000  -0.001   0.000  -0.004   0.000
 45.402   0.000  52.144   0.000  -0.001   0.000  -0.001   0.000  -0.003   0.000  -0.001   0.000  -0.001   0.000  -0.005   0.000
 -0.001   0.000  -0.001   0.000   8.207   0.000   0.002   0.000  -0.000   0.000  11.124   0.000   0.002   0.000  -0.001   0.000
 -0.001   0.000  -0.001   0.000   0.002   0.000   8.208   0.000  -0.001   0.000   0.002   0.000  11.125   0.000  -0.001   0.000
 -0.003   0.000  -0.003   0.000  -0.000   0.000  -0.001   0.000   8.208   0.000  -0.001   0.000  -0.001   0.000  11.125   0.000
 -0.001   0.000  -0.001   0.000  11.124   0.000   0.002   0.000  -0.001   0.000  15.098   0.000   0.003   0.000  -0.001   0.000
 -0.001   0.000  -0.001   0.000   0.002   0.000  11.125   0.000  -0.001   0.000   0.003   0.000  15.099   0.000  -0.001   0.000
 -0.004   0.000  -0.005   0.000  -0.001   0.000  -0.001   0.000  11.125   0.000  -0.001   0.000  -0.001   0.000  15.099   0.000
 total augmentation occupancy for first ion, spin component:           1
 10.756  -6.651   0.000   0.000  -0.569  -0.000   0.000   0.154
 -6.651   4.813  -0.000   0.000   0.468   0.000   0.000  -0.096
  0.000  -0.000   3.585   0.081   0.000  -1.000  -0.043   0.000
  0.000   0.000   0.081   3.610   0.000  -0.043  -1.017   0.000
 -0.569   0.468   0.000   0.000   3.635   0.000   0.000  -1.030
 -0.000   0.000  -1.000  -0.043   0.000   0.333   0.015   0.000
  0.000   0.000  -0.043  -1.017   0.000   0.015   0.339   0.000
  0.154  -0.096   0.000   0.000  -1.030   0.000   0.000   0.345
 total augmentation occupancy for first ion, spin component:           2
  0.001  -0.000   0.000   0.000  -0.000   0.000   0.000   0.000
 -0.000   0.000  -0.000  -0.000   0.000   0.000  -0.000  -0.000
  0.000  -0.000   0.000   0.000  -0.000  -0.000  -0.000   0.000
  0.000   0.000   0.000   0.000   0.000  -0.000  -0.000  -0.000
 -0.000   0.000  -0.000   0.000   0.000   0.000  -0.000  -0.000
  0.000  -0.000  -0.000  -0.000   0.000   0.000   0.000   0.000
 -0.000   0.000  -0.000  -0.000  -0.000   0.000   0.000   0.000
  0.000  -0.000   0.000   0.000  -0.000   0.000   0.000   0.000
 total augmentation occupancy for first ion, spin component:           3
  0.000  -0.000  -0.000  -0.000   0.000   0.000   0.000   0.000
  0.000   0.000   0.000   0.000  -0.000  -0.000  -0.000   0.000
 -0.000   0.000  -0.000  -0.000   0.000  -0.000   0.000  -0.000
 -0.000   0.000   0.000  -0.000   0.000   0.000   0.000  -0.000
  0.000  -0.000   0.000   0.000   0.000  -0.000  -0.000   0.000
  0.000  -0.000  -0.000  -0.000  -0.000   0.000   0.000   0.000
  0.000  -0.000   0.000   0.000  -0.000   0.000   0.000   0.000
  0.000   0.000  -0.000  -0.000  -0.000   0.000   0.000   0.000
 total augmentation occupancy for first ion, spin component:           4
 -0.000   0.000   0.118   0.100  -0.000   0.077   0.077   0.000
  0.000  -0.000  -0.095  -0.078   0.000  -0.086  -0.084   0.000
  0.118  -0.095   0.000   0.000   0.006   0.000  -0.000  -0.004
  0.100  -0.078   0.000   0.000   0.007  -0.000  -0.000  -0.004
 -0.000   0.000   0.006   0.007   0.000  -0.003  -0.004   0.000
  0.077  -0.086   0.000   0.000  -0.003   0.000   0.000   0.015
  0.077  -0.084  -0.000  -0.000  -0.004   0.000   0.000   0.014
  0.000   0.000  -0.004  -0.004   0.000   0.015   0.014   0.000


------------------------ aborting loop because EDIFF is reached ----------------------------------------


 


 total charge     
 
# of ion       s       p       d       tot
------------------------------------------
    1        1.314   2.407   0.000   3.721
    2        1.313   2.407   0.000   3.720
    3        1.313   2.408   0.000   3.721
    4        1.313   2.408   0.000   3.721
    5        1.313   2.407   0.000   3.720
    6        1.314   2.407   0.000   3.721
    7        1.313   2.408   0.000   3.721
    8        1.313   2.408   0.000   3.721
    9        0.258   6.200   8.917  15.375
   10        0.258   6.200   8.917  15.375
   11        0.258   6.200   8.917  15.375
   12        0.258   6.200   8.917  15.375
   13        0.348   6.347   5.816  12.511
   14        0.348   6.347   5.816  12.511
   15        0.348   6.347   5.816  12.511
   16        0.348   6.347   5.816  12.511
--------------------------------------------------
tot         12.933  69.446  58.931 141.311
 


 magnetization (x)
 
# of ion       s       p       d       tot
------------------------------------------
    1        0.000   0.000   0.000   0.000
    2       -0.000  -0.000   0.000  -0.000
    3        0.000  -0.000   0.000   0.000
    4       -0.000   0.000   0.000   0.000
    5       -0.000  -0.000   0.000  -0.000
    6        0.000   0.000   0.000   0.000
    7        0.000  -0.000   0.000   0.000
    8       -0.000   0.000   0.000   0.000
    9        0.000  -0.000   0.000   0.000
   10       -0.000  -0.000   0.000  -0.000
   11        0.000  -0.000   0.000   0.000
   12       -0.000  -0.000   0.000  -0.000
   13        0.000   0.000   0.000   0.000
   14        0.000  -0.000   0.000  -0.000
   15        0.000   0.000   0.000   0.000
   16        0.000  -0.000   0.000  -0.000
--------------------------------------------------
tot          0.000  -0.000   0.000   0.000
 


 magnetization (y)
 
# of ion       s       p       d       tot
------------------------------------------
    1        0.000  -0.000   0.000  -0.000
    2        0.000  -0.000   0.000   0.000
    3       -0.000  -0.000   0.000  -0.000
    4        0.000   0.000   0.000   0.000
    5        0.000  -0.000   0.000   0.000
    6        0.000  -0.000   0.000  -0.000
    7       -0.000  -0.000   0.000  -0.000
    8        0.000   0.000   0.000   0.000
    9       -0.000  -0.000   0.000   0.000
   10       -0.000  -0.000   0.000   0.000
   11       -0.000  -0.000   0.000   0.000
   12       -0.000  -0.000   0.000   0.000
   13        0.000   0.000  -0.000  -0.000
   14        0.000   0.000  -0.000  -0.000
   15        0.000   0.000  -0.000  -0.000
   16        0.000   0.000  -0.000  -0.000
--------------------------------------------------
tot          0.000   0.000  -0.000  -0.000
 


 magnetization (z)
 
# of ion       s       p       d       tot
------------------------------------------
    1        0.000  -0.003   0.000  -0.003
    2        0.000  -0.003   0.000  -0.003
    3       -0.000   0.004   0.000   0.003
    4       -0.000   0.003   0.000   0.002
    5        0.000  -0.003   0.000  -0.003
    6        0.000  -0.003   0.000  -0.003
    7       -0.000   0.004   0.000   0.003
    8       -0.000   0.003   0.000   0.002
    9        0.000   0.000   0.000   0.001
   10       -0.000  -0.000  -0.000  -0.001
   11        0.000   0.000   0.000   0.001
   12       -0.000  -0.000  -0.000  -0.001
   13        0.020   0.054   3.676   3.750
   14       -0.020  -0.054  -3.676  -3.750
   15        0.020   0.054   3.676   3.750
   16       -0.020  -0.054  -3.676  -3.750
--------------------------------------------------
tot          0.000  -0.000   0.000   0.000
 
    FORLOC:  cpu time    0.0022: real time    0.0022
    FORNL :  cpu time    1.1512: real time    1.1566
    STRESS:  cpu time    1.1119: real time    1.1172
    FORCOR:  cpu time    0.0878: real time    0.0883
    OFIELD:  cpu time    0.0005: real time    0.0005

  FORCE on cell =-STRESS in cart. coord.  units (eV):
  Direction    XX          YY          ZZ          XY          YZ          ZX
  --------------------------------------------------------------------------------------
  Alpha Z   585.01746   585.01746   585.01746
  Ewald   -5149.46929 -5260.88734 -5171.51404     0.00000     0.00000     0.00000
  Hartree  3603.67400  3549.50691  3607.20782    -0.00000    -0.00000    -0.00000
  E(xc)   -1050.44484 -1050.51334 -1050.44478     0.00000    -0.00000    -0.00000
  Local   -1331.55584 -1166.53153 -1310.23579     0.00000    -0.00000    -0.00000
  n-local   121.22697   119.90039   121.27625    -0.25279    -0.05363    -0.01181
  augment  1181.61154  1180.85281  1179.50143    -0.00000     0.00000     0.00000
  Kinetic  2038.43056  2042.65443  2037.81667    -0.87725     0.03077     0.00331
  Fock        0.00000     0.00000     0.00000     0.00000     0.00000     0.00000
  -------------------------------------------------------------------------------------
  Total      -1.50945    -0.00021    -1.37498     0.00000     0.00000     0.00000
  in kB      -8.34955    -0.00114    -7.60574     0.00000     0.00000     0.00000
  external pressure =       -5.32 kB  Pullay stress =        0.00 kB


 VOLUME and BASIS-vectors are now :
 -----------------------------------------------------------------------------
  energy-cutoff  :      700.00
  volume of cell :      289.64
      direct lattice vectors                 reciprocal lattice vectors
     5.311373512  0.000000000  0.000000000     0.188275217  0.000000000  0.000000000
     0.000000000  5.187467086  0.000000000     0.000000000  0.192772307  0.000000000
     0.000000000  0.000000000 10.512418092     0.000000000  0.000000000  0.095125593

  length of vectors
     5.311373512  5.187467086 10.512418092     0.188275217  0.192772307  0.095125593


 FORCES acting on ions:
    Electron-Ion                     Ewald-Force                    Non-Local-Force
 -----------------------------------------------------------------------------------------------
   0.428E+02 0.332E-12 0.101E-12   -.435E+02 0.000E+00 -.389E-11   0.814E+00 -.217E-18 0.000E+00
   -.428E+02 0.864E-12 -.188E-11   0.435E+02 0.000E+00 -.395E-11   -.814E+00 0.217E-18 0.000E+00
   0.642E-12 -.410E+02 -.598E-12   0.667E-12 0.418E+02 -.142E-13   0.000E+00 -.773E+00 -.434E-18
   0.471E-12 0.410E+02 -.114E-11   -.123E-11 -.418E+02 0.995E-13   -.136E-18 0.773E+00 0.000E+00
   -.428E+02 0.375E-12 0.221E-12   0.435E+02 0.275E-13 0.379E-11   -.814E+00 0.651E-18 0.000E+00
   0.428E+02 -.914E-12 0.877E-12   -.435E+02 0.204E-13 0.389E-11   0.814E+00 -.217E-18 0.000E+00
   0.385E-12 -.410E+02 0.286E-12   -.118E-11 0.418E+02 -.114E-12   0.000E+00 -.773E+00 -.434E-18
   0.557E-12 0.410E+02 -.879E-13   0.625E-12 -.418E+02 0.114E-12   -.136E-18 0.773E+00 0.000E+00
   -.428E-13 -.312E-12 0.112E+01   0.972E-05 -.228E-04 -.113E+01   0.000E+00 -.434E-18 0.973E-02
   0.163E-11 0.268E-12 -.112E+01   -.972E-05 -.228E-04 0.113E+01   0.000E+00 0.434E-18 -.973E-02
   0.158E-11 0.249E-10 0.112E+01   -.972E-05 0.228E-04 -.113E+01   0.000E+00 -.434E-18 0.973E-02
   0.856E-13 0.151E-11 -.112E+01   0.972E-05 0.228E-04 0.113E+01   0.000E+00 0.434E-18 -.973E-02
   0.171E-12 -.657E-13 -.247E+01   -.725E-05 0.190E-04 0.247E+01   -.173E-17 0.000E+00 -.175E-03
   0.878E-12 0.657E-13 0.247E+01   0.725E-05 0.190E-04 -.247E+01   -.867E-18 0.000E+00 0.175E-03
   0.813E-12 -.116E-11 -.247E+01   0.725E-05 -.190E-04 0.247E+01   -.173E-17 0.000E+00 -.175E-03
   0.171E-12 0.762E-12 0.247E+01   -.725E-05 -.190E-04 -.247E+01   -.867E-18 0.000E+00 0.175E-03
 -----------------------------------------------------------------------------------------------
   0.142E-10 0.326E-10 0.260E-10   -.409E-13 0.342E-13 0.924E-13   0.106E-15 0.111E-15 0.330E-16
 
 
 POSITION                                       TOTAL-FORCE (eV/Angst)
 -----------------------------------------------------------------------------------
      1.34041      1.29687      1.31405         0.000005      0.000000      0.000000
      3.97096      3.89060      1.31405        -0.000005      0.000000      0.000000
      1.32784      3.87865      9.19837         0.000000      0.000008     -0.000000
      3.98353      1.30881      9.19837         0.000000     -0.000008      0.000000
      1.31528      1.29687      6.57026        -0.000005      0.000000      0.000000
      3.99610      3.89060      6.57026         0.000005      0.000000      0.000000
      3.98353      1.28492      3.94216         0.000000      0.000008     -0.000000
      1.32784      3.90255      3.94216         0.000000     -0.000008     -0.000000
      0.00000      0.00000      5.25486         0.000000      0.000000     -0.000011
      2.65569      0.00000      2.62945         0.000000      0.000000      0.000011
      2.65569      2.59373     10.51107         0.000000      0.000000     -0.000011
      0.00000      2.59373      7.88566         0.000000      0.000000      0.000011
      0.00000      0.00000     10.51206         0.000000      0.000000      0.000003
      2.65569      0.00000      7.88467         0.000000      0.000000     -0.000003
      2.65569      2.59373      5.25585         0.000000      0.000000      0.000003
      0.00000      2.59373      2.62846         0.000000      0.000000     -0.000003
 -----------------------------------------------------------------------------------
    total drift:                                0.000000      0.000000      0.000000


--------------------------------------------------------------------------------------------------------



  FREE ENERGIE OF THE ION-ELECTRON SYSTEM (eV)
  ---------------------------------------------------
  free  energy   TOTEN  =       -82.05148063 eV

  energy  without entropy=      -82.05148063  energy(sigma->0) =      -82.05148063
 


--------------------------------------------------------------------------------------------------------


    POTLOK:  cpu time    0.6831: real time    0.6857


--------------------------------------------------------------------------------------------------------


 writing wavefunctions
     LOOP+:  cpu time  181.3701: real time  184.6854
    4ORBIT:  cpu time    0.0000: real time    0.0000
 


 total charge     
 
# of ion       s       p       d       tot
------------------------------------------
    1        1.314   2.407   0.000   3.721
    2        1.313   2.407   0.000   3.720
    3        1.313   2.408   0.000   3.721
    4        1.313   2.408   0.000   3.721
    5        1.313   2.407   0.000   3.720
    6        1.314   2.407   0.000   3.721
    7        1.313   2.408   0.000   3.721
    8        1.313   2.408   0.000   3.721
    9        0.258   6.200   8.917  15.375
   10        0.258   6.200   8.917  15.375
   11        0.258   6.200   8.917  15.375
   12        0.258   6.200   8.917  15.375
   13        0.348   6.347   5.816  12.511
   14        0.348   6.347   5.816  12.511
   15        0.348   6.347   5.816  12.511
   16        0.348   6.347   5.816  12.511
--------------------------------------------------
tot         12.933  69.446  58.931 141.311
 


 magnetization (x)
 
# of ion       s       p       d       tot
------------------------------------------
    1        0.000   0.000   0.000   0.000
    2       -0.000  -0.000   0.000  -0.000
    3        0.000  -0.000   0.000   0.000
    4       -0.000   0.000   0.000   0.000
    5       -0.000  -0.000   0.000  -0.000
    6        0.000   0.000   0.000   0.000
    7        0.000  -0.000   0.000   0.000
    8       -0.000   0.000   0.000   0.000
    9        0.000  -0.000   0.000   0.000
   10       -0.000  -0.000   0.000  -0.000
   11        0.000  -0.000   0.000   0.000
   12       -0.000  -0.000   0.000  -0.000
   13        0.000   0.000   0.000   0.000
   14        0.000  -0.000   0.000  -0.000
   15        0.000   0.000   0.000   0.000
   16        0.000  -0.000   0.000  -0.000
--------------------------------------------------
tot          0.000  -0.000   0.000   0.000
 


 magnetization (y)
 
# of ion       s       p       d       tot
------------------------------------------
    1        0.000  -0.000   0.000  -0.000
    2        0.000  -0.000   0.000   0.000
    3       -0.000  -0.000   0.000  -0.000
    4        0.000   0.000   0.000   0.000
    5        0.000  -0.000   0.000   0.000
    6        0.000  -0.000   0.000  -0.000
    7       -0.000  -0.000   0.000  -0.000
    8        0.000   0.000   0.000   0.000
    9       -0.000  -0.000   0.000   0.000
   10       -0.000  -0.000   0.000   0.000
   11       -0.000  -0.000   0.000   0.000
   12       -0.000  -0.000   0.000   0.000
   13        0.000   0.000  -0.000  -0.000
   14        0.000   0.000  -0.000  -0.000
   15        0.000   0.000  -0.000  -0.000
   16        0.000   0.000  -0.000  -0.000
--------------------------------------------------
tot          0.000   0.000  -0.000  -0.000
 


 magnetization (z)
 
# of ion       s       p       d       tot
------------------------------------------
    1        0.000  -0.003   0.000  -0.003
    2        0.000  -0.003   0.000  -0.003
    3       -0.000   0.004   0.000   0.003
    4       -0.000   0.003   0.000   0.002
    5        0.000  -0.003   0.000  -0.003
    6        0.000  -0.003   0.000  -0.003
    7       -0.000   0.004   0.000   0.003
    8       -0.000   0.003   0.000   0.002
    9        0.000   0.000   0.000   0.001
   10       -0.000  -0.000  -0.000  -0.001
   11        0.000   0.000   0.000   0.001
   12       -0.000  -0.000  -0.000  -0.001
   13        0.020   0.054   3.676   3.750
   14       -0.020  -0.054  -3.676  -3.750
   15        0.020   0.054   3.676   3.750
   16       -0.020  -0.054  -3.676  -3.750
--------------------------------------------------
tot          0.000  -0.000   0.000   0.000
 
 BZINTS: Fermi energy:  4.807311;172.000000 electrons
         Band energy:***********;  BLOECHL correction:  0.000000
 BZINTS: Fermi energy:  4.807311;172.000000 electrons
         Band energy:***********;  BLOECHL correction:  0.000000
 BZINTS: Fermi energy:  4.807311;172.000000 electrons
         Band energy:***********;  BLOECHL correction:  0.000000
 BZINTS: Fermi energy:  4.807311;172.000000 electrons
         Band energy:***********;  BLOECHL correction:  0.000000

 total amount of memory used by VASP MPI-rank0    80983. kBytes
=======================================================================

   base      :      30000. kBytes
   nonl-proj :       6196. kBytes
   fftplans  :       1447. kBytes
   grid      :       5898. kBytes
   one-center:         62. kBytes
   wavefun   :      37380. kBytes
 
  
  
 General timing and accounting informations for this job:
 ========================================================
  
                  Total CPU time used (sec):      212.368
                            User time (sec):      203.147
                          System time (sec):        9.221
                         Elapsed time (sec):      217.430
  
                   Maximum memory used (kb):      543620.
                   Average memory used (kb):           0.
  
                          Minor page faults:       180203
                          Major page faults:         2978
                 Voluntary context switches:         6395
