       N       E                     dE             d eps       ncg     rms          rms(c)
DAV:   1     0.601461242786E+04    0.60146E+04   -0.51767E+05 16384   0.196E+03
DAV:   2    -0.125928335292E+03   -0.61405E+04   -0.60336E+04 18944   0.447E+02
DAV:   3    -0.365276985143E+03   -0.23935E+03   -0.23871E+03 22272   0.959E+01
DAV:   4    -0.368610199076E+03   -0.33332E+01   -0.33331E+01 20480   0.114E+01
DAV:   5    -0.368717283044E+03   -0.10708E+00   -0.10708E+00 21248   0.199E+00    0.491E+01
DAV:   6    -0.338230739900E+03    0.30487E+02   -0.35351E+01 25856   0.176E+01    0.279E+01
DAV:   7    -0.330462508119E+03    0.77682E+01   -0.34691E+01 23296   0.181E+01    0.274E+01
DAV:   8    -0.328488107637E+03    0.19744E+01   -0.28414E+01 22528   0.136E+01    0.106E+01
DAV:   9    -0.328114944781E+03    0.37316E+00   -0.87481E+00 21248   0.950E+00    0.635E+00
DAV:  10    -0.328052764335E+03    0.62180E-01   -0.26971E+00 24064   0.406E+00    0.324E+00
DAV:  11    -0.328078191099E+03   -0.25427E-01   -0.34939E-01 18944   0.136E+00    0.126E+00
DAV:  12    -0.328102901369E+03   -0.24710E-01   -0.93649E-02 25344   0.554E-01    0.658E-01
DAV:  13    -0.328107556952E+03   -0.46556E-02   -0.18945E-02 18944   0.339E-01    0.297E-01
DAV:  14    -0.328109870351E+03   -0.23134E-02   -0.57405E-03 23040   0.971E-02    0.191E-01
DAV:  15    -0.328111495278E+03   -0.16249E-02   -0.48479E-03 20992   0.822E-02    0.956E-02
DAV:  16    -0.328112036909E+03   -0.54163E-03   -0.16969E-03 23552   0.445E-02    0.641E-02
DAV:  17    -0.328112277877E+03   -0.24097E-03   -0.12278E-03 21248   0.366E-02    0.344E-02
DAV:  18    -0.328112326183E+03   -0.48306E-04   -0.36462E-04 20480   0.221E-02    0.167E-02
DAV:  19    -0.328112330232E+03   -0.40492E-05   -0.19600E-05 20736   0.664E-03    0.115E-02
DAV:  20    -0.328112331680E+03   -0.14475E-05   -0.82156E-06 23040   0.380E-03    0.497E-03
DAV:  21    -0.328112332231E+03   -0.55089E-06   -0.20085E-06 23040   0.213E-03    0.306E-03
DAV:  22    -0.328112332275E+03   -0.43990E-07   -0.23701E-07 25600   0.790E-04    0.185E-03
DAV:  23    -0.328112332317E+03   -0.42040E-07   -0.66264E-08 22016   0.411E-04    0.863E-04
DAV:  24    -0.328112332349E+03   -0.32160E-07   -0.62311E-08 16384   0.268E-04    0.407E-04
DAV:  25    -0.328112332364E+03   -0.14639E-07   -0.45643E-08 15104   0.219E-04    0.417E-04
DAV:  26    -0.328112332365E+03   -0.18044E-08   -0.31321E-09 15104   0.955E-05
   1 F= -.32811233E+03 E0= -.32811233E+03  d E =0.000000E+00  mag=     0.0000
