 vasp.5.4.4.18Apr17-6-g9f103f2a35 (build Oct 30 2023 17:30:16) complex          
  
 executed on             LinuxIFC date 2024.06.26  18:04:39
 running on  256 total cores
 distrk:  each k-point on  256 cores,    1 groups
 distr:  one band on NCORES_PER_BAND=   1 cores,  256 groups


--------------------------------------------------------------------------------------------------------


 INCAR:
 POTCAR:    PAW_PBE S 06Sep2000                   
 POTCAR:     PAW_PBE Cu_pv 06Sep2000              
 POTCAR:     PAW_PBE Fe_pv 02Aug2007              

 ----------------------------------------------------------------------------- 
|                                                                             |
|           W    W    AA    RRRRR   N    N  II  N    N   GGGG   !!!           |
|           W    W   A  A   R    R  NN   N  II  NN   N  G    G  !!!           |
|           W    W  A    A  R    R  N N  N  II  N N  N  G       !!!           |
|           W WW W  AAAAAA  RRRRR   N  N N  II  N  N N  G  GGG   !            |
|           WW  WW  A    A  R   R   N   NN  II  N   NN  G    G                |
|           W    W  A    A  R    R  N    N  II  N    N   GGGG   !!!           |
|                                                                             |
|      For optimal performance we recommend to set                            |
|        NCORE= 4 - approx SQRT( number of cores)                             |
|      NCORE specifies how many cores store one orbital (NPAR=cpu/NCORE).     |
|      This setting can  greatly improve the performance of VASP for DFT.     |
|      The default,   NCORE=1            might be grossly inefficient         |
|      on modern multi-core architectures or massively parallel machines.     |
|      Do your own testing !!!!                                               |
|      Unfortunately you need to use the default for GW and RPA calculations. |
|      (for HF NCORE is supported but not extensively tested yet)             |
|                                                                             |
 ----------------------------------------------------------------------------- 

 POTCAR:    PAW_PBE S 06Sep2000                   
   SHA256 =  0fc7481fb0695f01bdc6462160264c5c84044ae9ec85a907d398b887a2bc3132 S/
   COPYR  = (c) Copyright 06Sep2000 Georg Kresse                                
   COPYR  = This file is part of the software VASP. Any use, copying, and all ot
   COPYR  = If you do not have a valid VASP license, you may not use, copy or di
   VRHFIN =S : s2p4                                                             
   LEXCH  = PE                                                                  
   EATOM  =   276.8230 eV,   20.3459 Ry                                         
                                                                                
   TITEL  = PAW_PBE S 06Sep2000                                                 
   LULTRA =        F    use ultrasoft PP ?                                      
   IUNSCR =        1    unscreen: 0-lin 1-nonlin 2-no                           
   RPACOR =    1.500    partial core radius                                     
   POMASS =   32.066; ZVAL   =    6.000    mass and valenz                      
   RCORE  =    1.900    outmost cutoff radius                                   
   RWIGS  =    2.200; RWIGS  =    1.164    wigner-seitz radius (au A)           
   ENMAX  =  258.689; ENMIN  =  194.016 eV                                      
   ICORE  =        2    local potential                                         
   LCOR   =        T    correct aug charges                                     
   LPAW   =        T    paw PP                                                  
   EAUG   =  335.092                                                            
   DEXC   =    0.000                                                            
   RMAX   =    1.942    core radius for proj-oper                               
   RAUG   =    1.300    factor for augmentation sphere                          
   RDEP   =    1.954    radius for radial grids                                 
   RDEPT  =    1.744    core radius for aug-charge                              
                                                                                
   Atomic configuration                                                         
    6 entries                                                                   
     n  l   j            E        occ.                                          
     1  0  0.50     -2405.8406   2.0000                                         
     2  0  0.50      -211.7007   2.0000                                         
     2  1  1.50      -156.4958   6.0000                                         
     3  0  0.50       -17.2562   2.0000                                         
     3  1  0.50        -7.0085   4.0000                                         
     3  2  1.50        -6.8029   0.0000                                         
   Description                                                                  
     l       E           TYP  RCUT    TYP  RCUT                                 
     0    -17.2561641     23  1.900                                             
     0    -15.8743224     23  1.900                                             
     1     -7.0085400     23  1.900                                             
     1     -2.7779785     23  1.900                                             
     2     -6.8029130     23  1.900                                             
  local pseudopotential read in
  partial core-charges read in
  partial kinetic energy density read in
  atomic valenz-charges read in
  non local Contribution for L=           0  read in
    real space projection operators read in
  non local Contribution for L=           0  read in
    real space projection operators read in
  non local Contribution for L=           1  read in
    real space projection operators read in
  non local Contribution for L=           1  read in
    real space projection operators read in
    PAW grid and wavefunctions read in
 
   number of l-projection  operators is LMAX  =           4
   number of lm-projection operators is LMMAX =           8
 
 POTCAR:     PAW_PBE Cu_pv 06Sep2000              
   SHA256 =  cb7b504e2ea725fe1f25c85a9ac77d4012ce94cd394135b722c4e25ec297f1cb Cu
   COPYR  = (c) Copyright 06Sep2000 Georg Kresse                                
   COPYR  = This file is part of the software VASP. Any use, copying, and all ot
   COPYR  = If you do not have a valid VASP license, you may not use, copy or di
   VRHFIN =Cu: d10 p1                                                           
   LEXCH  = PE                                                                  
   EATOM  =  4120.1201 eV,  302.8203 Ry                                         
                                                                                
   TITEL  = PAW_PBE Cu_pv 06Sep2000                                             
   LULTRA =        F    use ultrasoft PP ?                                      
   IUNSCR =        1    unscreen: 0-lin 1-nonlin 2-no                           
   RPACOR =    1.500    partial core radius                                     
   POMASS =   63.546; ZVAL   =   17.000    mass and valenz                      
   RCORE  =    2.000    outmost cutoff radius                                   
   RWIGS  =    2.000; RWIGS  =    1.058    wigner-seitz radius (au A)           
   ENMAX  =  368.648; ENMIN  =  276.486 eV                                      
   RCLOC  =    1.304    cutoff for local pot                                    
   LCOR   =        T    correct aug charges                                     
   LPAW   =        T    paw PP                                                  
   EAUG   =  758.233                                                            
   DEXC   =    0.000                                                            
   RMAX   =    2.046    core radius for proj-oper                               
   RAUG   =    1.300    factor for augmentation sphere                          
   RDEP   =    2.025    radius for radial grids                                 
   RDEPT  =    1.558    core radius for aug-charge                              
                                                                                
   Atomic configuration                                                         
    8 entries                                                                   
     n  l   j            E        occ.                                          
     1  0  0.50     -8850.2467   2.0000                                         
     2  0  0.50     -1062.3498   2.0000                                         
     2  1  1.50      -916.8226   6.0000                                         
     3  0  0.50      -114.6929   2.0000                                         
     3  1  1.50       -72.1325   6.0000                                         
     3  2  2.50        -5.0394  10.0000                                         
     4  0  0.50        -4.6097   1.0000                                         
     4  3  2.50        -1.3606   0.0000                                         
   Description                                                                  
     l       E           TYP  RCUT    TYP  RCUT                                 
     1    -72.1324777     23  1.700                                             
     1     -1.3605826     23  1.700                                             
     2     -5.0393776     23  2.000                                             
     2     -6.3999602     23  2.000                                             
     0     -4.6097062     23  1.800                                             
     0     14.1620818     23  1.800                                             
  local pseudopotential read in
  partial core-charges read in
  partial kinetic energy density read in
  atomic valenz-charges read in
  non local Contribution for L=           1  read in
    real space projection operators read in
  non local Contribution for L=           1  read in
    real space projection operators read in
  non local Contribution for L=           2  read in
    real space projection operators read in
  non local Contribution for L=           2  read in
    real space projection operators read in
  non local Contribution for L=           0  read in
    real space projection operators read in
  non local Contribution for L=           0  read in
    real space projection operators read in
    PAW grid and wavefunctions read in
 
   number of l-projection  operators is LMAX  =           6
   number of lm-projection operators is LMMAX =          18
 
 POTCAR:     PAW_PBE Fe_pv 02Aug2007              
   SHA256 =  5d22e414b1f82158bf2c7ecb8b97b28fd0923e48cadc1c3bf74d524558f5dd32 Fe
   COPYR  = (c) Copyright 02Aug2007 Georg Kresse                                
   COPYR  = This file is part of the software VASP. Any use, copying, and all ot
   COPYR  = If you do not have a valid VASP license, you may not use, copy or di
   VRHFIN =Fe:  3pd7s1                                                          
   LEXCH  = PE                                                                  
   EATOM  =  2457.4239 eV,  180.6156 Ry                                         
                                                                                
   TITEL  = PAW_PBE Fe_pv 02Aug2007                                             
   LULTRA =        F    use ultrasoft PP ?                                      
   IUNSCR =        1    unscreen: 0-lin 1-nonlin 2-no                           
   RPACOR =    1.750    partial core radius                                     
   POMASS =   55.847; ZVAL   =   14.000    mass and valenz                      
   RCORE  =    2.200    outmost cutoff radius                                   
   RWIGS  =    2.200; RWIGS  =    1.164    wigner-seitz radius (au A)           
   ENMAX  =  293.238; ENMIN  =  219.928 eV                                      
   ICORE  =        3    local potential                                         
   LCOR   =        T    correct aug charges                                     
   LPAW   =        T    paw PP                                                  
   EAUG   =  578.342                                                            
   DEXC   =    0.000                                                            
   RMAX   =    2.249    core radius for proj-oper                               
   RAUG   =    1.300    factor for augmentation sphere                          
   RDEP   =    2.296    radius for radial grids                                 
   RDEPT  =    1.766    core radius for aug-charge                              
                                                                                
   Atomic configuration                                                         
    8 entries                                                                   
     n  l   j            E        occ.                                          
     1  0  0.50     -6993.8440   2.0000                                         
     2  0  0.50      -814.6047   2.0000                                         
     2  1  1.50      -693.3689   6.0000                                         
     3  0  0.50       -89.4732   2.0000                                         
     3  1  1.50       -55.6373   6.0000                                         
     3  2  2.50        -3.8151   7.0000                                         
     4  0  0.50        -4.2551   1.0000                                         
     4  3  2.50        -1.3606   0.0000                                         
   Description                                                                  
     l       E           TYP  RCUT    TYP  RCUT                                 
     1    -55.6372668     23  2.000                                             
     1     -5.4423304     23  2.000                                             
     2     -3.8151096     23  2.200                                             
     2     -5.1756922     23  2.200                                             
     0     -4.2550951     23  2.200                                             
     0     27.2116520     23  2.200                                             
     3     -1.3605826     23  2.200                                             
  local pseudopotential read in
  partial core-charges read in
  partial kinetic energy density read in
  atomic valenz-charges read in
  non local Contribution for L=           1  read in
    real space projection operators read in
  non local Contribution for L=           1  read in
    real space projection operators read in
  non local Contribution for L=           2  read in
    real space projection operators read in
  non local Contribution for L=           2  read in
    real space projection operators read in
  non local Contribution for L=           0  read in
    real space projection operators read in
  non local Contribution for L=           0  read in
    real space projection operators read in
    PAW grid and wavefunctions read in
 
   number of l-projection  operators is LMAX  =           6
   number of lm-projection operators is LMMAX =          18
 

 ----------------------------------------------------------------------------- 
|                                                                             |
|  ADVICE TO THIS USER RUNNING 'VASP/VAMP'   (HEAR YOUR MASTER'S VOICE ...):  |
|                                                                             |
|      You have a (more or less) 'large supercell' and for larger cells       |
|      it might be more efficient to use real space projection opertators     |
|      So try LREAL= Auto  in the INCAR   file.                               |
|      Mind:          For very  accurate calculation you might also keep the  |
|      reciprocal projection scheme          (i.e. LREAL=.FALSE.)             |
|                                                                             |
 ----------------------------------------------------------------------------- 


 ----------------------------------------------------------------------------- 
|                                                                             |
|  ADVICE TO THIS USER RUNNING 'VASP/VAMP'   (HEAR YOUR MASTER'S VOICE ...):  |
|                                                                             |
|      You enforced a specific xc-type in the INCAR file,                     |
|      a different type was found on the POTCAR file                          |
|          I HOPE YOU KNOW, WHAT YOU ARE  DOING                               |
|                                                                             |
 ----------------------------------------------------------------------------- 

  PAW_PBE S 06Sep2000                   :
 energy of atom  1       EATOM= -276.8230
 kinetic energy error for atom=    0.0007 (will be added to EATOM!!)
   PAW_PBE Cu_pv 06Sep2000              :
 energy of atom  2       EATOM=-4120.1201
 kinetic energy error for atom=    0.0094 (will be added to EATOM!!)
   PAW_PBE Fe_pv 02Aug2007              :
 energy of atom  3       EATOM=-2457.4239
 kinetic energy error for atom=    0.0025 (will be added to EATOM!!)
 
 
 POSCAR: Fe16 Cu16 S32                           
  positions in direct lattice
  velocities in cartesian coordinates
 exchange correlation table for  LEXCH =       14
   RHO(1)=    0.500       N(1)  =     2000
   RHO(2)=  100.500       N(2)  =     4000
 


--------------------------------------------------------------------------------------------------------


 ion  position               nearest neighbor table
   1  0.126  0.126  0.116-  37 2.25  61 2.27  41 2.29  49 2.31
   2  0.626  0.126  0.116-  38 2.25  62 2.27  42 2.29  50 2.31
   3  0.126  0.626  0.116-  39 2.25  63 2.27  43 2.29  51 2.31
   4  0.626  0.626  0.116-  40 2.25  64 2.27  44 2.29  52 2.31
   5  0.374  0.374  0.116-  39 2.25  62 2.27  41 2.29  52 2.31
   6  0.874  0.374  0.116-  40 2.25  61 2.27  42 2.29  51 2.31
   7  0.374  0.874  0.116-  37 2.25  64 2.27  43 2.29  50 2.31
   8  0.874  0.874  0.116-  38 2.25  63 2.27  44 2.29  49 2.31
   9  0.124  0.374  0.866-  41 2.25  51 2.27  45 2.29  55 2.31
  10  0.624  0.374  0.866-  42 2.25  52 2.27  46 2.29  56 2.31
  11  0.124  0.874  0.866-  43 2.25  49 2.27  47 2.29  53 2.31
  12  0.624  0.874  0.866-  44 2.25  50 2.27  48 2.29  54 2.31
  13  0.376  0.126  0.866-  41 2.25  50 2.27  46 2.29  53 2.31
  14  0.876  0.126  0.866-  42 2.25  49 2.27  45 2.29  54 2.31
  15  0.376  0.626  0.866-  43 2.25  52 2.27  48 2.29  55 2.31
  16  0.876  0.626  0.866-  44 2.25  51 2.27  47 2.29  56 2.31
  17  0.124  0.124  0.616-  45 2.25  53 2.27  33 2.29  57 2.31
  18  0.624  0.124  0.616-  46 2.25  54 2.27  34 2.29  58 2.31
  19  0.124  0.624  0.616-  47 2.25  55 2.27  35 2.29  59 2.31
  20  0.624  0.624  0.616-  48 2.25  56 2.27  36 2.29  60 2.31
  21  0.376  0.376  0.616-  46 2.25  55 2.27  36 2.29  57 2.31
  22  0.876  0.376  0.616-  45 2.25  56 2.27  35 2.29  58 2.31
  23  0.376  0.876  0.616-  48 2.25  53 2.27  34 2.29  59 2.31
  24  0.876  0.876  0.616-  47 2.25  54 2.27  33 2.29  60 2.31
  25  0.374  0.124  0.366-  34 2.25  57 2.27  37 2.29  62 2.31
  26  0.874  0.124  0.366-  33 2.25  58 2.27  38 2.29  61 2.31
  27  0.374  0.624  0.366-  36 2.25  59 2.27  39 2.29  64 2.31
  28  0.874  0.624  0.366-  35 2.25  60 2.27  40 2.29  63 2.31
  29  0.126  0.376  0.366-  35 2.25  57 2.27  39 2.29  61 2.31
  30  0.626  0.376  0.366-  36 2.25  58 2.27  40 2.29  62 2.31
  31  0.126  0.876  0.366-  33 2.25  59 2.27  37 2.29  63 2.31
  32  0.626  0.876  0.366-  34 2.25  60 2.27  38 2.29  64 2.31
  33  0.000  0.000  0.508-  31 2.25  26 2.25  24 2.29  17 2.29
  34  0.500  0.000  0.508-  25 2.25  32 2.25  23 2.29  18 2.29
  35  0.000  0.500  0.508-  29 2.25  28 2.25  19 2.29  22 2.29
  36  0.500  0.500  0.508-  27 2.25  30 2.25  20 2.29  21 2.29
  37  0.250  0.000  0.258-   1 2.25   7 2.25  25 2.29  31 2.29
  38  0.750  0.000  0.258-   2 2.25   8 2.25  26 2.29  32 2.29
  39  0.250  0.500  0.258-   5 2.25   3 2.25  27 2.29  29 2.29
  40  0.750  0.500  0.258-   6 2.25   4 2.25  28 2.29  30 2.29
  41  0.250  0.250  0.008-  13 2.25   9 2.25   1 2.29   5 2.29
  42  0.750  0.250  0.008-  14 2.25  10 2.25   2 2.29   6 2.29
  43  0.250  0.750  0.008-  11 2.25  15 2.25   3 2.29   7 2.29
  44  0.750  0.750  0.008-  12 2.25  16 2.25   4 2.29   8 2.29
  45  0.000  0.250  0.758-  17 2.25  22 2.25  14 2.29   9 2.29
  46  0.500  0.250  0.758-  18 2.25  21 2.25  10 2.29  13 2.29
  47  0.000  0.750  0.758-  19 2.25  24 2.25  16 2.29  11 2.29
  48  0.500  0.750  0.758-  20 2.25  23 2.25  12 2.29  15 2.29
  49  0.000  0.000  0.011-  11 2.27  14 2.27   1 2.31   8 2.31
  50  0.500  0.000  0.011-  12 2.27  13 2.27   2 2.31   7 2.31
  51  0.000  0.500  0.011-  16 2.27   9 2.27   6 2.31   3 2.31
  52  0.500  0.500  0.011-  10 2.27  15 2.27   5 2.31   4 2.31
  53  0.250  0.000  0.761-  23 2.27  17 2.27  11 2.31  13 2.31
  54  0.750  0.000  0.761-  24 2.27  18 2.27  12 2.31  14 2.31
  55  0.250  0.500  0.761-  21 2.27  19 2.27   9 2.31  15 2.31
  56  0.750  0.500  0.761-  20 2.27  22 2.27  10 2.31  16 2.31
  57  0.250  0.250  0.511-  29 2.27  25 2.27  21 2.31  17 2.31
  58  0.750  0.250  0.511-  30 2.27  26 2.27  18 2.31  22 2.31
  59  0.250  0.750  0.511-  27 2.27  31 2.27  23 2.31  19 2.31
  60  0.750  0.750  0.511-  28 2.27  32 2.27  20 2.31  24 2.31
  61  0.000  0.250  0.261-   6 2.27   1 2.27  29 2.31  26 2.31
  62  0.500  0.250  0.261-   2 2.27   5 2.27  25 2.31  30 2.31
  63  0.000  0.750  0.261-   8 2.27   3 2.27  31 2.31  28 2.31
  64  0.500  0.750  0.261-   4 2.27   7 2.27  27 2.31  32 2.31
 
  LATTYP: Found a base centered orthorhombic cell.
 ALAT       =    13.5190260571
 B/A-ratio  =     1.1917535576
 C/A-ratio  =     0.7730533046
  
  Lattice vectors:
  
 A1 = (  10.4759190000,   0.9165240000,   0.0000000000)
 A2 = (  -0.9165240000, -10.4759190000,   0.0000000000)
 A3 = (   0.0000000000,   0.0000000000, -10.4509277684)


Analysis of symmetry for initial positions (statically):
=====================================================================
 Subroutine PRICEL returns following result:
 
  LATTYP: Found a face centered orthorhombic cell.
 ALAT       =     6.7595130285
 B/A-ratio  =     1.1917535576
 C/A-ratio  =     1.5461066092
  
  Lattice vectors:
  
 A1 = (  -2.8481107500,  -2.8481107500,   5.2254638842)
 A2 = (  -2.3898487500,   2.3898487500,   5.2254638842)
 A3 = (  -5.2379595000,  -0.4582620000,   0.0000000000)
 
   8 primitive cells build up your supercell.
 

 Routine SETGRP: Setting up the symmetry group for a 
 base centered orthorhombic supercell.


 Subroutine GETGRP returns: Found  4 space group operations
 (whereof  2 operations were pure point group operations)
 out of a pool of  8 trial point group operations.


The static configuration has the point symmetry C_2 .
 The point group associated with its full space group is C_2v.


Analysis of symmetry for dynamics (positions and initial velocities):
=====================================================================
 Subroutine PRICEL returns following result:
 
  LATTYP: Found a face centered orthorhombic cell.
 ALAT       =     6.7595130285
 B/A-ratio  =     1.1917535576
 C/A-ratio  =     1.5461066092
  
  Lattice vectors:
  
 A1 = (  -2.8481107500,  -2.8481107500,   5.2254638842)
 A2 = (  -2.3898487500,   2.3898487500,   5.2254638842)
 A3 = (  -5.2379595000,  -0.4582620000,   0.0000000000)
 
   8 primitive cells build up your supercell.
 

 Routine SETGRP: Setting up the symmetry group for a 
 base centered orthorhombic supercell.


 Subroutine GETGRP returns: Found  4 space group operations
 (whereof  2 operations were pure point group operations)
 out of a pool of  8 trial point group operations.


The dynamic configuration has the point symmetry C_2 .
 The point group associated with its full space group is C_2v.


Analysis of structural, dynamic, and magnetic symmetry:
=====================================================================
 Subroutine PRICEL returns following result:
 
  LATTYP: Found a face centered orthorhombic cell.
 ALAT       =     6.7595130285
 B/A-ratio  =     1.1917535576
 C/A-ratio  =     1.5461066092
  
  Lattice vectors:
  
 A1 = (  -2.8481107500,  -2.8481107500,   5.2254638842)
 A2 = (  -2.3898487500,   2.3898487500,   5.2254638842)
 A3 = (  -5.2379595000,  -0.4582620000,   0.0000000000)
 
   8 primitive cells build up your supercell.
 

 Routine SETGRP: Setting up the symmetry group for a 
 base centered orthorhombic supercell.


 Subroutine GETGRP returns: Found  4 space group operations
 (whereof  2 operations were pure point group operations)
 out of a pool of  8 trial point group operations.


The magnetic configuration has the point symmetry C_2 .
 The point group associated with its full space group is C_2v.


 Subroutine INISYM returns: Found  4 space group operations
 (whereof  2 operations are pure point group operations),
 and found     8 'primitive' translations

 
 
 KPOINTS: Automatic mesh                          

Automatic generation of k-mesh.
Space group operators:
 irot       det(A)        alpha          n_x          n_y          n_z        tau_x        tau_y        tau_z
    1     1.000000     0.000000     1.000000     0.000000     0.000000     0.000000     0.000000     0.000000
    2     1.000000   179.999999     0.000000     0.000000     1.000000     0.000000     0.000000     0.000000
    3    -1.000000   180.000000     0.707107     0.707107     0.000000    -0.750000    -0.000000     0.750000
    4    -1.000000   180.000000     0.707107    -0.707107     0.000000    -0.750000    -0.000000     0.750000
 
 Subroutine IBZKPT returns following result:
 ===========================================
 
 Found     21 irreducible k-points:
 
 Following reciprocal coordinates:
            Coordinates               Weight
  0.000000  0.000000  0.000000      1.000000
  0.250000  0.000000  0.000000      4.000000
  0.500000  0.000000  0.000000      2.000000
  0.250000  0.250000  0.000000      2.000000
  0.500000  0.250000  0.000000      4.000000
 -0.250000  0.250000  0.000000      2.000000
  0.500000  0.500000  0.000000      1.000000
  0.000000  0.000000  0.250000      2.000000
  0.250000  0.000000  0.250000      8.000000
  0.500000  0.000000  0.250000      4.000000
  0.250000  0.250000  0.250000      4.000000
  0.500000  0.250000  0.250000      8.000000
 -0.250000  0.250000  0.250000      4.000000
  0.500000  0.500000  0.250000      2.000000
  0.000000  0.000000  0.500000      1.000000
  0.250000  0.000000  0.500000      4.000000
  0.500000  0.000000  0.500000      2.000000
  0.250000  0.250000  0.500000      2.000000
  0.500000  0.250000  0.500000      4.000000
 -0.250000  0.250000  0.500000      2.000000
  0.500000  0.500000  0.500000      1.000000
 
 Following cartesian coordinates:
            Coordinates               Weight
  0.000000  0.000000  0.000000      1.000000
  0.024048 -0.002104  0.000000      4.000000
  0.048097 -0.004208  0.000000      2.000000
  0.021944  0.021944  0.000000      2.000000
  0.045993  0.019840  0.000000      4.000000
 -0.026152  0.026152  0.000000      2.000000
  0.043889  0.043889  0.000000      1.000000
  0.000000  0.000000  0.023921      2.000000
  0.024048 -0.002104  0.023921      8.000000
  0.048097 -0.004208  0.023921      4.000000
  0.021944  0.021944  0.023921      4.000000
  0.045993  0.019840  0.023921      8.000000
 -0.026152  0.026152  0.023921      4.000000
  0.043889  0.043889  0.023921      2.000000
  0.000000  0.000000  0.047843      1.000000
  0.024048 -0.002104  0.047843      4.000000
  0.048097 -0.004208  0.047843      2.000000
  0.021944  0.021944  0.047843      2.000000
  0.045993  0.019840  0.047843      4.000000
 -0.026152  0.026152  0.047843      2.000000
  0.043889  0.043889  0.047843      1.000000
 
 TETIRR: Found     96 inequivalent tetrahedra from      384
 
 Subroutine IBZKPT_HF returns following result:
 ==============================================
 
 Found     64 k-points in 1st BZ
 the following     64 k-points will be used (e.g. in the exchange kernel)
 Following reciprocal coordinates:   # in IRBZ
  0.000000  0.000000  0.000000    0.01562500   1 t-inv F
  0.250000  0.000000  0.000000    0.01562500   2 t-inv F
  0.500000  0.000000  0.000000    0.01562500   3 t-inv F
  0.250000  0.250000  0.000000    0.01562500   4 t-inv F
  0.500000  0.250000  0.000000    0.01562500   5 t-inv F
 -0.250000  0.250000  0.000000    0.01562500   6 t-inv F
  0.500000  0.500000  0.000000    0.01562500   7 t-inv F
  0.000000  0.000000  0.250000    0.01562500   8 t-inv F
  0.250000  0.000000  0.250000    0.01562500   9 t-inv F
  0.500000  0.000000  0.250000    0.01562500  10 t-inv F
  0.250000  0.250000  0.250000    0.01562500  11 t-inv F
  0.500000  0.250000  0.250000    0.01562500  12 t-inv F
 -0.250000  0.250000  0.250000    0.01562500  13 t-inv F
  0.500000  0.500000  0.250000    0.01562500  14 t-inv F
  0.000000  0.000000  0.500000    0.01562500  15 t-inv F
  0.250000  0.000000  0.500000    0.01562500  16 t-inv F
  0.500000  0.000000  0.500000    0.01562500  17 t-inv F
  0.250000  0.250000  0.500000    0.01562500  18 t-inv F
  0.500000  0.250000  0.500000    0.01562500  19 t-inv F
 -0.250000  0.250000  0.500000    0.01562500  20 t-inv F
  0.500000  0.500000  0.500000    0.01562500  21 t-inv F
 -0.250000  0.000000  0.000000    0.01562500   2 t-inv F
  0.000000 -0.250000  0.000000    0.01562500   2 t-inv F spinflp
  0.000000  0.250000  0.000000    0.01562500   2 t-inv F spinflp
  0.000000 -0.500000  0.000000    0.01562500   3 t-inv F spinflp
 -0.250000 -0.250000  0.000000    0.01562500   4 t-inv F
 -0.500000 -0.250000  0.000000    0.01562500   5 t-inv F
 -0.250000 -0.500000  0.000000    0.01562500   5 t-inv F spinflp
  0.250000  0.500000  0.000000    0.01562500   5 t-inv F spinflp
  0.250000 -0.250000  0.000000    0.01562500   6 t-inv F
 -0.250000  0.000000  0.250000    0.01562500   9 t-inv F
  0.000000 -0.250000  0.250000    0.01562500   9 t-inv F spinflp
  0.000000  0.250000  0.250000    0.01562500   9 t-inv F spinflp
  0.000000 -0.500000  0.250000    0.01562500  10 t-inv F spinflp
 -0.250000 -0.250000  0.250000    0.01562500  11 t-inv F
 -0.500000 -0.250000  0.250000    0.01562500  12 t-inv F
 -0.250000 -0.500000  0.250000    0.01562500  12 t-inv F spinflp
  0.250000  0.500000  0.250000    0.01562500  12 t-inv F spinflp
  0.250000 -0.250000  0.250000    0.01562500  13 t-inv F
 -0.250000  0.000000  0.500000    0.01562500  16 t-inv F
  0.000000 -0.250000  0.500000    0.01562500  16 t-inv F spinflp
  0.000000  0.250000  0.500000    0.01562500  16 t-inv F spinflp
  0.000000 -0.500000  0.500000    0.01562500  17 t-inv F spinflp
 -0.250000 -0.250000  0.500000    0.01562500  18 t-inv F
 -0.500000 -0.250000  0.500000    0.01562500  19 t-inv F
 -0.250000 -0.500000  0.500000    0.01562500  19 t-inv F spinflp
  0.250000  0.500000  0.500000    0.01562500  19 t-inv F spinflp
  0.250000 -0.250000  0.500000    0.01562500  20 t-inv F
  0.000000  0.000000 -0.250000    0.01562500   8 t-inv T
 -0.250000  0.000000 -0.250000    0.01562500   9 t-inv T
  0.250000  0.000000 -0.250000    0.01562500   9 t-inv T
  0.000000  0.250000 -0.250000    0.01562500   9 t-inv T spinflp
  0.000000 -0.250000 -0.250000    0.01562500   9 t-inv T spinflp
 -0.500000  0.000000 -0.250000    0.01562500  10 t-inv T
  0.000000  0.500000 -0.250000    0.01562500  10 t-inv T spinflp
 -0.250000 -0.250000 -0.250000    0.01562500  11 t-inv T
  0.250000  0.250000 -0.250000    0.01562500  11 t-inv T
 -0.500000 -0.250000 -0.250000    0.01562500  12 t-inv T
  0.500000  0.250000 -0.250000    0.01562500  12 t-inv T
  0.250000  0.500000 -0.250000    0.01562500  12 t-inv T spinflp
 -0.250000 -0.500000 -0.250000    0.01562500  12 t-inv T spinflp
  0.250000 -0.250000 -0.250000    0.01562500  13 t-inv T
 -0.250000  0.250000 -0.250000    0.01562500  13 t-inv T
 -0.500000 -0.500000 -0.250000    0.01562500  14 t-inv T


--------------------------------------------------------------------------------------------------------




 Dimension of arrays:
   k-points           NKPTS =     21   k-points in BZ     NKDIM =     21   number of bands    NBANDS=    512
   number of dos      NEDOS =    301   number of ions     NIONS =     64
   non local maximal  LDIM  =      6   non local SUM 2l+1 LMDIM =     18
   total plane-waves  NPLWV = 829440
   max r-space proj   IRMAX =      1   max aug-charges    IRDMAX=  23156
   dimension x,y,z NGX =    96 NGY =   96 NGZ =   90
   dimension x,y,z NGXF=   192 NGYF=  192 NGZF=  180
   support grid    NGXF=   192 NGYF=  192 NGZF=  180
   ions per type =              32  16  16
   NGX,Y,Z   is equivalent  to a cutoff of  15.18, 15.18, 14.32 a.u.
   NGXF,Y,Z  is equivalent  to a cutoff of  30.35, 30.35, 28.63 a.u.

 SYSTEM =  CuFeS2                                  
 POSCAR =  Fe16 Cu16 S32                           

 Startparameter for this run:
   NWRITE =      2    write-flag & timer
   PREC   = accura    normal or accurate (medium, high low for compatibility)
   ISTART =      1    job   : 0-new  1-cont  2-samecut
   ICHARG =      1    charge: 1-file 2-atom 10-const
   ISPIN  =      2    spin polarized calculation?
   LNONCOLLINEAR =      F non collinear calculations
   LSORBIT =      F    spin-orbit coupling
   INIWAV =      1    electr: 0-lowe 1-rand  2-diag
   LASPH  =      F    aspherical Exc in radial PAW
   METAGGA=      F    non-selfconsistent MetaGGA calc.

 Electronic Relaxation 1
   ENCUT  =  700.0 eV  51.45 Ry    7.17 a.u.  22.69 22.69 22.55*2*pi/ulx,y,z
   ENINI  =  700.0     initial cutoff
   ENAUG  =  758.2 eV  augmentation charge cutoff
   NELM   =    500;   NELMIN=  2; NELMDL=  0     # of ELM steps 
   EDIFF  = 0.1E-07   stopping-criterion for ELM
   LREAL  =      F    real-space projection
   NLSPLINE    = F    spline interpolate recip. space projectors
   LCOMPAT=      F    compatible to vasp.4.4
   GGA_COMPAT  = T    GGA compatible to vasp.4.4-vasp.4.6
   LMAXPAW     = -100 max onsite density
   LMAXMIX     =    4 max onsite mixed and CHGCAR
   VOSKOWN=      0    Vosko Wilk Nusair interpolation
   ROPT   =    0.00000   0.00000   0.00000
 Ionic relaxation
   EDIFFG = -.1E-04   stopping-criterion for IOM
   NSW    =      0    number of steps for IOM
   NBLOCK =      1;   KBLOCK =      1    inner block; outer block 
   IBRION =     -1    ionic relax: 0-MD 1-quasi-New 2-CG
   NFREE  =      0    steps in history (QN), initial steepest desc. (CG)
   ISIF   =      2    stress and relaxation
   IWAVPR =     10    prediction:  0-non 1-charg 2-wave 3-comb
   ISYM   =      2    0-nonsym 1-usesym 2-fastsym
   LCORR  =      T    Harris-Foulkes like correction to forces

   POTIM  = 0.5000    time-step for ionic-motion
   TEIN   =    0.0    initial temperature
   TEBEG  =    0.0;   TEEND  =   0.0 temperature during run
   SMASS  =  -3.00    Nose mass-parameter (am)
   estimated Nose-frequenzy (Omega)   =  0.10E-29 period in steps =****** mass=  -0.253E-26a.u.
   SCALEE = 1.0000    scale energy and forces
   NPACO  =    256;   APACO  = 16.0  distance and # of slots for P.C.
   PSTRESS=    0.0 pullay stress

  Mass of Ions in am
   POMASS =  32.07 63.55 55.85
  Ionic Valenz
   ZVAL   =   6.00 17.00 14.00
  Atomic Wigner-Seitz radii
   RWIGS  =  -1.00 -1.00 -1.00
  virtual crystal weights 
   VCA    =   1.00  1.00  1.00
   NELECT =     688.0000    total number of electrons
   NUPDOWN=      -1.0000    fix difference up-down

 DOS related values:
   EMIN   =  10.00;   EMAX   =-10.00  energy-range for DOS
   EFERMI =   0.00
   ISMEAR =    -5;   SIGMA  =   0.03  broadening in eV -4-tet -1-fermi 0-gaus

 Electronic relaxation 2 (details)
   IALGO  =     38    algorithm
   LDIAG  =      T    sub-space diagonalisation (order eigenvalues)
   LSUBROT=      F    optimize rotation matrix (better conditioning)
   TURBO    =      0    0=normal 1=particle mesh
   IRESTART =      0    0=no restart 2=restart with 2 vectors
   NREBOOT  =      0    no. of reboots
   NMIN     =      0    reboot dimension
   EREF     =   0.00    reference energy to select bands
   IMIX   =      4    mixing-type and parameters
     AMIX     =   0.40;   BMIX     =  1.00
     AMIX_MAG =   1.60;   BMIX_MAG =  1.00
     AMIN     =   0.10
     WC   =   100.;   INIMIX=   1;  MIXPRE=   1;  MAXMIX= -45

 Intra band minimization:
   WEIMIN = 0.0000     energy-eigenvalue tresh-hold
   EBREAK =  0.49E-11  absolut break condition
   DEPER  =   0.30     relativ break condition  

   TIME   =   0.40     timestep for ELM

  volume/ion in A,a.u.               =      17.78       120.01
  Fermi-wavevector in a.u.,A,eV,Ry     =   1.384215  2.615787 26.069465  1.916052
  Thomas-Fermi vector in A             =   2.508740
 
 Write flags
   LWAVE        =      T    write WAVECAR
   LDOWNSAMPLE  =      F    k-point downsampling of WAVECAR
   LCHARG       =      T    write CHGCAR
   LVTOT        =      F    write LOCPOT, total local potential
   LVHAR        =      F    write LOCPOT, Hartree potential only
   LELF         =      F    write electronic localiz. function (ELF)
   LORBIT       =     11    0 simple, 1 ext, 2 COOP (PROOUT), +10 PAW based schemes


 Dipole corrections
   LMONO  =      F    monopole corrections only (constant potential shift)
   LDIPOL =      F    correct potential (dipole corrections)
   IDIPOL =      0    1-x, 2-y, 3-z, 4-all directions 
   EPSILON=  1.0000000 bulk dielectric constant

 LDA+U is selected, type is set to LDAUTYPE =  2
   angular momentum for each species LDAUL =     2    2    2
   U (eV)           for each species LDAUU =   0.0  0.1  4.7
   J (eV)           for each species LDAUJ =   0.0  0.0  0.0
 Exchange correlation treatment:
   GGA     =    PS    GGA type
   LEXCH   =    14    internal setting for exchange type
   VOSKOWN=      0    Vosko Wilk Nusair interpolation
   LHFCALC =     F    Hartree Fock is set to
   LHFONE  =     F    Hartree Fock one center treatment
   AEXX    =    0.0000 exact exchange contribution

 Linear response parameters
   LEPSILON=     F    determine dielectric tensor
   LRPA    =     F    only Hartree local field effects (RPA)
   LNABLA  =     F    use nabla operator in PAW spheres
   LVEL    =     F    velocity operator in full k-point grid
   LINTERFAST=   F  fast interpolation
   KINTER  =     0    interpolate to denser k-point grid
   CSHIFT  =0.1000    complex shift for real part using Kramers Kronig
   OMEGAMAX=  -1.0    maximum frequency
   DEG_THRESHOLD= 0.2000000E-02 threshold for treating states as degnerate
   RTIME   =   -0.100 relaxation time in fs
  (WPLASMAI=    0.000 imaginary part of plasma frequency in eV, 0.658/RTIME)
   DFIELD  = 0.0000000 0.0000000 0.0000000 field for delta impulse in time
 
 Orbital magnetization related:
   ORBITALMAG=     F  switch on orbital magnetization
   LCHIMAG   =     F  perturbation theory with respect to B field
   DQ        =  0.001000  dq finite difference perturbation B field
   LLRAUG    =     F  two centre corrections for induced B field

 PEAD related settings:
   LPEAD      =     T    switch on PEAD
   IPEAD      =     4    finite difference order for dpsi/dk
   LCALCPOL   =     T    calculate macroscopic polarization
   LCALCEPS   =     F    calculate dielectric tensor
   EFIELD_PEAD=    0.0000    0.0000    0.0000
   SKIP_EDOTP =     F
   LRPA       =     F
   SKIP_SCF   =     F


--------------------------------------------------------------------------------------------------------


 Static calculation
 charge density and potential will be updated during run
 spin polarized calculation
 Variant of blocked Davidson
 Davidson routine will perform the subspace rotation
 perform sub-space diagonalisation
    after iterative eigenvector-optimisation
 modified Broyden-mixing scheme, WC =      100.0
 initial mixing is a Kerker type mixing with AMIX =  0.4000 and BMIX =      1.0000
 Hartree-type preconditioning will be used
 using additional bands          168
 reciprocal scheme for non local part
 use partial core corrections
 calculate Harris-corrections to forces 
   (improved forces if not selfconsistent)
 use gradient corrections 
 use of overlap-Matrix (Vanderbilt PP)
 Fermi weights with tetrahedron method with Bloechl corrections


--------------------------------------------------------------------------------------------------------


  energy-cutoff  :      700.00
  volume of cell :     1138.16
      direct lattice vectors                 reciprocal lattice vectors
    10.475919000  0.916524000  0.000000000     0.096193308 -0.008415823  0.000000000
     0.916524000 10.475919000  0.000000000    -0.008415823  0.096193308  0.000000000
     0.000000000  0.000000000 10.450927768     0.000000000  0.000000000  0.095685285

  length of vectors
    10.515935295 10.515935295 10.450927768     0.096560751  0.096560751  0.095685285


 
 old parameters found on file WAVECAR:
  energy-cutoff  :      700.00
  volume of cell :     1138.17
      direct lattice vectors                 reciprocal lattice vectors
    10.475919000  0.916524000  0.000000000     0.096193308 -0.008415823  0.000000000
     0.916524000 10.475919000  0.000000000    -0.008415823  0.096193308  0.000000000
     0.000000000  0.000000000 10.451028193     0.000000000  0.000000000  0.095684365

  length of vectors

 
 k-points in units of 2pi/SCALE and weight: Automatic mesh                          
   0.00000000  0.00000000  0.00000000       0.016
   0.02404833 -0.00210396  0.00000000       0.062
   0.04809665 -0.00420791  0.00000000       0.031
   0.02194437  0.02194437  0.00000000       0.031
   0.04599270  0.01984042  0.00000000       0.062
  -0.02615228  0.02615228  0.00000000       0.031
   0.04388874  0.04388874  0.00000000       0.016
   0.00000000  0.00000000  0.02392132       0.031
   0.02404833 -0.00210396  0.02392132       0.125
   0.04809665 -0.00420791  0.02392132       0.062
   0.02194437  0.02194437  0.02392132       0.062
   0.04599270  0.01984042  0.02392132       0.125
  -0.02615228  0.02615228  0.02392132       0.062
   0.04388874  0.04388874  0.02392132       0.031
   0.00000000  0.00000000  0.04784264       0.016
   0.02404833 -0.00210396  0.04784264       0.062
   0.04809665 -0.00420791  0.04784264       0.031
   0.02194437  0.02194437  0.04784264       0.031
   0.04599270  0.01984042  0.04784264       0.062
  -0.02615228  0.02615228  0.04784264       0.031
   0.04388874  0.04388874  0.04784264       0.016
 
 k-points in reciprocal lattice and weights: Automatic mesh                          
   0.00000000  0.00000000  0.00000000       0.016
   0.25000000  0.00000000  0.00000000       0.062
   0.50000000  0.00000000  0.00000000       0.031
   0.25000000  0.25000000  0.00000000       0.031
   0.50000000  0.25000000  0.00000000       0.062
  -0.25000000  0.25000000  0.00000000       0.031
   0.50000000  0.50000000  0.00000000       0.016
   0.00000000  0.00000000  0.25000000       0.031
   0.25000000  0.00000000  0.25000000       0.125
   0.50000000  0.00000000  0.25000000       0.062
   0.25000000  0.25000000  0.25000000       0.062
   0.50000000  0.25000000  0.25000000       0.125
  -0.25000000  0.25000000  0.25000000       0.062
   0.50000000  0.50000000  0.25000000       0.031
   0.00000000  0.00000000  0.50000000       0.016
   0.25000000  0.00000000  0.50000000       0.062
   0.50000000  0.00000000  0.50000000       0.031
   0.25000000  0.25000000  0.50000000       0.031
   0.50000000  0.25000000  0.50000000       0.062
  -0.25000000  0.25000000  0.50000000       0.031
   0.50000000  0.50000000  0.50000000       0.016
 
 position of ions in fractional coordinates (direct lattice) 
   0.12597910  0.12590254  0.11562889
   0.62597910  0.12590254  0.11562889
   0.12597910  0.62590254  0.11562889
   0.62597910  0.62590254  0.11562889
   0.37402090  0.37409746  0.11562889
   0.87402090  0.37409746  0.11562889
   0.37402090  0.87409746  0.11562889
   0.87402090  0.87409746  0.11562889
   0.12409746  0.37402090  0.86562889
   0.62409746  0.37402090  0.86562889
   0.12409746  0.87402090  0.86562889
   0.62409746  0.87402090  0.86562889
   0.37590254  0.12597910  0.86562889
   0.87590254  0.12597910  0.86562889
   0.37590254  0.62597910  0.86562889
   0.87590254  0.62597910  0.86562889
   0.12402090  0.12409746  0.61562889
   0.62402090  0.12409746  0.61562889
   0.12402090  0.62409746  0.61562889
   0.62402090  0.62409746  0.61562889
   0.37597910  0.37590254  0.61562889
   0.87597910  0.37590254  0.61562889
   0.37597910  0.87590254  0.61562889
   0.87597910  0.87590254  0.61562889
   0.37409746  0.12402090  0.36562889
   0.87409746  0.12402090  0.36562889
   0.37409746  0.62402090  0.36562889
   0.87409746  0.62402090  0.36562889
   0.12590254  0.37597910  0.36562889
   0.62590254  0.37597910  0.36562889
   0.12590254  0.87597910  0.36562889
   0.62590254  0.87597910  0.36562889
   0.00000000  0.00000000  0.50819861
   0.50000000  0.00000000  0.50819861
   0.00000000  0.50000000  0.50819861
   0.50000000  0.50000000  0.50819861
   0.25000000  0.00000000  0.25819861
   0.75000000  0.00000000  0.25819861
   0.25000000  0.50000000  0.25819861
   0.75000000  0.50000000  0.25819861
   0.25000000  0.25000000  0.00819861
   0.75000000  0.25000000  0.00819861
   0.25000000  0.75000000  0.00819861
   0.75000000  0.75000000  0.00819861
   0.00000000  0.25000000  0.75819861
   0.50000000  0.25000000  0.75819861
   0.00000000  0.75000000  0.75819861
   0.50000000  0.75000000  0.75819861
   0.00000000  0.00000000  0.01054362
   0.50000000  0.00000000  0.01054362
   0.00000000  0.50000000  0.01054362
   0.50000000  0.50000000  0.01054362
   0.25000000  0.00000000  0.76054362
   0.75000000  0.00000000  0.76054362
   0.25000000  0.50000000  0.76054362
   0.75000000  0.50000000  0.76054362
   0.25000000  0.25000000  0.51054362
   0.75000000  0.25000000  0.51054362
   0.25000000  0.75000000  0.51054362
   0.75000000  0.75000000  0.51054362
   0.00000000  0.25000000  0.26054362
   0.50000000  0.25000000  0.26054362
   0.00000000  0.75000000  0.26054362
   0.50000000  0.75000000  0.26054362
 
 position of ions in cartesian coordinates  (Angst):
   1.43513957  1.43440764  1.20842917
   6.67309907  1.89266964  1.20842917
   1.89340157  6.67236714  1.20842917
   7.13136107  7.13062914  1.20842917
   4.26108193  4.26181386  1.20842917
   9.49904143  4.72007586  1.20842917
   4.71934393  9.49977336  1.20842917
   9.95730343  9.95803536  1.20842917
   1.64283411  4.03195093  9.04662499
   6.88079361  4.49021293  9.04662499
   2.10109611  9.26991043  9.04662499
   7.33905561  9.72817243  9.04662499
   4.05338739  1.66427057  9.04662499
   9.29134689  2.12253257  9.04662499
   4.51164939  6.90223007  9.04662499
   9.74960889  7.36049207  9.04662499
   1.41297118  1.41370311  6.43389305
   6.65093068  1.87196511  6.43389305
   1.87123318  6.65166261  6.43389305
   7.10919268  7.10992461  6.43389305
   4.28325032  4.28251839  6.43389305
   9.52120982  4.74078039  6.43389305
   4.74151232  9.52047789  6.43389305
   9.97947182  9.97873989  6.43389305
   4.03268286  1.64210218  3.82116111
   9.27064236  2.10036418  3.82116111
   4.49094486  6.88006168  3.82116111
   9.72890436  7.33832368  3.82116111
   1.66353864  4.05411932  3.82116111
   6.90149814  4.51238132  3.82116111
   2.12180064  9.29207882  3.82116111
   7.35976014  9.75034082  3.82116111
   0.00000000  0.00000000  5.31114692
   5.23795950  0.45826200  5.31114692
   0.45826200  5.23795950  5.31114692
   5.69622150  5.69622150  5.31114692
   2.61897975  0.22913100  2.69841497
   7.85693925  0.68739300  2.69841497
   3.07724175  5.46709050  2.69841497
   8.31520125  5.92535250  2.69841497
   2.84811075  2.84811075  0.08568303
   8.08607025  3.30637275  0.08568303
   3.30637275  8.08607025  0.08568303
   8.54433225  8.54433225  0.08568303
   0.22913100  2.61897975  7.92387886
   5.46709050  3.07724175  7.92387886
   0.68739300  7.85693925  7.92387886
   5.92535250  8.31520125  7.92387886
   0.00000000  0.00000000  0.11019058
   5.23795950  0.45826200  0.11019058
   0.45826200  5.23795950  0.11019058
   5.69622150  5.69622150  0.11019058
   2.61897975  0.22913100  7.94838640
   7.85693925  0.68739300  7.94838640
   3.07724175  5.46709050  7.94838640
   8.31520125  5.92535250  7.94838640
   2.84811075  2.84811075  5.33565446
   8.08607025  3.30637275  5.33565446
   3.30637275  8.08607025  5.33565446
   8.54433225  8.54433225  5.33565446
   0.22913100  2.61897975  2.72292252
   5.46709050  3.07724175  2.72292252
   0.68739300  7.85693925  2.72292252
   5.92535250  8.31520125  2.72292252
 


--------------------------------------------------------------------------------------------------------


 k-point  1 :   0.0000 0.0000 0.0000  plane waves:   47899
 k-point  2 :   0.2500 0.0000 0.0000  plane waves:   47865
 k-point  3 :   0.5000 0.0000 0.0000  plane waves:   47860
 k-point  4 :   0.2500 0.2500 0.0000  plane waves:   47869
 k-point  5 :   0.5000 0.2500 0.0000  plane waves:   47869
 k-point  6 :  -0.2500 0.2500 0.0000  plane waves:   47877
 k-point  7 :   0.5000 0.5000 0.0000  plane waves:   47928
 k-point  8 :   0.0000 0.0000 0.2500  plane waves:   47817
 k-point  9 :   0.2500 0.0000 0.2500  plane waves:   47870
 k-point 10 :   0.5000 0.0000 0.2500  plane waves:   47880
 k-point 11 :   0.2500 0.2500 0.2500  plane waves:   47862
 k-point 12 :   0.5000 0.2500 0.2500  plane waves:   47865
 k-point 13 :  -0.2500 0.2500 0.2500  plane waves:   47864
 k-point 14 :   0.5000 0.5000 0.2500  plane waves:   47906
 k-point 15 :   0.0000 0.0000 0.5000  plane waves:   47898
 k-point 16 :   0.2500 0.0000 0.5000  plane waves:   47864
 k-point 17 :   0.5000 0.0000 0.5000  plane waves:   47816
 k-point 18 :   0.2500 0.2500 0.5000  plane waves:   47872
 k-point 19 :   0.5000 0.2500 0.5000  plane waves:   47830
 k-point 20 :  -0.2500 0.2500 0.5000  plane waves:   47844
 k-point 21 :   0.5000 0.5000 0.5000  plane waves:   47752

 maximum and minimum number of plane-waves per node :     47928    47752

 maximum number of plane-waves:     47928
 maximum index in each direction: 
   IXMAX=   22   IYMAX=   22   IZMAX=   22
   IXMIN=  -23   IYMIN=  -23   IZMIN=  -23


 serial   3D FFT for wavefunctions
 parallel 3D FFT for charge:
    minimum data exchange during FFTs selected (reduces bandwidth)


 total amount of memory used by VASP MPI-rank0   658257. kBytes
=======================================================================

   base      :      30000. kBytes
   nonl-proj :     485900. kBytes
   fftplans  :       4588. kBytes
   grid      :      69719. kBytes
   one-center:       1990. kBytes
   wavefun   :      66060. kBytes
 
     INWAV:  cpu time   41.0841: real time   41.3649
 Broyden mixing: mesh for mixing (old mesh)
   NGX = 45   NGY = 45   NGZ = 45
  (NGX  =192   NGY  =192   NGZ  =180)
  gives a total of  91125 points

 initial charge density was supplied:
 number of electron     687.9999903 magnetization      -0.0000000
 keeping initial charge density in first step


--------------------------------------------------------------------------------------------------------


 Maximum index for augmentation-charges          897 (set IRDMAX)


--------------------------------------------------------------------------------------------------------


 First call to EWALD:  gamma=   0.170
 Maximum number of real-space cells 3x 3x 3
 Maximum number of reciprocal cells 3x 3x 3

    FEWALD:  cpu time    0.0026: real time    0.0026


--------------------------------------- Iteration      1(   1)  ---------------------------------------


    POTLOK:  cpu time    0.3441: real time    0.3882
    SETDIJ:  cpu time    0.0151: real time    0.0152
     EDDAV:  cpu time  482.7762: real time  486.3126
 BZINTS: Fermi energy:  5.205760;688.000000 electrons
         Band energy:***********;  BLOECHL correction:  0.000000
       DOS:  cpu time    0.0246: real time    0.0251
    CHARGE:  cpu time    2.9398: real time    2.9785
    MIXING:  cpu time    0.0024: real time    0.0025
    --------------------------------------------
      LOOP:  cpu time  486.1023: real time  489.7222

 eigenvalue-minimisations  : 64512
 total energy-change (2. order) :-0.3248196E+03  (-0.6671420E-06)
 number of electron     687.9999903 magnetization      -0.0000000
 augmentation part      282.2894698 magnetization      -0.0000000

 Broyden mixing:
  rms(total) = 0.93573E-03    rms(broyden)= 0.93568E-03
  rms(prec ) = 0.11262E-02
  weight for this iteration     100.00

 Free energy of the ion-electron system (eV)
  ---------------------------------------------------
  alpha Z        PSCENC =      2382.05352563
  Ewald energy   TEWEN  =    -62824.06953258
  -Hartree energ DENC   =    -42726.57274743
  -exchange      EXHF   =         0.00000000
  -V(xc)+E(xc)   XCENC  =      3286.26075959
  PAW double counting   =    111987.27567579  -115676.71662433
  entropy T*S    EENTRO =         0.00000000
  eigenvalues    EBANDS =    -10773.11574285
  atomic energy  EATOM  =    114020.06510763
  Solvation  Ediel_sol  =         0.00000000
  ---------------------------------------------------
  free energy    TOTEN  =      -324.81957856 eV

  energy without entropy =     -324.81957856  energy(sigma->0) =     -324.81957856


--------------------------------------------------------------------------------------------------------




--------------------------------------- Iteration      1(   2)  ---------------------------------------


    POTLOK:  cpu time    0.1468: real time    0.1791
    SETDIJ:  cpu time    0.0129: real time    0.0129
     EDDAV:  cpu time  380.0458: real time  382.7969
 BZINTS: Fermi energy:  5.342300;688.000000 electrons
         Band energy:***********;  BLOECHL correction:  0.000000
       DOS:  cpu time    0.0240: real time    0.0241
    CHARGE:  cpu time    2.9377: real time    2.9578
    MIXING:  cpu time    0.0033: real time    0.0497
    --------------------------------------------
      LOOP:  cpu time  383.1704: real time  386.0206

 eigenvalue-minimisations  : 57344
 total energy-change (2. order) : 0.2379311E-05  (-0.2491956E-06)
 number of electron     687.9999903 magnetization      -0.0000000
 augmentation part      282.2891912 magnetization      -0.0000000

 Broyden mixing:
  rms(total) = 0.56550E-03    rms(broyden)= 0.56549E-03
  rms(prec ) = 0.67421E-03
  weight for this iteration     100.00

 eigenvalues of (default mixing * dielectric matrix)
  average eigenvalue GAMMA=   0.9416
  0.9416

 Free energy of the ion-electron system (eV)
  ---------------------------------------------------
  alpha Z        PSCENC =      2382.05352563
  Ewald energy   TEWEN  =    -62824.06953258
  -Hartree energ DENC   =    -42726.56798011
  -exchange      EXHF   =         0.00000000
  -V(xc)+E(xc)   XCENC  =      3286.26023481
  PAW double counting   =    111987.26792436  -115676.70973578
  entropy T*S    EENTRO =         0.00000000
  eigenvalues    EBANDS =    -10773.11912013
  atomic energy  EATOM  =    114020.06510763
  Solvation  Ediel_sol  =         0.00000000
  ---------------------------------------------------
  free energy    TOTEN  =      -324.81957618 eV

  energy without entropy =     -324.81957618  energy(sigma->0) =     -324.81957618


--------------------------------------------------------------------------------------------------------




--------------------------------------- Iteration      1(   3)  ---------------------------------------


    POTLOK:  cpu time    0.1456: real time    0.1493
    SETDIJ:  cpu time    0.0130: real time    0.0131
     EDDAV:  cpu time  707.3300: real time  711.9934
 BZINTS: Fermi energy:  5.244643;688.000000 electrons
         Band energy:***********;  BLOECHL correction:  0.000000
       DOS:  cpu time    0.0239: real time    0.0240
    CHARGE:  cpu time    3.1088: real time    3.1289
    MIXING:  cpu time    0.0020: real time    0.0050
    --------------------------------------------
      LOOP:  cpu time  710.6234: real time  715.3138

 eigenvalue-minimisations  : 83712
 total energy-change (2. order) : 0.5178881E-06  (-0.4268536E-06)
 number of electron     687.9999903 magnetization      -0.0000000
 augmentation part      282.2894500 magnetization      -0.0000000

 Broyden mixing:
  rms(total) = 0.75531E-03    rms(broyden)= 0.75530E-03
  rms(prec ) = 0.86786E-03
  weight for this iteration     100.00

 eigenvalues of (default mixing * dielectric matrix)
  average eigenvalue GAMMA=   1.0359
  1.7308  0.3411

 Free energy of the ion-electron system (eV)
  ---------------------------------------------------
  alpha Z        PSCENC =      2382.05352563
  Ewald energy   TEWEN  =    -62824.06953258
  -Hartree energ DENC   =    -42726.56944102
  -exchange      EXHF   =         0.00000000
  -V(xc)+E(xc)   XCENC  =      3286.26116654
  PAW double counting   =    111987.26411562  -115676.70344109
  entropy T*S    EENTRO =         0.00000000
  eigenvalues    EBANDS =    -10773.12107638
  atomic energy  EATOM  =    114020.06510763
  Solvation  Ediel_sol  =         0.00000000
  ---------------------------------------------------
  free energy    TOTEN  =      -324.81957566 eV

  energy without entropy =     -324.81957566  energy(sigma->0) =     -324.81957566


--------------------------------------------------------------------------------------------------------




--------------------------------------- Iteration      1(   4)  ---------------------------------------


    POTLOK:  cpu time    0.1500: real time    0.1510
    SETDIJ:  cpu time    0.0129: real time    0.0130
     EDDAV:  cpu time  327.3881: real time  329.8234
 BZINTS: Fermi energy:  5.197977;688.000000 electrons
         Band energy:***********;  BLOECHL correction:  0.000000
       DOS:  cpu time    0.0252: real time    0.0253
    CHARGE:  cpu time    2.9456: real time    2.9653
    MIXING:  cpu time    0.0051: real time    0.0051
    --------------------------------------------
      LOOP:  cpu time  330.5269: real time  332.9831

 eigenvalue-minimisations  : 53760
 total energy-change (2. order) : 0.2626766E-06  (-0.2260206E-06)
 number of electron     687.9999903 magnetization      -0.0000000
 augmentation part      282.2894438 magnetization      -0.0000000

 Broyden mixing:
  rms(total) = 0.13026E-03    rms(broyden)= 0.13023E-03
  rms(prec ) = 0.13928E-03
  weight for this iteration     100.00

 eigenvalues of (default mixing * dielectric matrix)
  average eigenvalue GAMMA=   1.0112
  1.8791  0.8000  0.3546

 Free energy of the ion-electron system (eV)
  ---------------------------------------------------
  alpha Z        PSCENC =      2382.05352563
  Ewald energy   TEWEN  =    -62824.06953258
  -Hartree energ DENC   =    -42726.55175688
  -exchange      EXHF   =         0.00000000
  -V(xc)+E(xc)   XCENC  =      3286.26014143
  PAW double counting   =    111987.25306414  -115676.69237607
  entropy T*S    EENTRO =         0.00000000
  eigenvalues    EBANDS =    -10773.13774869
  atomic energy  EATOM  =    114020.06510763
  Solvation  Ediel_sol  =         0.00000000
  ---------------------------------------------------
  free energy    TOTEN  =      -324.81957540 eV

  energy without entropy =     -324.81957540  energy(sigma->0) =     -324.81957540


--------------------------------------------------------------------------------------------------------




--------------------------------------- Iteration      1(   5)  ---------------------------------------


    POTLOK:  cpu time    0.1528: real time    0.1540
    SETDIJ:  cpu time    0.0140: real time    0.0140
     EDDAV:  cpu time  490.8501: real time  494.2235
 BZINTS: Fermi energy:  5.189009;688.000000 electrons
         Band energy:***********;  BLOECHL correction:  0.000000
       DOS:  cpu time    0.0240: real time    0.0240
    CHARGE:  cpu time    2.9354: real time    2.9555
    MIXING:  cpu time    0.0014: real time    0.0014
    --------------------------------------------
      LOOP:  cpu time  493.9776: real time  497.3725

 eigenvalue-minimisations  : 64512
 total energy-change (2. order) :-0.3565219E-08  (-0.1712050E-07)
 number of electron     687.9999903 magnetization       0.0000000
 augmentation part      282.2892891 magnetization       0.0000000

 Broyden mixing:
  rms(total) = 0.70165E-04    rms(broyden)= 0.70162E-04
  rms(prec ) = 0.74877E-04
  weight for this iteration     100.00

 eigenvalues of (default mixing * dielectric matrix)
  average eigenvalue GAMMA=   1.0244
  1.8646  0.3512  1.0574  0.8245

 Free energy of the ion-electron system (eV)
  ---------------------------------------------------
  alpha Z        PSCENC =      2382.05352563
  Ewald energy   TEWEN  =    -62824.06953258
  -Hartree energ DENC   =    -42726.56322232
  -exchange      EXHF   =         0.00000000
  -V(xc)+E(xc)   XCENC  =      3286.26045331
  PAW double counting   =    111987.29143429  -115676.73285468
  entropy T*S    EENTRO =         0.00000000
  eigenvalues    EBANDS =    -10773.12448668
  atomic energy  EATOM  =    114020.06510763
  Solvation  Ediel_sol  =         0.00000000
  ---------------------------------------------------
  free energy    TOTEN  =      -324.81957540 eV

  energy without entropy =     -324.81957540  energy(sigma->0) =     -324.81957540


--------------------------------------------------------------------------------------------------------




--------------------------------------- Iteration      1(   6)  ---------------------------------------


    POTLOK:  cpu time    0.1458: real time    0.1492
    SETDIJ:  cpu time    0.0130: real time    0.0131
     EDDAV:  cpu time  255.0973: real time  257.0120
 BZINTS: Fermi energy:  5.187538;688.000000 electrons
         Band energy:***********;  BLOECHL correction:  0.000000
       DOS:  cpu time    0.0239: real time    0.0240
    CHARGE:  cpu time    2.9397: real time    2.9595
    MIXING:  cpu time    0.0019: real time    0.0314
    --------------------------------------------
      LOOP:  cpu time  258.2216: real time  260.1892

 eigenvalue-minimisations  : 40192
 total energy-change (2. order) :-0.1300941E-07  (-0.1149437E-08)
 number of electron     687.9999903 magnetization       0.0000000
 augmentation part      282.2893494 magnetization       0.0000000

 Broyden mixing:
  rms(total) = 0.47299E-04    rms(broyden)= 0.47298E-04
  rms(prec ) = 0.50758E-04
  weight for this iteration     100.00

 eigenvalues of (default mixing * dielectric matrix)
  average eigenvalue GAMMA=   1.0577
  1.8063  1.8063  0.3480  0.7274  0.6004

 Free energy of the ion-electron system (eV)
  ---------------------------------------------------
  alpha Z        PSCENC =      2382.05352563
  Ewald energy   TEWEN  =    -62824.06953258
  -Hartree energ DENC   =    -42726.55958406
  -exchange      EXHF   =         0.00000000
  -V(xc)+E(xc)   XCENC  =      3286.26034311
  PAW double counting   =    111987.30476887  -115676.74539024
  entropy T*S    EENTRO =         0.00000000
  eigenvalues    EBANDS =    -10773.12881376
  atomic energy  EATOM  =    114020.06510763
  Solvation  Ediel_sol  =         0.00000000
  ---------------------------------------------------
  free energy    TOTEN  =      -324.81957541 eV

  energy without entropy =     -324.81957541  energy(sigma->0) =     -324.81957541


--------------------------------------------------------------------------------------------------------




--------------------------------------- Iteration      1(   7)  ---------------------------------------


    POTLOK:  cpu time    0.1464: real time    0.1498
    SETDIJ:  cpu time    0.0130: real time    0.0130
     EDDAV:  cpu time  433.6144: real time  436.5590
 BZINTS: Fermi energy:  5.187014;688.000000 electrons
         Band energy:***********;  BLOECHL correction:  0.000000
       DOS:  cpu time    0.0240: real time    0.0241
    --------------------------------------------
      LOOP:  cpu time  433.7977: real time  436.7459

 eigenvalue-minimisations  : 53760
 total energy-change (2. order) : 0.6402843E-09  (-0.1173088E-08)
 number of electron     687.9999903 magnetization       0.0000000
 augmentation part      282.2893494 magnetization       0.0000000

 Free energy of the ion-electron system (eV)
  ---------------------------------------------------
  alpha Z        PSCENC =      2382.05352563
  Ewald energy   TEWEN  =    -62824.06953258
  -Hartree energ DENC   =    -42726.56228609
  -exchange      EXHF   =         0.00000000
  -V(xc)+E(xc)   XCENC  =      3286.26045811
  PAW double counting   =    111987.32087840  -115676.76192184
  entropy T*S    EENTRO =         0.00000000
  eigenvalues    EBANDS =    -10773.12580466
  atomic energy  EATOM  =    114020.06510763
  Solvation  Ediel_sol  =         0.00000000
  ---------------------------------------------------
  free energy    TOTEN  =      -324.81957541 eV

  energy without entropy =     -324.81957541  energy(sigma->0) =     -324.81957541


--------------------------------------------------------------------------------------------------------




 average (electrostatic) potential at core
  the test charge radii are     0.9698  0.8297  0.9500
  (the norm of the test charge is              1.0000)
       1 -86.4822       2 -86.4822       3 -86.4822       4 -86.4822       5 -86.4822
       6 -86.4822       7 -86.4822       8 -86.4822       9 -86.4822      10 -86.4822
      11 -86.4822      12 -86.4822      13 -86.4822      14 -86.4822      15 -86.4822
      16 -86.4822      17 -86.4822      18 -86.4822      19 -86.4822      20 -86.4822
      21 -86.4822      22 -86.4822      23 -86.4822      24 -86.4822      25 -86.4822
      26 -86.4822      27 -86.4822      28 -86.4822      29 -86.4822      30 -86.4822
      31 -86.4822      32 -86.4822      33 -80.5897      34 -80.5897      35 -80.5897
      36 -80.5897      37 -80.5897      38 -80.5897      39 -80.5897      40 -80.5897
      41 -80.5897      42 -80.5897      43 -80.5897      44 -80.5897      45 -80.5897
      46 -80.5897      47 -80.5897      48 -80.5897      49 -80.0429      50 -80.0429
      51 -80.0429      52 -80.0429      53 -80.0429      54 -80.0429      55 -80.0429
      56 -80.0429      57 -80.0429      58 -80.0429      59 -80.0429      60 -80.0429
      61 -80.0429      62 -80.0429      63 -80.0429      64 -80.0429
 
 
 
 E-fermi :   5.1870     XC(G=0): -10.5437     alpha+bet :-10.6623


 spin component 1

 k-point     1 :       0.0000    0.0000    0.0000
  band No.  band energies     occupation 
      1     -64.2061      1.00000
      2     -64.2061      1.00000
      3     -64.2061      1.00000
      4     -64.2061      1.00000
      5     -64.2061      1.00000
      6     -64.2061      1.00000
      7     -64.2061      1.00000
      8     -64.2061      1.00000
      9     -64.1990      1.00000
     10     -64.1990      1.00000
     11     -64.1990      1.00000
     12     -64.1990      1.00000
     13     -64.1990      1.00000
     14     -64.1990      1.00000
     15     -64.1990      1.00000
     16     -64.1990      1.00000
     17     -64.1760      1.00000
     18     -64.1760      1.00000
     19     -64.1760      1.00000
     20     -64.1760      1.00000
     21     -64.1760      1.00000
     22     -64.1760      1.00000
     23     -64.1760      1.00000
     24     -64.1760      1.00000
     25     -64.1673      1.00000
     26     -64.1673      1.00000
     27     -64.1673      1.00000
     28     -64.1673      1.00000
     29     -64.1673      1.00000
     30     -64.1673      1.00000
     31     -64.1673      1.00000
     32     -64.1673      1.00000
     33     -64.1367      1.00000
     34     -64.1367      1.00000
     35     -64.1367      1.00000
     36     -64.1367      1.00000
     37     -64.1367      1.00000
     38     -64.1367      1.00000
     39     -64.1367      1.00000
     40     -64.1367      1.00000
     41     -64.1137      1.00000
     42     -64.1137      1.00000
     43     -64.1137      1.00000
     44     -64.1137      1.00000
     45     -64.1137      1.00000
     46     -64.1137      1.00000
     47     -64.1137      1.00000
     48     -64.1137      1.00000
     49     -51.7841      1.00000
     50     -51.7841      1.00000
     51     -51.7841      1.00000
     52     -51.7841      1.00000
     53     -51.7841      1.00000
     54     -51.7841      1.00000
     55     -51.7841      1.00000
     56     -51.7841      1.00000
     57     -51.6149      1.00000
     58     -51.6149      1.00000
     59     -51.6149      1.00000
     60     -51.6149      1.00000
     61     -51.6149      1.00000
     62     -51.6149      1.00000
     63     -51.6149      1.00000
     64     -51.6149      1.00000
     65     -51.6068      1.00000
     66     -51.6068      1.00000
     67     -51.6068      1.00000
     68     -51.6068      1.00000
     69     -51.6068      1.00000
     70     -51.6068      1.00000
     71     -51.6068      1.00000
     72     -51.6068      1.00000
     73     -47.5893      1.00000
     74     -47.5893      1.00000
     75     -47.5893      1.00000
     76     -47.5893      1.00000
     77     -47.5893      1.00000
     78     -47.5893      1.00000
     79     -47.5893      1.00000
     80     -47.5893      1.00000
     81     -47.5308      1.00000
     82     -47.5307      1.00000
     83     -47.5307      1.00000
     84     -47.5307      1.00000
     85     -47.5307      1.00000
     86     -47.5307      1.00000
     87     -47.5307      1.00000
     88     -47.5307      1.00000
     89     -47.5268      1.00000
     90     -47.5268      1.00000
     91     -47.5268      1.00000
     92     -47.5268      1.00000
     93     -47.5268      1.00000
     94     -47.5268      1.00000
     95     -47.5268      1.00000
     96     -47.5268      1.00000
     97      -9.0219      1.00000
     98      -8.4333      1.00000
     99      -8.3774      1.00000
    100      -8.3538      1.00000
    101      -8.3538      1.00000
    102      -8.3530      1.00000
    103      -8.3530      1.00000
    104      -8.1966      1.00000
    105      -8.1496      1.00000
    106      -8.1369      1.00000
    107      -8.0965      1.00000
    108      -8.0108      1.00000
    109      -8.0108      1.00000
    110      -8.0107      1.00000
    111      -8.0107      1.00000
    112      -7.9465      1.00000
    113      -7.9465      1.00000
    114      -7.9464      1.00000
    115      -7.9464      1.00000
    116      -7.8093      1.00000
    117      -7.7912      1.00000
    118      -7.7431      1.00000
    119      -7.7167      1.00000
    120      -7.6801      1.00000
    121      -7.6049      1.00000
    122      -7.6049      1.00000
    123      -7.6034      1.00000
    124      -7.6034      1.00000
    125      -7.5698      1.00000
    126      -7.5668      1.00000
    127      -7.4924      1.00000
    128      -7.4860      1.00000
    129      -1.9689      1.00000
    130      -1.8666      1.00000
    131      -1.8633      1.00000
    132      -1.8633      1.00000
    133      -1.8409      1.00000
    134      -1.8409      1.00000
    135      -1.8298      1.00000
    136      -1.7964      1.00000
    137      -1.7950      1.00000
    138      -1.7585      1.00000
    139      -1.7564      1.00000
    140      -1.7564      1.00000
    141      -1.7539      1.00000
    142      -1.7539      1.00000
    143      -1.7340      1.00000
    144      -1.7325      1.00000
    145      -1.7236      1.00000
    146      -1.7162      1.00000
    147      -1.6920      1.00000
    148      -1.6817      1.00000
    149      -1.6608      1.00000
    150      -1.6608      1.00000
    151      -1.6604      1.00000
    152      -1.6604      1.00000
    153      -1.6344      1.00000
    154      -1.6177      1.00000
    155      -1.6070      1.00000
    156      -1.6070      1.00000
    157      -1.5826      1.00000
    158      -1.5826      1.00000
    159      -1.5718      1.00000
    160      -1.5476      1.00000
    161      -1.5476      1.00000
    162      -1.5442      1.00000
    163      -1.5442      1.00000
    164      -1.5304      1.00000
    165      -1.5284      1.00000
    166      -1.4442      1.00000
    167      -1.3973      1.00000
    168      -1.3615      1.00000
    169      -1.0654      1.00000
    170      -0.8972      1.00000
    171      -0.6585      1.00000
    172      -0.6076      1.00000
    173      -0.5714      1.00000
    174      -0.4746      1.00000
    175      -0.0969      1.00000
    176      -0.0969      1.00000
    177      -0.0939      1.00000
    178      -0.0939      1.00000
    179      -0.0896      1.00000
    180      -0.0678      1.00000
    181       0.0051      1.00000
    182       0.0825      1.00000
    183       0.0825      1.00000
    184       0.0840      1.00000
    185       0.1014      1.00000
    186       0.1014      1.00000
    187       0.1261      1.00000
    188       0.2092      1.00000
    189       0.2177      1.00000
    190       0.2177      1.00000
    191       0.2196      1.00000
    192       0.2196      1.00000
    193       0.2974      1.00000
    194       0.3955      1.00000
    195       0.4481      1.00000
    196       0.4481      1.00000
    197       0.4670      1.00000
    198       0.4670      1.00000
    199       0.5627      1.00000
    200       0.7370      1.00000
    201       0.8112      1.00000
    202       0.8867      1.00000
    203       0.9497      1.00000
    204       0.9497      1.00000
    205       0.9515      1.00000
    206       0.9515      1.00000
    207       0.9712      1.00000
    208       0.9748      1.00000
    209       0.9864      1.00000
    210       1.0168      1.00000
    211       1.0168      1.00000
    212       1.0293      1.00000
    213       1.0293      1.00000
    214       1.1781      1.00000
    215       1.1781      1.00000
    216       1.1829      1.00000
    217       1.1829      1.00000
    218       1.1923      1.00000
    219       1.2695      1.00000
    220       1.3080      1.00000
    221       1.3437      1.00000
    222       1.3437      1.00000
    223       1.3468      1.00000
    224       1.3468      1.00000
    225       1.3489      1.00000
    226       1.3545      1.00000
    227       1.3878      1.00000
    228       1.4046      1.00000
    229       1.4101      1.00000
    230       1.4122      1.00000
    231       1.4499      1.00000
    232       1.4654      1.00000
    233       1.4654      1.00000
    234       1.4767      1.00000
    235       1.4767      1.00000
    236       1.4857      1.00000
    237       1.6168      1.00000
    238       1.6703      1.00000
    239       1.7750      1.00000
    240       1.7983      1.00000
    241       1.8936      1.00000
    242       1.8980      1.00000
    243       1.9231      1.00000
    244       1.9231      1.00000
    245       1.9330      1.00000
    246       1.9507      1.00000
    247       1.9507      1.00000
    248       1.9845      1.00000
    249       1.9876      1.00000
    250       1.9876      1.00000
    251       1.9936      1.00000
    252       2.0383      1.00000
    253       2.0383      1.00000
    254       2.0444      1.00000
    255       2.2817      1.00000
    256       2.2817      1.00000
    257       2.2853      1.00000
    258       2.3096      1.00000
    259       2.4010      1.00000
    260       2.4010      1.00000
    261       2.4184      1.00000
    262       2.4527      1.00000
    263       2.6821      1.00000
    264       2.7582      1.00000
    265       2.8305      1.00000
    266       2.8305      1.00000
    267       2.8423      1.00000
    268       2.8634      1.00000
    269       2.8753      1.00000
    270       2.8768      1.00000
    271       2.8768      1.00000
    272       2.8894      1.00000
    273       2.8894      1.00000
    274       2.8986      1.00000
    275       2.8986      1.00000
    276       2.8999      1.00000
    277       2.9134      1.00000
    278       2.9429      1.00000
    279       2.9785      1.00000
    280       3.0037      1.00000
    281       3.0507      1.00000
    282       3.0549      1.00000
    283       3.0747      1.00000
    284       3.0747      1.00000
    285       3.0761      1.00000
    286       3.0761      1.00000
    287       3.0927      1.00000
    288       3.1270      1.00000
    289       3.1520      1.00000
    290       3.1852      1.00000
    291       3.2195      1.00000
    292       3.2195      1.00000
    293       3.2720      1.00000
    294       3.2973      1.00000
    295       3.2973      1.00000
    296       3.3180      1.00000
    297       3.3926      1.00000
    298       3.4145      1.00000
    299       3.4183      1.00000
    300       3.4183      1.00000
    301       3.4561      1.00000
    302       3.5642      1.00000
    303       3.6127      1.00000
    304       3.6127      1.00000
    305       3.6784      1.00000
    306       3.6784      1.00000
    307       3.6905      1.00000
    308       3.6995      1.00000
    309       3.6995      1.00000
    310       3.7033      1.00000
    311       3.8070      1.00000
    312       3.8070      1.00000
    313       3.8204      1.00000
    314       3.8453      1.00000
    315       3.8453      1.00000
    316       3.8616      1.00000
    317       3.9556      1.00000
    318       4.0240      1.00000
    319       4.0852      1.00000
    320       4.1170      1.00000
    321       4.1170      1.00000
    322       4.1303      1.00000
    323       4.1334      1.00000
    324       4.1334      1.00000
    325       4.2174      1.00000
    326       4.2318      1.00000
    327       4.2318      1.00000
    328       4.2376      1.00000
    329       4.2695      1.00000
    330       4.3331      1.00000
    331       4.3331      1.00000
    332       4.3607      1.00000
    333       4.4434      1.00000
    334       4.4952      1.00000
    335       4.5356      1.00000
    336       4.6426      1.00000
    337       4.7164      1.00000
    338       4.7164      1.00000
    339       4.7769      1.00000
    340       4.7769      1.00000
    341       4.8196      1.00000
    342       4.9650      1.00000
    343       5.0527      1.00000
    344       5.1459      1.00000
    345       5.7151      0.00000
    346       5.7151      0.00000
    347       5.7877      0.00000
    348       5.7877      0.00000
    349       5.8960      0.00000
    350       5.9792      0.00000
    351       6.0203      0.00000
    352       6.0298      0.00000
    353       6.0879      0.00000
    354       6.0879      0.00000
    355       6.1217      0.00000
    356       6.1277      0.00000
    357       6.2039      0.00000
    358       6.2039      0.00000
    359       6.2160      0.00000
    360       6.2385      0.00000
    361       6.2385      0.00000
    362       6.2923      0.00000
    363       6.2923      0.00000
    364       6.2939      0.00000
    365       6.3039      0.00000
    366       6.3040      0.00000
    367       6.3486      0.00000
    368       6.3486      0.00000
    369       6.3574      0.00000
    370       6.3574      0.00000
    371       6.3813      0.00000
    372       6.4114      0.00000
    373       6.4366      0.00000
    374       6.4493      0.00000
    375       6.5045      0.00000
    376       6.5430      0.00000
    377       6.5752      0.00000
    378       6.5888      0.00000
    379       6.6857      0.00000
    380       6.7338      0.00000
    381       6.7338      0.00000
    382       6.7477      0.00000
    383       6.7477      0.00000
    384       6.9223      0.00000
    385       7.4488      0.00000
    386       8.1209      0.00000
    387       8.5784      0.00000
[...]
   -.410E+02 0.132E+01 0.529E+02   0.418E+02 -.127E+01 -.534E+02   -.786E+00 -.509E-01 0.504E+00   -.839E-04 0.258E-04 0.166E-05
   -.410E+02 0.132E+01 0.529E+02   0.418E+02 -.127E+01 -.534E+02   -.786E+00 -.509E-01 0.504E+00   -.839E-04 0.258E-04 0.166E-05
   -.410E+02 0.132E+01 0.529E+02   0.418E+02 -.127E+01 -.534E+02   -.786E+00 -.509E-01 0.504E+00   -.839E-04 0.258E-04 0.166E-05
   -.410E+02 0.132E+01 0.529E+02   0.418E+02 -.127E+01 -.534E+02   -.786E+00 -.509E-01 0.504E+00   -.839E-04 0.258E-04 0.166E-05
   0.410E+02 -.132E+01 0.529E+02   -.418E+02 0.127E+01 -.534E+02   0.786E+00 0.509E-01 0.504E+00   0.839E-04 -.258E-04 0.166E-05
   0.410E+02 -.132E+01 0.529E+02   -.418E+02 0.127E+01 -.534E+02   0.786E+00 0.509E-01 0.504E+00   0.839E-04 -.258E-04 0.166E-05
   0.410E+02 -.132E+01 0.529E+02   -.418E+02 0.127E+01 -.534E+02   0.786E+00 0.509E-01 0.504E+00   0.839E-04 -.258E-04 0.166E-05
   0.410E+02 -.132E+01 0.529E+02   -.418E+02 0.127E+01 -.534E+02   0.786E+00 0.509E-01 0.504E+00   0.839E-04 -.258E-04 0.166E-05
   0.132E+01 -.410E+02 0.529E+02   -.127E+01 0.418E+02 -.534E+02   -.509E-01 -.786E+00 0.504E+00   0.258E-04 -.839E-04 0.166E-05
   0.132E+01 -.410E+02 0.529E+02   -.127E+01 0.418E+02 -.534E+02   -.509E-01 -.786E+00 0.504E+00   0.258E-04 -.839E-04 0.166E-05
   0.132E+01 -.410E+02 0.529E+02   -.127E+01 0.418E+02 -.534E+02   -.509E-01 -.786E+00 0.504E+00   0.258E-04 -.839E-04 0.166E-05
   0.132E+01 -.410E+02 0.529E+02   -.127E+01 0.418E+02 -.534E+02   -.509E-01 -.786E+00 0.504E+00   0.258E-04 -.839E-04 0.166E-05
   -.132E+01 0.410E+02 0.529E+02   0.127E+01 -.418E+02 -.534E+02   0.509E-01 0.786E+00 0.504E+00   -.258E-04 0.839E-04 0.166E-05
   -.132E+01 0.410E+02 0.529E+02   0.127E+01 -.418E+02 -.534E+02   0.509E-01 0.786E+00 0.504E+00   -.258E-04 0.839E-04 0.166E-05
   -.132E+01 0.410E+02 0.529E+02   0.127E+01 -.418E+02 -.534E+02   0.509E-01 0.786E+00 0.504E+00   -.258E-04 0.839E-04 0.166E-05
   -.132E+01 0.410E+02 0.529E+02   0.127E+01 -.418E+02 -.534E+02   0.509E-01 0.786E+00 0.504E+00   -.258E-04 0.839E-04 0.166E-05
   -.736E-07 0.148E-07 -.621E+02   0.348E-10 -.360E-11 0.596E+02   -.440E-19 0.542E-19 0.247E+01   0.481E-11 -.199E-11 -.288E-03
   -.736E-07 0.148E-07 -.621E+02   0.233E-10 -.114E-10 0.596E+02   -.983E-19 -.813E-19 0.247E+01   -.817E-11 0.115E-10 -.288E-03
   -.736E-07 0.148E-07 -.621E+02   -.203E-10 -.775E-11 0.596E+02   0.440E-19 -.298E-18 0.247E+01   0.320E-11 -.282E-11 -.288E-03
   -.736E-07 0.148E-07 -.621E+02   -.321E-10 -.156E-10 0.596E+02   0.745E-19 -.542E-19 0.247E+01   -.180E-11 -.792E-11 -.288E-03
   0.148E-07 -.736E-07 -.621E+02   -.725E-11 -.134E-10 0.596E+02   0.335E-19 -.203E-18 0.247E+01   -.542E-11 0.407E-11 -.288E-03
   0.148E-07 -.736E-07 -.621E+02   -.121E-11 0.966E-12 0.596E+02   0.138E-18 0.200E-18 0.247E+01   0.128E-10 0.163E-11 -.288E-03
   0.148E-07 -.737E-07 -.621E+02   -.151E-10 -.248E-10 0.596E+02   -.381E-19 0.169E-19 0.247E+01   -.105E-11 -.385E-11 -.288E-03
   0.148E-07 -.736E-07 -.621E+02   -.907E-11 -.109E-10 0.596E+02   -.103E-18 0.166E-18 0.247E+01   0.669E-11 -.535E-11 -.288E-03
   -.736E-07 0.148E-07 -.621E+02   -.895E-11 0.171E-10 0.596E+02   0.102E-18 -.217E-18 0.247E+01   0.136E-11 0.608E-12 -.288E-03
   -.736E-07 0.148E-07 -.621E+02   -.778E-11 -.344E-11 0.596E+02   -.122E-18 0.163E-18 0.247E+01   -.873E-12 -.685E-11 -.288E-03
   -.736E-07 0.148E-07 -.621E+02   0.529E-11 0.231E-10 0.596E+02   -.339E-19 -.163E-18 0.247E+01   0.330E-11 -.116E-11 -.288E-03
   -.736E-07 0.148E-07 -.621E+02   0.628E-11 0.247E-11 0.596E+02   0.813E-19 0.163E-18 0.247E+01   -.739E-11 -.290E-11 -.288E-03
   0.148E-07 -.736E-07 -.621E+02   0.205E-10 0.395E-10 0.596E+02   0.544E-18 0.440E-19 0.247E+01   0.136E-10 0.288E-11 -.288E-03
   0.148E-07 -.737E-07 -.621E+02   0.163E-10 -.158E-10 0.596E+02   0.360E-19 -.305E-19 0.247E+01   -.124E-10 0.307E-12 -.288E-03
   0.148E-07 -.736E-07 -.621E+02   0.199E-13 0.404E-10 0.596E+02   -.536E-18 0.169E-19 0.247E+01   0.168E-10 -.129E-10 -.288E-03
   0.148E-07 -.736E-07 -.621E+02   -.410E-11 -.149E-10 0.596E+02   -.426E-19 0.644E-19 0.247E+01   -.103E-10 0.106E-11 -.288E-03
   0.191E-07 0.479E-07 -.501E+02   -.286E-10 0.407E-11 0.472E+02   -.407E-19 -.651E-18 0.285E+01   0.101E-10 0.306E-11 -.426E-04
   0.191E-07 0.479E-07 -.501E+02   -.182E-10 0.921E-11 0.472E+02   -.352E-18 -.867E-18 0.285E+01   -.778E-11 -.235E-11 -.426E-04
   0.191E-07 0.479E-07 -.501E+02   0.167E-10 0.726E-11 0.472E+02   0.325E-18 -.651E-18 0.285E+01   0.923E-11 -.197E-11 -.426E-04
   0.191E-07 0.479E-07 -.501E+02   0.271E-10 0.125E-10 0.472E+02   0.203E-18 -.217E-18 0.285E+01   -.117E-10 0.250E-11 -.426E-04
   0.479E-07 0.191E-07 -.501E+02   0.625E-11 0.103E-10 0.472E+02   0.922E-18 -.173E-17 0.285E+01   0.335E-11 -.112E-11 -.426E-04
   0.479E-07 0.191E-07 -.501E+02   0.173E-11 -.906E-12 0.472E+02   -.136E-17 0.542E-18 0.285E+01   -.957E-11 0.173E-11 -.426E-04
   0.479E-07 0.191E-07 -.501E+02   0.114E-10 0.206E-10 0.472E+02   -.379E-18 -.434E-18 0.285E+01   -.325E-12 0.117E-12 -.426E-04
   0.479E-07 0.192E-07 -.501E+02   0.705E-11 0.932E-11 0.472E+02   0.590E-18 0.325E-18 0.285E+01   -.220E-11 0.734E-12 -.426E-04
   0.191E-07 0.479E-07 -.501E+02   0.636E-11 -.147E-10 0.472E+02   -.312E-18 0.000E+00 0.285E+01   -.251E-11 0.470E-11 -.426E-04
   0.191E-07 0.479E-07 -.501E+02   0.605E-11 0.238E-11 0.472E+02   0.651E-18 0.108E-17 0.285E+01   0.159E-11 0.100E-10 -.426E-04
   0.191E-07 0.479E-07 -.501E+02   -.476E-11 -.189E-10 0.472E+02   -.949E-19 -.108E-18 0.285E+01   -.539E-11 -.290E-11 -.426E-04
   0.191E-07 0.479E-07 -.501E+02   -.531E-11 -.212E-11 0.472E+02   -.298E-18 0.000E+00 0.285E+01   0.942E-11 -.554E-11 -.426E-04
   0.479E-07 0.191E-07 -.501E+02   -.165E-10 -.326E-10 0.472E+02   0.150E-17 -.108E-18 0.285E+01   0.974E-12 0.246E-11 -.426E-04
   0.479E-07 0.191E-07 -.501E+02   -.133E-10 0.126E-10 0.472E+02   0.603E-18 -.108E-17 0.285E+01   -.441E-11 0.441E-11 -.426E-04
   0.479E-07 0.191E-07 -.501E+02   0.381E-12 -.332E-10 0.472E+02   0.108E-17 0.867E-18 0.285E+01   0.206E-11 0.455E-11 -.426E-04
   0.479E-07 0.192E-07 -.501E+02   0.384E-11 0.122E-10 0.472E+02   -.325E-18 0.000E+00 0.285E+01   -.644E-11 -.435E-11 -.426E-04
 -----------------------------------------------------------------------------------------------
   0.743E-07 0.743E-07 -.101E+03   0.371E-12 0.249E-12 -.148E-11   0.655E-15 0.288E-14 0.101E+03   0.248E-11 -.718E-11 -.523E-02
 
 
 POSITION                                       TOTAL-FORCE (eV/Angst)
 -----------------------------------------------------------------------------------
      1.43514      1.43441      1.20843        -0.000016      0.000111      0.000066
      6.67310      1.89267      1.20843        -0.000016      0.000111      0.000066
      1.89340      6.67237      1.20843        -0.000016      0.000111      0.000066
      7.13136      7.13063      1.20843        -0.000016      0.000111      0.000066
      4.26108      4.26181      1.20843         0.000016     -0.000111      0.000066
      9.49904      4.72008      1.20843         0.000016     -0.000111      0.000066
      4.71934      9.49977      1.20843         0.000016     -0.000111      0.000066
      9.95730      9.95804      1.20843         0.000016     -0.000111      0.000066
      1.64283      4.03195      9.04662        -0.000111      0.000016      0.000066
      6.88079      4.49021      9.04662        -0.000111      0.000016      0.000066
      2.10110      9.26991      9.04662        -0.000111      0.000016      0.000066
      7.33906      9.72817      9.04662        -0.000111      0.000016      0.000066
      4.05339      1.66427      9.04662         0.000111     -0.000016      0.000066
      9.29135      2.12253      9.04662         0.000111     -0.000016      0.000066
      4.51165      6.90223      9.04662         0.000111     -0.000016      0.000066
      9.74961      7.36049      9.04662         0.000111     -0.000016      0.000066
      1.41297      1.41370      6.43389         0.000016     -0.000111      0.000066
      6.65093      1.87197      6.43389         0.000016     -0.000111      0.000066
      1.87123      6.65166      6.43389         0.000016     -0.000111      0.000066
      7.10919      7.10992      6.43389         0.000016     -0.000111      0.000066
      4.28325      4.28252      6.43389        -0.000016      0.000111      0.000066
      9.52121      4.74078      6.43389        -0.000016      0.000111      0.000066
      4.74151      9.52048      6.43389        -0.000016      0.000111      0.000066
      9.97947      9.97874      6.43389        -0.000016      0.000111      0.000066
      4.03268      1.64210      3.82116        -0.000111      0.000016      0.000066
      9.27064      2.10036      3.82116        -0.000111      0.000016      0.000066
      4.49094      6.88006      3.82116        -0.000111      0.000016      0.000066
      9.72890      7.33832      3.82116        -0.000111      0.000016      0.000066
      1.66354      4.05412      3.82116         0.000111     -0.000016      0.000066
      6.90150      4.51238      3.82116         0.000111     -0.000016      0.000066
      2.12180      9.29208      3.82116         0.000111     -0.000016      0.000066
      7.35976      9.75034      3.82116         0.000111     -0.000016      0.000066
      0.00000      0.00000      5.31115         0.000000     -0.000000     -0.000465
      5.23796      0.45826      5.31115        -0.000000     -0.000000     -0.000465
      0.45826      5.23796      5.31115         0.000000     -0.000000     -0.000465
      5.69622      5.69622      5.31115         0.000000     -0.000000     -0.000465
      2.61898      0.22913      2.69841         0.000000     -0.000000     -0.000465
      7.85694      0.68739      2.69841         0.000000     -0.000000     -0.000465
      3.07724      5.46709      2.69841         0.000000     -0.000000     -0.000465
      8.31520      5.92535      2.69841        -0.000000     -0.000000     -0.000465
      2.84811      2.84811      0.08568         0.000000     -0.000000     -0.000465
      8.08607      3.30637      0.08568         0.000000     -0.000000     -0.000465
      3.30637      8.08607      0.08568        -0.000000     -0.000000     -0.000465
      8.54433      8.54433      0.08568         0.000000     -0.000000     -0.000465
      0.22913      2.61898      7.92388         0.000000     -0.000000     -0.000465
      5.46709      3.07724      7.92388        -0.000000     -0.000000     -0.000465
      0.68739      7.85694      7.92388        -0.000000     -0.000000     -0.000465
      5.92535      8.31520      7.92388         0.000000     -0.000000     -0.000465
      0.00000      0.00000      0.11019         0.000000     -0.000000      0.000333
      5.23796      0.45826      0.11019        -0.000000     -0.000000      0.000333
      0.45826      5.23796      0.11019        -0.000000     -0.000000      0.000333
      5.69622      5.69622      0.11019        -0.000000     -0.000000      0.000333
      2.61898      0.22913      7.94839         0.000000     -0.000000      0.000333
      7.85694      0.68739      7.94839        -0.000000     -0.000000      0.000333
      3.07724      5.46709      7.94839        -0.000000     -0.000000      0.000333
      8.31520      5.92535      7.94839         0.000000     -0.000000      0.000333
      2.84811      2.84811      5.33565        -0.000000     -0.000000      0.000333
      8.08607      3.30637      5.33565        -0.000000     -0.000000      0.000333
      3.30637      8.08607      5.33565        -0.000000     -0.000000      0.000333
      8.54433      8.54433      5.33565         0.000000     -0.000000      0.000333
      0.22913      2.61898      2.72292        -0.000000     -0.000000      0.000333
      5.46709      3.07724      2.72292        -0.000000     -0.000000      0.000333
      0.68739      7.85694      2.72292         0.000000     -0.000000      0.000333
      5.92535      8.31520      2.72292        -0.000000     -0.000000      0.000333
 -----------------------------------------------------------------------------------
    total drift:                                0.000000      0.000000     -0.001842


--------------------------------------------------------------------------------------------------------



  FREE ENERGIE OF THE ION-ELECTRON SYSTEM (eV)
  ---------------------------------------------------
  free  energy   TOTEN  =      -324.81957541 eV

  energy  without entropy=     -324.81957541  energy(sigma->0) =     -324.81957541
 


--------------------------------------------------------------------------------------------------------


    POTLOK:  cpu time    0.1733: real time    0.1742


--------------------------------------------------------------------------------------------------------


 writing wavefunctions
     LOOP+:  cpu time 3695.6677: real time 4339.4139
    4ORBIT:  cpu time    0.0000: real time    0.0000
 


 total charge     
 
# of ion       s       p       d       tot
------------------------------------------
    1        1.317   2.400   0.000   3.717
    2        1.317   2.400   0.000   3.717
    3        1.317   2.400   0.000   3.717
    4        1.317   2.400   0.000   3.717
    5        1.317   2.400   0.000   3.717
    6        1.317   2.400   0.000   3.717
    7        1.317   2.400   0.000   3.717
    8        1.317   2.400   0.000   3.717
    9        1.317   2.400   0.000   3.717
   10        1.317   2.400   0.000   3.717
   11        1.317   2.400   0.000   3.717
   12        1.317   2.400   0.000   3.717
   13        1.317   2.400   0.000   3.717
   14        1.317   2.400   0.000   3.717
   15        1.317   2.400   0.000   3.717
   16        1.317   2.400   0.000   3.717
   17        1.317   2.400   0.000   3.717
   18        1.317   2.400   0.000   3.717
   19        1.317   2.400   0.000   3.717
   20        1.317   2.400   0.000   3.717
   21        1.317   2.400   0.000   3.717
   22        1.317   2.400   0.000   3.717
   23        1.317   2.400   0.000   3.717
   24        1.317   2.400   0.000   3.717
   25        1.317   2.400   0.000   3.717
   26        1.317   2.400   0.000   3.717
   27        1.317   2.400   0.000   3.717
   28        1.317   2.400   0.000   3.717
   29        1.317   2.400   0.000   3.717
   30        1.317   2.400   0.000   3.717
   31        1.317   2.400   0.000   3.717
   32        1.317   2.400   0.000   3.717
   33        0.256   6.199   8.916  15.371
   34        0.256   6.199   8.916  15.371
   35        0.256   6.199   8.916  15.371
   36        0.256   6.199   8.916  15.371
   37        0.256   6.199   8.917  15.372
   38        0.256   6.199   8.917  15.372
   39        0.256   6.199   8.917  15.372
   40        0.256   6.199   8.917  15.372
   41        0.256   6.199   8.916  15.371
   42        0.256   6.199   8.916  15.371
   43        0.256   6.199   8.916  15.371
   44        0.256   6.199   8.916  15.371
   45        0.256   6.199   8.917  15.372
   46        0.256   6.199   8.917  15.372
   47        0.256   6.199   8.917  15.372
   48        0.256   6.199   8.917  15.372
   49        0.342   6.339   5.827  12.507
   50        0.342   6.339   5.827  12.507
   51        0.342   6.339   5.827  12.507
   52        0.342   6.339   5.827  12.507
   53        0.342   6.339   5.827  12.507
   54        0.342   6.339   5.827  12.507
   55        0.342   6.339   5.827  12.507
   56        0.342   6.339   5.827  12.507
   57        0.342   6.339   5.827  12.507
   58        0.342   6.339   5.827  12.507
   59        0.342   6.339   5.827  12.507
   60        0.342   6.339   5.827  12.507
   61        0.342   6.339   5.827  12.507
   62        0.342   6.339   5.827  12.507
   63        0.342   6.339   5.827  12.507
   64        0.342   6.339   5.827  12.507
--------------------------------------------------
tot         51.713 277.394 235.890 564.997
 


 magnetization (x)
 
# of ion       s       p       d       tot
------------------------------------------
    1       -0.002  -0.043   0.000  -0.046
    2       -0.002  -0.043   0.000  -0.046
    3       -0.002  -0.043   0.000  -0.046
    4       -0.002  -0.043   0.000  -0.046
    5       -0.002  -0.043   0.000  -0.046
    6       -0.002  -0.043   0.000  -0.046
    7       -0.002  -0.043   0.000  -0.046
    8       -0.002  -0.043   0.000  -0.046
    9        0.002   0.044   0.000   0.046
   10        0.002   0.044   0.000   0.046
   11        0.002   0.044   0.000   0.046
   12        0.002   0.044   0.000   0.046
   13        0.002   0.043   0.000   0.046
   14        0.002   0.043   0.000   0.046
   15        0.002   0.043   0.000   0.046
   16        0.002   0.043   0.000   0.046
   17       -0.002  -0.043   0.000  -0.046
   18       -0.002  -0.043   0.000  -0.046
   19       -0.002  -0.043   0.000  -0.046
   20       -0.002  -0.043   0.000  -0.046
   21       -0.002  -0.043   0.000  -0.046
   22       -0.002  -0.043   0.000  -0.046
   23       -0.002  -0.043   0.000  -0.046
   24       -0.002  -0.043   0.000  -0.046
   25        0.002   0.044   0.000   0.046
   26        0.002   0.044   0.000   0.046
   27        0.002   0.044   0.000   0.046
   28        0.002   0.044   0.000   0.046
   29        0.002   0.043   0.000   0.046
   30        0.002   0.043   0.000   0.046
   31        0.002   0.043   0.000   0.046
   32        0.002   0.043   0.000   0.046
   33       -0.000  -0.002   0.010   0.008
   34       -0.000  -0.002   0.010   0.008
   35       -0.000  -0.002   0.010   0.008
   36       -0.000  -0.002   0.010   0.008
   37        0.000   0.002  -0.011  -0.009
   38        0.000   0.002  -0.011  -0.009
   39        0.000   0.002  -0.011  -0.009
   40        0.000   0.002  -0.011  -0.009
   41       -0.000  -0.002   0.010   0.008
   42       -0.000  -0.002   0.010   0.008
   43       -0.000  -0.002   0.010   0.008
   44       -0.000  -0.002   0.010   0.008
   45        0.000   0.002  -0.011  -0.009
   46        0.000   0.002  -0.011  -0.009
   47        0.000   0.002  -0.011  -0.009
   48        0.000   0.002  -0.011  -0.009
   49        0.020   0.052   3.662   3.734
   50        0.020   0.052   3.662   3.734
   51        0.020   0.052   3.662   3.734
   52        0.020   0.052   3.662   3.734
   53       -0.021  -0.052  -3.662  -3.734
   54       -0.021  -0.052  -3.662  -3.734
   55       -0.021  -0.052  -3.662  -3.734
   56       -0.021  -0.052  -3.662  -3.734
   57        0.020   0.052   3.662   3.734
   58        0.020   0.052   3.662   3.734
   59        0.020   0.052   3.662   3.734
   60        0.020   0.052   3.662   3.734
   61       -0.021  -0.052  -3.662  -3.734
   62       -0.021  -0.052  -3.662  -3.734
   63       -0.021  -0.052  -3.662  -3.734
   64       -0.021  -0.052  -3.662  -3.734
--------------------------------------------------
tot         -0.002   0.002  -0.003  -0.003
 
 BZINTS: Fermi energy:  5.187014;688.000000 electrons
         Band energy:***********;  BLOECHL correction:  0.000000

 total amount of memory used by VASP MPI-rank0   658257. kBytes
=======================================================================

   base      :      30000. kBytes
   nonl-proj :     485900. kBytes
   fftplans  :       4588. kBytes
   grid      :      69719. kBytes
   one-center:       1990. kBytes
   wavefun   :      66060. kBytes
 
  
  
 General timing and accounting informations for this job:
 ========================================================
  
                  Total CPU time used (sec):     3806.503
                            User time (sec):     3783.751
                          System time (sec):       22.752
                         Elapsed time (sec):     4451.812
  
                   Maximum memory used (kb):     1153580.
                   Average memory used (kb):           0.
  
                          Minor page faults:       694563
                          Major page faults:         4652
                 Voluntary context switches:         8118
