       N       E                     dE             d eps       ncg     rms          ort
SDA:   1    -0.819441897285E+02   -0.81944E+02    0.00000E+00  4784   0.632E-05 0.000E+00
CGA:   2    -0.819441917650E+02   -0.20364E-05   -0.58182E-07  4784   0.470E-05 0.544E-05
CGA:   3    -0.819441931746E+02   -0.14097E-05   -0.41267E-07  4784   0.369E-05 0.415E-05
CGA:   4    -0.819441942420E+02   -0.10674E-05   -0.33377E-07  4784   0.302E-05 0.333E-05
CGA:   5    -0.819441951056E+02   -0.86363E-06   -0.30448E-07  4784   0.251E-05 0.274E-05
CGA:   6    -0.819441958527E+02   -0.74704E-06   -0.31682E-07  4784   0.207E-05 0.225E-05
CGA:   7    -0.819441966392E+02   -0.78652E-06   -0.44274E-07  4784   0.160E-05 0.179E-05
CGA:   8    -0.819441966837E+02   -0.44553E-07   -0.25299E-06  4784   0.167E-05-0.539E-06
CGA:   9    -0.819441968913E+02   -0.20760E-06   -0.59487E-08  4784   0.155E-05 0.888E-06
CGA:  10    -0.819441972226E+02   -0.33129E-06   -0.88254E-08  4784   0.128E-05 0.141E-05
CGA:  11    -0.819441975085E+02   -0.28582E-06   -0.78288E-08  4784   0.106E-05 0.116E-05
CGA:  12    -0.819441977671E+02   -0.25869E-06   -0.71749E-08  4784   0.902E-06 0.974E-06
CGA:  13    -0.819441980069E+02   -0.23978E-06   -0.68127E-08  4784   0.706E-06 0.777E-06
CGA:  14    -0.819441982371E+02   -0.23016E-06   -0.60054E-08  4784   0.591E-06 0.637E-06
CGA:  15    -0.819441984625E+02   -0.22544E-06   -0.55650E-08  4784   0.632E-06 0.448E-06
CGA:  16    -0.819441985833E+02   -0.12082E-06   -0.36103E-08  4784   0.556E-06 0.239E-06
CGA:  17    -0.819441987079E+02   -0.12452E-06   -0.27031E-08  4784   0.474E-06 0.651E-06
CGA:  18    -0.819441988072E+02   -0.99297E-07   -0.30454E-08  4784   0.404E-06 0.181E-06
CGA:  19    -0.819441988856E+02   -0.78446E-07   -0.18621E-08  4784   0.390E-06 0.518E-06
CGA:  20    -0.819441989316E+02   -0.45948E-07   -0.17565E-08  4784   0.412E-06 0.112E-06
CGA:  21    -0.819441990134E+02   -0.81840E-07   -0.16248E-08  4784   0.373E-06 0.502E-06
CGA:  22    -0.819441991074E+02   -0.94033E-07   -0.16299E-08  4784   0.397E-06 0.564E-07
CGA:  23    -0.819441994051E+02   -0.29763E-06   -0.11009E-08  4784   0.346E-06 0.363E-06
CGA:  24    -0.819441994000E+02    0.50204E-08   -0.76120E-09  4784   0.217E-06 0.171E-06
   1 F= -.81944199E+02 E0= -.81944199E+02  d E =0.000000E+00  mag=    -0.0000     0.0000    -0.0000
