 vasp.5.4.4.18Apr17-6-g9f103f2a35 (build Oct 04 2018 15:53:47) complex          
  
 executed on             LinuxIFC date 2022.10.07  15:46:26
 running on  256 total cores
 distrk:  each k-point on  256 cores,    1 groups
 distr:  one band on NCORES_PER_BAND=  32 cores,    8 groups


--------------------------------------------------------------------------------------------------------


 INCAR:
 POTCAR:    PAW_PBE S 06Sep2000                   
 POTCAR:     PAW_PBE Cu_pv 06Sep2000              
 POTCAR:     PAW_PBE Fe_pv 02Aug2007              
 POTCAR:    PAW_PBE S 06Sep2000                   
   SHA256 =  0fc7481fb0695f01bdc6462160264c5c84044ae9ec85a907d398b887a2bc3132 S/
   COPYR  = (c) Copyright 06Sep2000 Georg Kresse                                
   COPYR  = This file is part of the software VASP. Any use, copying, and all ot
   COPYR  = If you do not have a valid VASP license, you may not use, copy or di
   VRHFIN =S : s2p4                                                             
   LEXCH  = PE                                                                  
   EATOM  =   276.8230 eV,   20.3459 Ry                                         
                                                                                
   TITEL  = PAW_PBE S 06Sep2000                                                 
   LULTRA =        F    use ultrasoft PP ?                                      
   IUNSCR =        1    unscreen: 0-lin 1-nonlin 2-no                           
   RPACOR =    1.500    partial core radius                                     
   POMASS =   32.066; ZVAL   =    6.000    mass and valenz                      
   RCORE  =    1.900    outmost cutoff radius                                   
   RWIGS  =    2.200; RWIGS  =    1.164    wigner-seitz radius (au A)           
   ENMAX  =  258.689; ENMIN  =  194.016 eV                                      
   ICORE  =        2    local potential                                         
   LCOR   =        T    correct aug charges                                     
   LPAW   =        T    paw PP                                                  
   EAUG   =  335.092                                                            
   DEXC   =    0.000                                                            
   RMAX   =    1.942    core radius for proj-oper                               
   RAUG   =    1.300    factor for augmentation sphere                          
   RDEP   =    1.954    radius for radial grids                                 
   RDEPT  =    1.744    core radius for aug-charge                              
                                                                                
   Atomic configuration                                                         
    6 entries                                                                   
     n  l   j            E        occ.                                          
     1  0  0.50     -2405.8406   2.0000                                         
     2  0  0.50      -211.7007   2.0000                                         
     2  1  1.50      -156.4958   6.0000                                         
     3  0  0.50       -17.2562   2.0000                                         
     3  1  0.50        -7.0085   4.0000                                         
     3  2  1.50        -6.8029   0.0000                                         
   Description                                                                  
     l       E           TYP  RCUT    TYP  RCUT                                 
     0    -17.2561641     23  1.900                                             
     0    -15.8743224     23  1.900                                             
     1     -7.0085400     23  1.900                                             
     1     -2.7779785     23  1.900                                             
     2     -6.8029130     23  1.900                                             
  local pseudopotential read in
  partial core-charges read in
  partial kinetic energy density read in
  atomic valenz-charges read in
  non local Contribution for L=           0  read in
    real space projection operators read in
  non local Contribution for L=           0  read in
    real space projection operators read in
  non local Contribution for L=           1  read in
    real space projection operators read in
  non local Contribution for L=           1  read in
    real space projection operators read in
    PAW grid and wavefunctions read in
 
   number of l-projection  operators is LMAX  =           4
   number of lm-projection operators is LMMAX =           8
 
 POTCAR:     PAW_PBE Cu_pv 06Sep2000              
   SHA256 =  cb7b504e2ea725fe1f25c85a9ac77d4012ce94cd394135b722c4e25ec297f1cb Cu
   COPYR  = (c) Copyright 06Sep2000 Georg Kresse                                
   COPYR  = This file is part of the software VASP. Any use, copying, and all ot
   COPYR  = If you do not have a valid VASP license, you may not use, copy or di
   VRHFIN =Cu: d10 p1                                                           
   LEXCH  = PE                                                                  
   EATOM  =  4120.1201 eV,  302.8203 Ry                                         
                                                                                
   TITEL  = PAW_PBE Cu_pv 06Sep2000                                             
   LULTRA =        F    use ultrasoft PP ?                                      
   IUNSCR =        1    unscreen: 0-lin 1-nonlin 2-no                           
   RPACOR =    1.500    partial core radius                                     
   POMASS =   63.546; ZVAL   =   17.000    mass and valenz                      
   RCORE  =    2.000    outmost cutoff radius                                   
   RWIGS  =    2.000; RWIGS  =    1.058    wigner-seitz radius (au A)           
   ENMAX  =  368.648; ENMIN  =  276.486 eV                                      
   RCLOC  =    1.304    cutoff for local pot                                    
   LCOR   =        T    correct aug charges                                     
   LPAW   =        T    paw PP                                                  
   EAUG   =  758.233                                                            
   DEXC   =    0.000                                                            
   RMAX   =    2.046    core radius for proj-oper                               
   RAUG   =    1.300    factor for augmentation sphere                          
   RDEP   =    2.025    radius for radial grids                                 
   RDEPT  =    1.558    core radius for aug-charge                              
                                                                                
   Atomic configuration                                                         
    8 entries                                                                   
     n  l   j            E        occ.                                          
     1  0  0.50     -8850.2467   2.0000                                         
     2  0  0.50     -1062.3498   2.0000                                         
     2  1  1.50      -916.8226   6.0000                                         
     3  0  0.50      -114.6929   2.0000                                         
     3  1  1.50       -72.1325   6.0000                                         
     3  2  2.50        -5.0394  10.0000                                         
     4  0  0.50        -4.6097   1.0000                                         
     4  3  2.50        -1.3606   0.0000                                         
   Description                                                                  
     l       E           TYP  RCUT    TYP  RCUT                                 
     1    -72.1324777     23  1.700                                             
     1     -1.3605826     23  1.700                                             
     2     -5.0393776     23  2.000                                             
     2     -6.3999602     23  2.000                                             
     0     -4.6097062     23  1.800                                             
     0     14.1620818     23  1.800                                             
  local pseudopotential read in
  partial core-charges read in
  partial kinetic energy density read in
  atomic valenz-charges read in
  non local Contribution for L=           1  read in
    real space projection operators read in
  non local Contribution for L=           1  read in
    real space projection operators read in
  non local Contribution for L=           2  read in
    real space projection operators read in
  non local Contribution for L=           2  read in
    real space projection operators read in
  non local Contribution for L=           0  read in
    real space projection operators read in
  non local Contribution for L=           0  read in
    real space projection operators read in
    PAW grid and wavefunctions read in
 
   number of l-projection  operators is LMAX  =           6
   number of lm-projection operators is LMMAX =          18
 
 POTCAR:     PAW_PBE Fe_pv 02Aug2007              
   SHA256 =  5d22e414b1f82158bf2c7ecb8b97b28fd0923e48cadc1c3bf74d524558f5dd32 Fe
   COPYR  = (c) Copyright 02Aug2007 Georg Kresse                                
   COPYR  = This file is part of the software VASP. Any use, copying, and all ot
   COPYR  = If you do not have a valid VASP license, you may not use, copy or di
   VRHFIN =Fe:  3pd7s1                                                          
   LEXCH  = PE                                                                  
   EATOM  =  2457.4239 eV,  180.6156 Ry                                         
                                                                                
   TITEL  = PAW_PBE Fe_pv 02Aug2007                                             
   LULTRA =        F    use ultrasoft PP ?                                      
   IUNSCR =        1    unscreen: 0-lin 1-nonlin 2-no                           
   RPACOR =    1.750    partial core radius                                     
   POMASS =   55.847; ZVAL   =   14.000    mass and valenz                      
   RCORE  =    2.200    outmost cutoff radius                                   
   RWIGS  =    2.200; RWIGS  =    1.164    wigner-seitz radius (au A)           
   ENMAX  =  293.238; ENMIN  =  219.928 eV                                      
   ICORE  =        3    local potential                                         
   LCOR   =        T    correct aug charges                                     
   LPAW   =        T    paw PP                                                  
   EAUG   =  578.342                                                            
   DEXC   =    0.000                                                            
   RMAX   =    2.249    core radius for proj-oper                               
   RAUG   =    1.300    factor for augmentation sphere                          
   RDEP   =    2.296    radius for radial grids                                 
   RDEPT  =    1.766    core radius for aug-charge                              
                                                                                
   Atomic configuration                                                         
    8 entries                                                                   
     n  l   j            E        occ.                                          
     1  0  0.50     -6993.8440   2.0000                                         
     2  0  0.50      -814.6047   2.0000                                         
     2  1  1.50      -693.3689   6.0000                                         
     3  0  0.50       -89.4732   2.0000                                         
     3  1  1.50       -55.6373   6.0000                                         
     3  2  2.50        -3.8151   7.0000                                         
     4  0  0.50        -4.2551   1.0000                                         
     4  3  2.50        -1.3606   0.0000                                         
   Description                                                                  
     l       E           TYP  RCUT    TYP  RCUT                                 
     1    -55.6372668     23  2.000                                             
     1     -5.4423304     23  2.000                                             
     2     -3.8151096     23  2.200                                             
     2     -5.1756922     23  2.200                                             
     0     -4.2550951     23  2.200                                             
     0     27.2116520     23  2.200                                             
     3     -1.3605826     23  2.200                                             
  local pseudopotential read in
  partial core-charges read in
  partial kinetic energy density read in
  atomic valenz-charges read in
  non local Contribution for L=           1  read in
    real space projection operators read in
  non local Contribution for L=           1  read in
    real space projection operators read in
  non local Contribution for L=           2  read in
    real space projection operators read in
  non local Contribution for L=           2  read in
    real space projection operators read in
  non local Contribution for L=           0  read in
    real space projection operators read in
  non local Contribution for L=           0  read in
    real space projection operators read in
    PAW grid and wavefunctions read in
 
   number of l-projection  operators is LMAX  =           6
   number of lm-projection operators is LMMAX =          18
 

 ----------------------------------------------------------------------------- 
|                                                                             |
|  ADVICE TO THIS USER RUNNING 'VASP/VAMP'   (HEAR YOUR MASTER'S VOICE ...):  |
|                                                                             |
|      You enforced a specific xc-type in the INCAR file,                     |
|      a different type was found on the POTCAR file                          |
|          I HOPE YOU KNOW, WHAT YOU ARE  DOING                               |
|                                                                             |
 ----------------------------------------------------------------------------- 

  PAW_PBE S 06Sep2000                   :
 energy of atom  1       EATOM= -276.8230
 kinetic energy error for atom=    0.0007 (will be added to EATOM!!)
   PAW_PBE Cu_pv 06Sep2000              :
 energy of atom  2       EATOM=-4120.1201
 kinetic energy error for atom=    0.0094 (will be added to EATOM!!)
   PAW_PBE Fe_pv 02Aug2007              :
 energy of atom  3       EATOM=-2457.4239
 kinetic energy error for atom=    0.0025 (will be added to EATOM!!)
 
 
 POSCAR: sm_isp_SD0310437-standardized_unitcell  
  positions in direct lattice
  velocities in cartesian coordinates
 exchange correlation table for  LEXCH =       14
   RHO(1)=    0.500       N(1)  =     2000
   RHO(2)=  100.500       N(2)  =     4000
 


--------------------------------------------------------------------------------------------------------


 ion  position               nearest neighbor table
   1  0.253  0.250  0.125-  10 2.25  11 2.25  13 2.27  16 2.27
   2  0.747  0.750  0.125-  10 2.25  11 2.25  13 2.27  16 2.27
   3  0.250  0.747  0.875-  11 2.25  12 2.25  13 2.27  14 2.27
   4  0.750  0.253  0.875-  11 2.25  12 2.25  13 2.27  14 2.27
   5  0.247  0.250  0.625-   9 2.25  12 2.25  14 2.27  15 2.27
   6  0.753  0.750  0.625-   9 2.25  12 2.25  14 2.27  15 2.27
   7  0.750  0.247  0.375-   9 2.25  10 2.25  15 2.27  16 2.27
   8  0.250  0.753  0.375-   9 2.25  10 2.25  15 2.27  16 2.27
   9  0.000  0.000  0.500-   5 2.25   7 2.25   6 2.25   8 2.25
  10  0.500  0.000  0.250-   7 2.25   1 2.25   2 2.25   8 2.25
  11  0.500  0.500  0.000-   1 2.25   4 2.25   3 2.25   2 2.25
  12  0.000  0.500  0.750-   5 2.25   4 2.25   3 2.25   6 2.25
  13  0.000  0.000  0.000-   2 2.27   3 2.27   1 2.27   4 2.27
  14  0.500  0.000  0.750-   3 2.27   6 2.27   4 2.27   5 2.27
  15  0.500  0.500  0.500-   6 2.27   8 2.27   7 2.27   5 2.27
  16  0.000  0.500  0.250-   2 2.27   8 2.27   1 2.27   7 2.27
 
  LATTYP: Found a simple tetragonal cell.
 ALAT       =     5.1010220859
 C/A-ratio  =     2.1319435952
  
  Lattice vectors:
  
 A1 = (   5.1010220859,   0.0000000000,   0.0000000000)
 A2 = (   0.0000000000,   5.1010220859,   0.0000000000)
 A3 = (   0.0000000000,   0.0000000000,  10.8750913648)


Analysis of symmetry for initial positions (statically):
=====================================================================
 Subroutine PRICEL returns following result:
 
  LATTYP: Found a body centered tetragonal cell.
 ALAT       =     5.1010220859
 C/A-ratio  =     2.1319435952
  
  Lattice vectors:
  
 A1 = (   2.5505110429,  -2.5505110429,   5.4375456824)
 A2 = (  -2.5505110429,   2.5505110429,   5.4375456824)
 A3 = (  -2.5505110429,  -2.5505110429,  -5.4375456824)
 
   2 primitive cells build up your supercell.
 

 Routine SETGRP: Setting up the symmetry group for a 
 simple tetragonal supercell.


 Subroutine GETGRP returns: Found  8 space group operations
 (whereof  4 operations were pure point group operations)
 out of a pool of 16 trial point group operations.


The static configuration has the point symmetry S_4 .
 The point group associated with its full space group is D_2d.


Analysis of symmetry for dynamics (positions and initial velocities):
=====================================================================
 Subroutine PRICEL returns following result:
 
  LATTYP: Found a body centered tetragonal cell.
 ALAT       =     5.1010220859
 C/A-ratio  =     2.1319435952
  
  Lattice vectors:
  
 A1 = (   2.5505110429,  -2.5505110429,   5.4375456824)
 A2 = (  -2.5505110429,   2.5505110429,   5.4375456824)
 A3 = (  -2.5505110429,  -2.5505110429,  -5.4375456824)
 
   2 primitive cells build up your supercell.
 

 Routine SETGRP: Setting up the symmetry group for a 
 simple tetragonal supercell.


 Subroutine GETGRP returns: Found  8 space group operations
 (whereof  4 operations were pure point group operations)
 out of a pool of 16 trial point group operations.


The dynamic configuration has the point symmetry S_4 .
 The point group associated with its full space group is D_2d.


Analysis of structural, dynamic, and magnetic symmetry:
=====================================================================
 Subroutine PRICEL returns following result:
 
  LATTYP: Found a body centered tetragonal cell.
 ALAT       =     5.1010220859
 C/A-ratio  =     2.1319435952
  
  Lattice vectors:
  
 A1 = (   2.5505110429,  -2.5505110429,   5.4375456824)
 A2 = (  -2.5505110429,   2.5505110429,   5.4375456824)
 A3 = (  -2.5505110429,  -2.5505110429,  -5.4375456824)
 
   2 primitive cells build up your supercell.
 

 Routine SETGRP: Setting up the symmetry group for a 
 simple tetragonal supercell.


 Subroutine GETGRP returns: Found  8 space group operations
 (whereof  4 operations were pure point group operations)
 out of a pool of 16 trial point group operations.


The (compounded) configuration has the point symmetry S_4 .
 The point group associated with its full space group is D_2d.


 Subroutine INISYM returns: Found  8 space group operations
 (whereof  4 operations are pure point group operations),
 and found     2 'primitive' translations

 
 
 KPOINTS: Automatic mesh                          

Automatic generation of k-mesh.
Space group operators:
 irot       det(A)        alpha          n_x          n_y          n_z        tau_x        tau_y        tau_z
    1     1.000000     0.000001     1.000000     0.000000     0.000000     0.000000     0.000000     0.000000
    2    -1.000000    90.000000     0.000000     0.000000    -1.000000     0.000000     0.000000     0.000000
    3     1.000000   179.999999     0.000000     0.000000     1.000000     0.000000     0.000000     0.000000
    4    -1.000000    90.000000     0.000000     0.000000     1.000000     0.000000     0.000000     0.000000
    5     1.000000   180.000000     0.000000     1.000000     0.000000     0.000000    -0.500000     0.250000
    6    -1.000000   180.000000     0.707107     0.707107     0.000000     0.000000    -0.500000     0.250000
    7     1.000000   180.000000     1.000000     0.000000     0.000000     0.000000    -0.500000     0.250000
    8    -1.000000   180.000000     0.707107    -0.707107     0.000000     0.000000    -0.500000     0.250000
 
 Subroutine IBZKPT returns following result:
 ===========================================
 
 Found     23 irreducible k-points:
 
 Following reciprocal coordinates:
            Coordinates               Weight
  0.000000  0.000000  0.000000      1.000000
  0.166667  0.000000  0.000000      4.000000
  0.333333  0.000000  0.000000      4.000000
  0.500000  0.000000  0.000000      2.000000
  0.166667  0.166667  0.000000      4.000000
  0.333333  0.166667  0.000000      8.000000
  0.500000  0.166667  0.000000      4.000000
  0.333333  0.333333  0.000000      4.000000
  0.500000  0.333333  0.000000      4.000000
  0.500000  0.500000  0.000000      1.000000
  0.000000  0.000000  0.333333      2.000000
  0.166667  0.000000  0.333333      8.000000
  0.333333  0.000000  0.333333      8.000000
  0.500000  0.000000  0.333333      4.000000
  0.166667  0.166667  0.333333      4.000000
  0.333333  0.166667  0.333333      8.000000
  0.500000  0.166667  0.333333      8.000000
 -0.333333  0.166667  0.333333      8.000000
 -0.166667  0.166667  0.333333      4.000000
  0.333333  0.333333  0.333333      4.000000
  0.500000  0.333333  0.333333      8.000000
 -0.333333  0.333333  0.333333      4.000000
  0.500000  0.500000  0.333333      2.000000
 
 Following cartesian coordinates:
            Coordinates               Weight
  0.000000  0.000000  0.000000      1.000000
  0.032673  0.000000  0.000000      4.000000
  0.065346  0.000000  0.000000      4.000000
  0.098020  0.000000  0.000000      2.000000
  0.032673  0.032673  0.000000      4.000000
  0.065346  0.032673  0.000000      8.000000
  0.098020  0.032673  0.000000      4.000000
  0.065346  0.065346  0.000000      4.000000
  0.098020  0.065346  0.000000      4.000000
  0.098020  0.098020  0.000000      1.000000
  0.000000  0.000000  0.030651      2.000000
  0.032673  0.000000  0.030651      8.000000
  0.065346  0.000000  0.030651      8.000000
  0.098020  0.000000  0.030651      4.000000
  0.032673  0.032673  0.030651      4.000000
  0.065346  0.032673  0.030651      8.000000
  0.098020  0.032673  0.030651      8.000000
 -0.065346  0.032673  0.030651      8.000000
 -0.032673  0.032673  0.030651      4.000000
  0.065346  0.065346  0.030651      4.000000
  0.098020  0.065346  0.030651      8.000000
 -0.065346  0.065346  0.030651      4.000000
  0.098020  0.098020  0.030651      2.000000
 
 TETIRR: Found    274 inequivalent tetrahedra from      648


--------------------------------------------------------------------------------------------------------




 Dimension of arrays:
   k-points           NKPTS =     23   k-points in BZ     NKDIM =     23   number of bands    NBANDS=    208
   number of dos      NEDOS =    301   number of ions     NIONS =     16
   non local maximal  LDIM  =      6   non local SUM 2l+1 LMDIM =     18
   total plane-waves  NPLWV = 221184
   max r-space proj   IRMAX =      1   max aug-charges    IRDMAX=  24822
   dimension x,y,z NGX =    48 NGY =   48 NGZ =   96
   dimension x,y,z NGXF=    96 NGYF=   96 NGZF=  192
   support grid    NGXF=    96 NGYF=   96 NGZF=  192
   ions per type =               8   4   4
   NGX,Y,Z   is equivalent  to a cutoff of  15.64, 15.64, 14.68 a.u.
   NGXF,Y,Z  is equivalent  to a cutoff of  31.29, 31.29, 29.35 a.u.

 SYSTEM =  CuFeS2                                  
 POSCAR =  sm_isp_SD0310437-standardized_unitcell  

 Startparameter for this run:
   NWRITE =      2    write-flag & timer
   PREC   = accura    normal or accurate (medium, high low for compatibility)
   ISTART =      1    job   : 0-new  1-cont  2-samecut
   ICHARG =      1    charge: 1-file 2-atom 10-const
   ISPIN  =      1    spin polarized calculation?
   LNONCOLLINEAR =      T non collinear calculations
   LSORBIT =      F    spin-orbit coupling
   INIWAV =      1    electr: 0-lowe 1-rand  2-diag
   LASPH  =      T    aspherical Exc in radial PAW
   METAGGA=      F    non-selfconsistent MetaGGA calc.

 Electronic Relaxation 1
   ENCUT  =  700.0 eV  51.45 Ry    7.17 a.u.  11.00 11.00 23.46*2*pi/ulx,y,z
   ENINI  =  700.0     initial cutoff
   ENAUG  =  758.2 eV  augmentation charge cutoff
   NELM   =    200;   NELMIN=  2; NELMDL=  0     # of ELM steps 
   EDIFF  = 0.1E-07   stopping-criterion for ELM
   LREAL  =      F    real-space projection
   NLSPLINE    = F    spline interpolate recip. space projectors
   LCOMPAT=      F    compatible to vasp.4.4
   GGA_COMPAT  = T    GGA compatible to vasp.4.4-vasp.4.6
   LMAXPAW     = -100 max onsite density
   LMAXMIX     =    4 max onsite mixed and CHGCAR
   VOSKOWN=      0    Vosko Wilk Nusair interpolation
   ROPT   =    0.00000   0.00000   0.00000
 Ionic relaxation
   EDIFFG = -.1E-04   stopping-criterion for IOM
   NSW    =      0    number of steps for IOM
   NBLOCK =      1;   KBLOCK =      1    inner block; outer block 
   IBRION =     -1    ionic relax: 0-MD 1-quasi-New 2-CG
   NFREE  =      0    steps in history (QN), initial steepest desc. (CG)
   ISIF   =      2    stress and relaxation
   IWAVPR =     10    prediction:  0-non 1-charg 2-wave 3-comb
   ISYM   =      1    0-nonsym 1-usesym 2-fastsym
   LCORR  =      T    Harris-Foulkes like correction to forces

   POTIM  = 0.1000    time-step for ionic-motion
   TEIN   =    0.0    initial temperature
   TEBEG  =    0.0;   TEEND  =   0.0 temperature during run
   SMASS  =  -3.00    Nose mass-parameter (am)
   estimated Nose-frequenzy (Omega)   =  0.10E-29 period in steps =****** mass=  -0.595E-27a.u.
   SCALEE = 1.0000    scale energy and forces
   NPACO  =    256;   APACO  = 16.0  distance and # of slots for P.C.
   PSTRESS=    0.0 pullay stress

  Mass of Ions in am
   POMASS =  32.07 63.55 55.85
  Ionic Valenz
   ZVAL   =   6.00 17.00 14.00
  Atomic Wigner-Seitz radii
   RWIGS  =  -1.00 -1.00 -1.00
  virtual crystal weights 
   VCA    =   1.00  1.00  1.00
   NELECT =     172.0000    total number of electrons
   NUPDOWN=      -1.0000    fix difference up-down

 DOS related values:
   EMIN   =  10.00;   EMAX   =-10.00  energy-range for DOS
   EFERMI =   0.00
   ISMEAR =    -5;   SIGMA  =   0.03  broadening in eV -4-tet -1-fermi 0-gaus

 Electronic relaxation 2 (details)
   IALGO  =     58    algorithm
   LDIAG  =      T    sub-space diagonalisation (order eigenvalues)
   LSUBROT=      F    optimize rotation matrix (better conditioning)
   TURBO    =      0    0=normal 1=particle mesh
   IRESTART =      0    0=no restart 2=restart with 2 vectors
   NREBOOT  =      0    no. of reboots
   NMIN     =      0    reboot dimension
   EREF     =   0.00    reference energy to select bands
   IMIX   =      4    mixing-type and parameters
     AMIX     =   0.40;   BMIX     =  1.00
     AMIX_MAG =   1.60;   BMIX_MAG =  1.00
     AMIN     =   0.10
     WC   =   100.;   INIMIX=   1;  MIXPRE=   1;  MAXMIX= -45

 Intra band minimization:
   WEIMIN = 0.0000     energy-eigenvalue tresh-hold
   EBREAK =  0.12E-10  absolut break condition
   DEPER  =   0.30     relativ break condition  

   TIME   =   0.40     timestep for ELM

  volume/ion in A,a.u.               =      17.69       119.35
  Fermi-wavevector in a.u.,A,eV,Ry     =   1.386762  2.620600 26.165477  1.923108
  Thomas-Fermi vector in A             =   2.511047
 
 Write flags
   LWAVE        =      T    write WAVECAR
   LDOWNSAMPLE  =      F    k-point downsampling of WAVECAR
   LCHARG       =      T    write CHGCAR
   LVTOT        =      F    write LOCPOT, total local potential
   LVHAR        =      F    write LOCPOT, Hartree potential only
   LELF         =      F    write electronic localiz. function (ELF)
   LORBIT       =     11    0 simple, 1 ext, 2 COOP (PROOUT), +10 PAW based schemes


 Dipole corrections
   LMONO  =      F    monopole corrections only (constant potential shift)
   LDIPOL =      F    correct potential (dipole corrections)
   IDIPOL =      0    1-x, 2-y, 3-z, 4-all directions 
   EPSILON=  1.0000000 bulk dielectric constant

 LDA+U is selected, type is set to LDAUTYPE =  2
   angular momentum for each species LDAUL =     2    2    2
   U (eV)           for each species LDAUU =   0.0  0.1  4.7
   J (eV)           for each species LDAUJ =   0.0  0.0  0.0
 Exchange correlation treatment:
   GGA     =    PS    GGA type
   LEXCH   =    14    internal setting for exchange type
   VOSKOWN=      0    Vosko Wilk Nusair interpolation
   LHFCALC =     F    Hartree Fock is set to
   LHFONE  =     F    Hartree Fock one center treatment
   AEXX    =    0.0000 exact exchange contribution

 Linear response parameters
   LEPSILON=     F    determine dielectric tensor
   LRPA    =     F    only Hartree local field effects (RPA)
   LNABLA  =     F    use nabla operator in PAW spheres
   LVEL    =     F    velocity operator in full k-point grid
   LINTERFAST=   F  fast interpolation
   KINTER  =     0    interpolate to denser k-point grid
   CSHIFT  =0.1000    complex shift for real part using Kramers Kronig
   OMEGAMAX=  -1.0    maximum frequency
   DEG_THRESHOLD= 0.2000000E-02 threshold for treating states as degnerate
   RTIME   =   -0.100 relaxation time in fs
  (WPLASMAI=    0.000 imaginary part of plasma frequency in eV, 0.658/RTIME)
   DFIELD  = 0.0000000 0.0000000 0.0000000 field for delta impulse in time
 
 Orbital magnetization related:
   ORBITALMAG=     F  switch on orbital magnetization
   LCHIMAG   =     F  perturbation theory with respect to B field
   DQ        =  0.001000  dq finite difference perturbation B field
   LLRAUG    =     F  two centre corrections for induced B field



--------------------------------------------------------------------------------------------------------


 Static calculation
 charge density and potential will be updated during run
 non collinear spin polarized calculation
 Conjugate gradient for all bands (Freysoldt, et al. PRB 79, 241103 (2009))
 preconditioned conjugated gradient                                        
 perform sub-space diagonalisation
    before iterative eigenvector-optimisation
 modified Broyden-mixing scheme, WC =      100.0
 initial mixing is a Kerker type mixing with AMIX =  0.4000 and BMIX =      1.0000
 Hartree-type preconditioning will be used
 using additional bands          122
 reciprocal scheme for non local part
 use partial core corrections
 no Harris-corrections to forces 
 use gradient corrections 
 use of overlap-Matrix (Vanderbilt PP)
 Fermi weights with tetrahedron method with Bloechl corrections


--------------------------------------------------------------------------------------------------------


  energy-cutoff  :      700.00
  volume of cell :      282.97
      direct lattice vectors                 reciprocal lattice vectors
     5.101022086  0.000000000  0.000000000     0.196039143  0.000000000  0.000000000
     0.000000000  5.101022086  0.000000000     0.000000000  0.196039143  0.000000000
     0.000000000  0.000000000 10.875091365     0.000000000  0.000000000  0.091953250

  length of vectors
     5.101022086  5.101022086 10.875091365     0.196039143  0.196039143  0.091953250


 
 old parameters found on file WAVECAR:
  energy-cutoff  :      700.00
  volume of cell :      282.99
      direct lattice vectors                 reciprocal lattice vectors
     5.101022086  0.000000000  0.000000000     0.196039143  0.000000000  0.000000000
     0.000000000  5.101022086  0.000000000     0.000000000  0.196039143  0.000000000
     0.000000000  0.000000000 10.875838061     0.000000000  0.000000000  0.091946937

  length of vectors

 
 k-points in units of 2pi/SCALE and weight: Automatic mesh                          
   0.00000000  0.00000000  0.00000000       0.009
   0.03267319  0.00000000  0.00000000       0.037
   0.06534638  0.00000000  0.00000000       0.037
   0.09801957  0.00000000  0.00000000       0.019
   0.03267319  0.03267319  0.00000000       0.037
   0.06534638  0.03267319  0.00000000       0.074
   0.09801957  0.03267319  0.00000000       0.037
   0.06534638  0.06534638  0.00000000       0.037
   0.09801957  0.06534638  0.00000000       0.037
   0.09801957  0.09801957  0.00000000       0.009
   0.00000000  0.00000000  0.03065108       0.019
   0.03267319  0.00000000  0.03065108       0.074
   0.06534638  0.00000000  0.03065108       0.074
   0.09801957  0.00000000  0.03065108       0.037
   0.03267319  0.03267319  0.03065108       0.037
   0.06534638  0.03267319  0.03065108       0.074
   0.09801957  0.03267319  0.03065108       0.074
  -0.06534638  0.03267319  0.03065108       0.074
  -0.03267319  0.03267319  0.03065108       0.037
   0.06534638  0.06534638  0.03065108       0.037
   0.09801957  0.06534638  0.03065108       0.074
  -0.06534638  0.06534638  0.03065108       0.037
   0.09801957  0.09801957  0.03065108       0.019
 
 k-points in reciprocal lattice and weights: Automatic mesh                          
   0.00000000  0.00000000  0.00000000       0.009
   0.16666667  0.00000000  0.00000000       0.037
   0.33333333  0.00000000  0.00000000       0.037
   0.50000000  0.00000000  0.00000000       0.019
   0.16666667  0.16666667  0.00000000       0.037
   0.33333333  0.16666667  0.00000000       0.074
   0.50000000  0.16666667  0.00000000       0.037
   0.33333333  0.33333333  0.00000000       0.037
   0.50000000  0.33333333  0.00000000       0.037
   0.50000000  0.50000000  0.00000000       0.009
   0.00000000  0.00000000  0.33333333       0.019
   0.16666667  0.00000000  0.33333333       0.074
   0.33333333  0.00000000  0.33333333       0.074
   0.50000000  0.00000000  0.33333333       0.037
   0.16666667  0.16666667  0.33333333       0.037
   0.33333333  0.16666667  0.33333333       0.074
   0.50000000  0.16666667  0.33333333       0.074
  -0.33333333  0.16666667  0.33333333       0.074
  -0.16666667  0.16666667  0.33333333       0.037
   0.33333333  0.33333333  0.33333333       0.037
   0.50000000  0.33333333  0.33333333       0.074
  -0.33333333  0.33333333  0.33333333       0.037
   0.50000000  0.50000000  0.33333333       0.019
 
 position of ions in fractional coordinates (direct lattice) 
   0.25306556  0.25000000  0.12500000
   0.74693447  0.75000000  0.12500000
   0.25000000  0.74693447  0.87500000
   0.75000000  0.25306556  0.87500000
   0.24693444  0.25000000  0.62500000
   0.75306553  0.75000000  0.62500000
   0.75000000  0.24693444  0.37500000
   0.25000000  0.75306553  0.37500000
   0.00000000  0.00000000  0.50000000
   0.50000000  0.00000000  0.25000000
   0.50000000  0.50000000  0.00000000
   0.00000000  0.50000000  0.75000000
   0.00000000  0.00000000  0.00000000
   0.50000000  0.00000000  0.75000000
   0.50000000  0.50000000  0.50000000
   0.00000000  0.50000000  0.25000000
 
 position of ions in cartesian coordinates  (Angst):
   1.29089299  1.27525552  1.35938642
   3.81012925  3.82576656  1.35938642
   1.27525552  3.81012925  9.51570494
   3.82576656  1.29089299  9.51570494
   1.25961806  1.27525552  6.79693210
   3.84140388  3.82576656  6.79693210
   3.82576656  1.25961806  4.07815926
   1.27525552  3.84140388  4.07815926
   0.00000000  0.00000000  5.43754568
   2.55051104  0.00000000  2.71877284
   2.55051104  2.55051104  0.00000000
   0.00000000  2.55051104  8.15631852
   0.00000000  0.00000000  0.00000000
   2.55051104  0.00000000  8.15631852
   2.55051104  2.55051104  5.43754568
   0.00000000  2.55051104  2.71877284
 
 Euler angles ALPHA=     0.0000000  BETA=     0.0000000

 transformation matrix from SAXIS to cartesian coordinates
 ---------------------------------------------------------
     1.0000000 m_x     0.0000000 m_y     0.0000000 m_z
     0.0000000 m_x     1.0000000 m_y     0.0000000 m_z
     0.0000000 m_x     0.0000000 m_y     1.0000000 m_z

 transformation matrix from cartesian coordinates to SAXIS
 ---------------------------------------------------------
     1.0000000 m_x     0.0000000 m_y     0.0000000 m_z
     0.0000000 m_x     1.0000000 m_y     0.0000000 m_z
     0.0000000 m_x     0.0000000 m_y     1.0000000 m_z




--------------------------------------------------------------------------------------------------------


 k-point  1 :   0.0000 0.0000 0.0000  plane waves:   23614
 k-point  2 :   0.1667 0.0000 0.0000  plane waves:   23752
 k-point  3 :   0.3333 0.0000 0.0000  plane waves:   23800
 k-point  4 :   0.5000 0.0000 0.0000  plane waves:   23732
 k-point  5 :   0.1667 0.1667 0.0000  plane waves:   23754
 k-point  6 :   0.3333 0.1667 0.0000  plane waves:   23804
 k-point  7 :   0.5000 0.1667 0.0000  plane waves:   23796
 k-point  8 :   0.3333 0.3333 0.0000  plane waves:   23880
 k-point  9 :   0.5000 0.3333 0.0000  plane waves:   23876
 k-point 10 :   0.5000 0.5000 0.0000  plane waves:   23856
 k-point 11 :   0.0000 0.0000 0.3333  plane waves:   23774
 k-point 12 :   0.1667 0.0000 0.3333  plane waves:   23762
 k-point 13 :   0.3333 0.0000 0.3333  plane waves:   23738
 k-point 14 :   0.5000 0.0000 0.3333  plane waves:   23720
 k-point 15 :   0.1667 0.1667 0.3333  plane waves:   23794
 k-point 16 :   0.3333 0.1667 0.3333  plane waves:   23806
 k-point 17 :   0.5000 0.1667 0.3333  plane waves:   23868
 k-point 18 :  -0.3333 0.1667 0.3333  plane waves:   23806
 k-point 19 :  -0.1667 0.1667 0.3333  plane waves:   23794
 k-point 20 :   0.3333 0.3333 0.3333  plane waves:   23814
 k-point 21 :   0.5000 0.3333 0.3333  plane waves:   23860
 k-point 22 :  -0.3333 0.3333 0.3333  plane waves:   23814
 k-point 23 :   0.5000 0.5000 0.3333  plane waves:   23792

 maximum and minimum number of plane-waves per node :       780      698

 maximum number of plane-waves:     23880
 maximum index in each direction: 
   IXMAX=   11   IYMAX=   11   IZMAX=   23
   IXMIN=  -11   IYMIN=  -11   IZMIN=  -23


 parallel 3D FFT for wavefunctions:
    minimum data exchange during FFTs selected (reduces bandwidth)
 parallel 3D FFT for charge:
    minimum data exchange during FFTs selected (reduces bandwidth)


 total amount of memory used by VASP MPI-rank0    65283. kBytes
=======================================================================

   base      :      30000. kBytes
   nonl-proj :       3995. kBytes
   fftplans  :       1448. kBytes
   grid      :       5898. kBytes
   one-center:         62. kBytes
   wavefun   :      23880. kBytes
 
     INWAV:  cpu time    5.5437: real time    5.6490
 Broyden mixing: mesh for mixing (old mesh)
   NGX = 23   NGY = 23   NGZ = 47
  (NGX  = 96   NGY  = 96   NGZ  =192)
  gives a total of  24863 points

 initial charge density was supplied:
 number of electron     171.9999902 magnetization       0.0000000      0.0000000     -0.0000000
 charge density for first step will be calculated from the start-wavefunctions


--------------------------------------------------------------------------------------------------------


 BZINTS: Fermi energy:  5.055098;172.000000 electrons
         Band energy:***********;  BLOECHL correction:  0.000000
 Maximum index for augmentation-charges          943 (set IRDMAX)


--------------------------------------------------------------------------------------------------------


 initial charge from wavefunction
 First call to EWALD:  gamma=   0.270
 Maximum number of real-space cells 3x 3x 2
 Maximum number of reciprocal cells 2x 2x 4

    FEWALD:  cpu time    0.0150: real time    0.0150

 ----------------------------------------------------------------------------- 
|                                                                             |
|           W    W    AA    RRRRR   N    N  II  N    N   GGGG   !!!           |
|           W    W   A  A   R    R  NN   N  II  NN   N  G    G  !!!           |
|           W    W  A    A  R    R  N N  N  II  N N  N  G       !!!           |
|           W WW W  AAAAAA  RRRRR   N  N N  II  N  N N  G  GGG   !            |
|           WW  WW  A    A  R   R   N   NN  II  N   NN  G    G                |
|           W    W  A    A  R    R  N    N  II  N    N   GGGG   !!!           |
|                                                                             |
|      ALGO=A and IALGO=5X tend to fail with the tetrahedron method           |
|      (e.g. Bloechls method ISMEAR=-5 is not variational)                    |
|      please switch to IMSEAR=0-n, except for DOS calculations               |
|      For DOS calculations use IALGO=53 after preconverging with ISMEAR>=0   |
|          I HOPE YOU KNOW, WHAT YOU ARE  DOING                               |
|                                                                             |
 ----------------------------------------------------------------------------- 



--------------------------------------- Iteration      1(   1)  ---------------------------------------


    POTLOK:  cpu time    0.0960: real time    0.0963
    SETDIJ:  cpu time    0.6410: real time    0.6410
    TRIAL :  cpu time    3.8641: real time    3.8804
 BZINTS: Fermi energy:  5.055091;172.000000 electrons
         Band energy:***********;  BLOECHL correction:  0.000000
 BZINTS: Fermi energy:  5.055098;172.000000 electrons
         Band energy:***********;  BLOECHL correction:  0.000000
    CORREC:  cpu time    3.1423: real time    3.1451
    CHARGE:  cpu time    1.0178: real time    1.0179
    --------------------------------------------
      LOOP:  cpu time    8.7691: real time    8.8838

 eigenvalue-minimisations  :     0
 total energy-change (2. order) :-0.8194419E+02  (-0.5818207E-07)
 number of electron     171.9999902 magnetization       0.0000000     -0.0000000      0.0000000
 augmentation part       70.5446551 magnetization      -0.0000001     -0.0000002     -0.0003721

 Free energy of the ion-electron system (eV)
  ---------------------------------------------------
  alpha Z        PSCENC =       598.80625611
  Ewald energy   TEWEN  =    -15709.01508602
  -Hartree energ DENC   =    -10679.31345844
  -exchange      EXHF   =         0.00000000
  -V(xc)+E(xc)   XCENC  =       822.14050799
  PAW double counting   =     28225.72805342   -29149.83779659
  entropy T*S    EENTRO =         0.00000000
  eigenvalues    EBANDS =     -2695.46894311
  atomic energy  EATOM  =     28505.01627691
  ---------------------------------------------------
  free energy    TOTEN  =       -81.94418973 eV

  energy without entropy =      -81.94418973  energy(sigma->0) =      -81.94418973


--------------------------------------------------------------------------------------------------------




--------------------------------------- Iteration      1(   2)  ---------------------------------------


    POTLOK:  cpu time    0.0988: real time    0.0988
    SETDIJ:  cpu time    0.6355: real time    0.6357
    TRIAL :  cpu time    2.4902: real time    2.4929
 BZINTS: Fermi energy:  5.055092;172.000000 electrons
         Band energy:***********;  BLOECHL correction:  0.000000
 BZINTS: Fermi energy:  5.055098;172.000000 electrons
         Band energy:***********;  BLOECHL correction:  0.000000
    CORREC:  cpu time    3.1258: real time    3.1286
    CHARGE:  cpu time    1.0212: real time    1.0215
    --------------------------------------------
      LOOP:  cpu time    7.3940: real time    7.4007

 eigenvalue-minimisations  :     0
 total energy-change (2. order) :-0.2036410E-05  (-0.4126652E-07)
 number of electron     171.9999902 magnetization       0.0000000      0.0000000      0.0000000
 augmentation part       70.5446551 magnetization      -0.0000001     -0.0000002     -0.0003721

 Free energy of the ion-electron system (eV)
  ---------------------------------------------------
  alpha Z        PSCENC =       598.80625611
  Ewald energy   TEWEN  =    -15709.01508602
  -Hartree energ DENC   =    -10679.31345353
  -exchange      EXHF   =         0.00000000
  -V(xc)+E(xc)   XCENC  =       822.14050353
  PAW double counting   =     28225.72800916   -29149.83775204
  entropy T*S    EENTRO =         0.00000000
  eigenvalues    EBANDS =     -2695.46894589
  atomic energy  EATOM  =     28505.01627691
  ---------------------------------------------------
  free energy    TOTEN  =       -81.94419176 eV

  energy without entropy =      -81.94419176  energy(sigma->0) =      -81.94419176


--------------------------------------------------------------------------------------------------------




--------------------------------------- Iteration      1(   3)  ---------------------------------------


    POTLOK:  cpu time    0.0985: real time    0.0985
    SETDIJ:  cpu time    0.6344: real time    0.6344
    TRIAL :  cpu time    2.4887: real time    2.4915
 BZINTS: Fermi energy:  5.055092;172.000000 electrons
         Band energy:***********;  BLOECHL correction:  0.000000
 BZINTS: Fermi energy:  5.055097;172.000000 electrons
         Band energy:***********;  BLOECHL correction:  0.000000
    CORREC:  cpu time    3.1185: real time    3.1214
    CHARGE:  cpu time    1.0233: real time    1.0235
    --------------------------------------------
      LOOP:  cpu time    7.3825: real time    7.3919

 eigenvalue-minimisations  :     0
 total energy-change (2. order) :-0.1409668E-05  (-0.3337700E-07)
 number of electron     171.9999902 magnetization       0.0000000      0.0000000      0.0000000
 augmentation part       70.5446551 magnetization      -0.0000001     -0.0000002     -0.0003721

 Free energy of the ion-electron system (eV)
  ---------------------------------------------------
  alpha Z        PSCENC =       598.80625611
  Ewald energy   TEWEN  =    -15709.01508602
  -Hartree energ DENC   =    -10679.31344917
  -exchange      EXHF   =         0.00000000
  -V(xc)+E(xc)   XCENC  =       822.14050043
  PAW double counting   =     28225.72796969   -29149.83771231
  entropy T*S    EENTRO =         0.00000000
  eigenvalues    EBANDS =     -2695.46894881
  atomic energy  EATOM  =     28505.01627691
  ---------------------------------------------------
  free energy    TOTEN  =       -81.94419317 eV

  energy without entropy =      -81.94419317  energy(sigma->0) =      -81.94419317


--------------------------------------------------------------------------------------------------------




--------------------------------------- Iteration      1(   4)  ---------------------------------------


    POTLOK:  cpu time    0.1002: real time    0.1002
    SETDIJ:  cpu time    0.6335: real time    0.6337
    TRIAL :  cpu time    2.4886: real time    2.4912
 BZINTS: Fermi energy:  5.055092;172.000000 electrons
         Band energy:***********;  BLOECHL correction:  0.000000
 BZINTS: Fermi energy:  5.055097;172.000000 electrons
         Band energy:***********;  BLOECHL correction:  0.000000
    CORREC:  cpu time    3.1238: real time    3.1268
    CHARGE:  cpu time    1.0235: real time    1.0237
    --------------------------------------------
      LOOP:  cpu time    7.3894: real time    7.3985

 eigenvalue-minimisations  :     0
 total energy-change (2. order) :-0.1067379E-05  (-0.3044810E-07)
 number of electron     171.9999902 magnetization       0.0000000      0.0000000      0.0000000
 augmentation part       70.5446550 magnetization      -0.0000001     -0.0000001     -0.0003721

 Free energy of the ion-electron system (eV)
  ---------------------------------------------------
  alpha Z        PSCENC =       598.80625611
  Ewald energy   TEWEN  =    -15709.01508602
  -Hartree energ DENC   =    -10679.31344493
  -exchange      EXHF   =         0.00000000
  -V(xc)+E(xc)   XCENC  =       822.14049807
  PAW double counting   =     28225.72793136   -29149.83767373
  entropy T*S    EENTRO =         0.00000000
  eigenvalues    EBANDS =     -2695.46895202
  atomic energy  EATOM  =     28505.01627691
  ---------------------------------------------------
  free energy    TOTEN  =       -81.94419424 eV

  energy without entropy =      -81.94419424  energy(sigma->0) =      -81.94419424


--------------------------------------------------------------------------------------------------------




--------------------------------------- Iteration      1(   5)  ---------------------------------------


    POTLOK:  cpu time    0.0985: real time    0.0985
    SETDIJ:  cpu time    0.6336: real time    0.6338
    TRIAL :  cpu time    2.4816: real time    2.4843
 BZINTS: Fermi energy:  5.055093;172.000000 electrons
         Band energy:***********;  BLOECHL correction:  0.000000
 BZINTS: Fermi energy:  5.055097;172.000000 electrons
         Band energy:***********;  BLOECHL correction:  0.000000
    CORREC:  cpu time    3.1116: real time    3.1144
    CHARGE:  cpu time    1.0206: real time    1.0208
    --------------------------------------------
      LOOP:  cpu time    7.3667: real time    7.3757

 eigenvalue-minimisations  :     0
 total energy-change (2. order) :-0.8636343E-06  (-0.3168152E-07)
 number of electron     171.9999902 magnetization       0.0000000      0.0000000     -0.0000000
 augmentation part       70.5446550 magnetization      -0.0000001     -0.0000001     -0.0003721

 Free energy of the ion-electron system (eV)
  ---------------------------------------------------
  alpha Z        PSCENC =       598.80625611
  Ewald energy   TEWEN  =    -15709.01508602
  -Hartree energ DENC   =    -10679.31344044
  -exchange      EXHF   =         0.00000000
  -V(xc)+E(xc)   XCENC  =       822.14049615
  PAW double counting   =     28225.72789087   -29149.83763296
  entropy T*S    EENTRO =         0.00000000
  eigenvalues    EBANDS =     -2695.46895573
  atomic energy  EATOM  =     28505.01627691
  ---------------------------------------------------
  free energy    TOTEN  =       -81.94419511 eV

  energy without entropy =      -81.94419511  energy(sigma->0) =      -81.94419511


--------------------------------------------------------------------------------------------------------




--------------------------------------- Iteration      1(   6)  ---------------------------------------


    POTLOK:  cpu time    0.0996: real time    0.0996
    SETDIJ:  cpu time    0.6335: real time    0.6337
    TRIAL :  cpu time    2.4835: real time    2.4863
 BZINTS: Fermi energy:  5.055093;172.000000 electrons
         Band energy:***********;  BLOECHL correction:  0.000000
 BZINTS: Fermi energy:  5.055096;172.000000 electrons
         Band energy:***********;  BLOECHL correction:  0.000000
    CORREC:  cpu time    3.1324: real time    3.1353
    CHARGE:  cpu time    1.0163: real time    1.0167
    --------------------------------------------
      LOOP:  cpu time    7.3903: real time    7.4000

 eigenvalue-minimisations  :     0
 total energy-change (2. order) :-0.7470353E-06  (-0.4427353E-07)
 number of electron     171.9999902 magnetization       0.0000000      0.0000000      0.0000000
 augmentation part       70.5446550 magnetization      -0.0000001     -0.0000001     -0.0003721

 Free energy of the ion-electron system (eV)
  ---------------------------------------------------
  alpha Z        PSCENC =       598.80625611
  Ewald energy   TEWEN  =    -15709.01508602
  -Hartree energ DENC   =    -10679.31343511
  -exchange      EXHF   =         0.00000000
  -V(xc)+E(xc)   XCENC  =       822.14049447
  PAW double counting   =     28225.72784283   -29149.83758460
  entropy T*S    EENTRO =         0.00000000
  eigenvalues    EBANDS =     -2695.46896045
  atomic energy  EATOM  =     28505.01627691
  ---------------------------------------------------
  free energy    TOTEN  =       -81.94419585 eV

  energy without entropy =      -81.94419585  energy(sigma->0) =      -81.94419585


--------------------------------------------------------------------------------------------------------




--------------------------------------- Iteration      1(   7)  ---------------------------------------


    POTLOK:  cpu time    0.0996: real time    0.0996
    SETDIJ:  cpu time    0.6335: real time    0.6334
    TRIAL :  cpu time    2.4872: real time    2.4900
 BZINTS: Fermi energy:  5.055093;172.000000 electrons
         Band energy:***********;  BLOECHL correction:  0.000000
 BZINTS: Fermi energy:  5.055093;172.000000 electrons
         Band energy:***********;  BLOECHL correction:  0.000000
    CORREC:  cpu time    3.1249: real time    3.1279
    CHARGE:  cpu time    1.0215: real time    1.0217
    --------------------------------------------
      LOOP:  cpu time    7.3872: real time    7.3966

 eigenvalue-minimisations  :     0
 total energy-change (2. order) :-0.7865201E-06  (-0.2529931E-06)
 number of electron     171.9999902 magnetization       0.0000000      0.0000000     -0.0000000
 augmentation part       70.5446547 magnetization       0.0000001      0.0000000     -0.0003721

 Free energy of the ion-electron system (eV)
  ---------------------------------------------------
  alpha Z        PSCENC =       598.80625611
  Ewald energy   TEWEN  =    -15709.01508602
  -Hartree energ DENC   =    -10679.31342667
  -exchange      EXHF   =         0.00000000
  -V(xc)+E(xc)   XCENC  =       822.14049266
  PAW double counting   =     28225.72776687   -29149.83750814
  entropy T*S    EENTRO =         0.00000000
  eigenvalues    EBANDS =     -2695.46896836
  atomic energy  EATOM  =     28505.01627691
  ---------------------------------------------------
  free energy    TOTEN  =       -81.94419664 eV

  energy without entropy =      -81.94419664  energy(sigma->0) =      -81.94419664


--------------------------------------------------------------------------------------------------------




--------------------------------------- Iteration      1(   8)  ---------------------------------------


    POTLOK:  cpu time    0.0970: real time    0.0970
    SETDIJ:  cpu time    0.6339: real time    0.6340
    TRIAL :  cpu time    2.4850: real time    2.4875
 BZINTS: Fermi energy:  5.055090;172.000000 electrons
         Band energy:***********;  BLOECHL correction:  0.000000
 BZINTS: Fermi energy:  5.055092;172.000000 electrons
         Band energy:***********;  BLOECHL correction:  0.000000
    CORREC:  cpu time    3.1317: real time    3.1348
    CHARGE:  cpu time    1.0269: real time    1.0272
    --------------------------------------------
      LOOP:  cpu time    7.3962: real time    7.4061

 eigenvalue-minimisations  :     0
 total energy-change (2. order) :-0.4455251E-07  (-0.5948665E-08)
 number of electron     171.9999902 magnetization       0.0000000     -0.0000000      0.0000000
 augmentation part       70.5446547 magnetization       0.0000001      0.0000000     -0.0003721

 Free energy of the ion-electron system (eV)
  ---------------------------------------------------
  alpha Z        PSCENC =       598.80625611
  Ewald energy   TEWEN  =    -15709.01508602
  -Hartree energ DENC   =    -10679.31337134
  -exchange      EXHF   =         0.00000000
  -V(xc)+E(xc)   XCENC  =       822.14049184
  PAW double counting   =     28225.72728351   -29149.83702186
  entropy T*S    EENTRO =         0.00000000
  eigenvalues    EBANDS =     -2695.46902582
  atomic energy  EATOM  =     28505.01627691
  ---------------------------------------------------
  free energy    TOTEN  =       -81.94419668 eV

  energy without entropy =      -81.94419668  energy(sigma->0) =      -81.94419668


--------------------------------------------------------------------------------------------------------




--------------------------------------- Iteration      1(   9)  ---------------------------------------


    POTLOK:  cpu time    0.0983: real time    0.0983
    SETDIJ:  cpu time    0.6333: real time    0.6335
    TRIAL :  cpu time    2.4844: real time    2.4872
 BZINTS: Fermi energy:  5.055093;172.000000 electrons
         Band energy:***********;  BLOECHL correction:  0.000000
 BZINTS: Fermi energy:  5.055093;172.000000 electrons
         Band energy:***********;  BLOECHL correction:  0.000000
    CORREC:  cpu time    3.1094: real time    3.1121
    CHARGE:  cpu time    1.0235: real time    1.0237
    --------------------------------------------
      LOOP:  cpu time    7.3669: real time    7.3760

 eigenvalue-minimisations  :     0
 total energy-change (2. order) :-0.2076013E-06  (-0.8825437E-08)
 number of electron     171.9999902 magnetization       0.0000000     -0.0000000      0.0000000
 augmentation part       70.5446547 magnetization       0.0000001      0.0000000     -0.0003721

 Free energy of the ion-electron system (eV)
  ---------------------------------------------------
  alpha Z        PSCENC =       598.80625611
  Ewald energy   TEWEN  =    -15709.01508602
  -Hartree energ DENC   =    -10679.31336858
  -exchange      EXHF   =         0.00000000
  -V(xc)+E(xc)   XCENC  =       822.14049134
  PAW double counting   =     28225.72726088   -29149.83699918
  entropy T*S    EENTRO =         0.00000000
  eigenvalues    EBANDS =     -2695.46902836
  atomic energy  EATOM  =     28505.01627691
  ---------------------------------------------------
  free energy    TOTEN  =       -81.94419689 eV

  energy without entropy =      -81.94419689  energy(sigma->0) =      -81.94419689


--------------------------------------------------------------------------------------------------------




--------------------------------------- Iteration      1(  10)  ---------------------------------------


    POTLOK:  cpu time    0.1000: real time    0.1000
    SETDIJ:  cpu time    0.6339: real time    0.6341
    TRIAL :  cpu time    2.4832: real time    2.4859
 BZINTS: Fermi energy:  5.055093;172.000000 electrons
         Band energy:***********;  BLOECHL correction:  0.000000
 BZINTS: Fermi energy:  5.055093;172.000000 electrons
         Band energy:***********;  BLOECHL correction:  0.000000
    CORREC:  cpu time    3.1166: real time    3.1195
    CHARGE:  cpu time    1.0210: real time    1.0214
    --------------------------------------------
      LOOP:  cpu time    7.3752: real time    7.3847

 eigenvalue-minimisations  :     0
 total energy-change (2. order) :-0.3312925E-06  (-0.7828795E-08)
 number of electron     171.9999902 magnetization      -0.0000000      0.0000000      0.0000000
 augmentation part       70.5446547 magnetization       0.0000001      0.0000000     -0.0003721

 Free energy of the ion-electron system (eV)
  ---------------------------------------------------
  alpha Z        PSCENC =       598.80625611
  Ewald energy   TEWEN  =    -15709.01508602
  -Hartree energ DENC   =    -10679.31336787
  -exchange      EXHF   =         0.00000000
  -V(xc)+E(xc)   XCENC  =       822.14049063
  PAW double counting   =     28225.72725517   -29149.83699353
  entropy T*S    EENTRO =         0.00000000
  eigenvalues    EBANDS =     -2695.46902862
  atomic energy  EATOM  =     28505.01627691
  ---------------------------------------------------
  free energy    TOTEN  =       -81.94419722 eV

  energy without entropy =      -81.94419722  energy(sigma->0) =      -81.94419722


--------------------------------------------------------------------------------------------------------




--------------------------------------- Iteration      1(  11)  ---------------------------------------


    POTLOK:  cpu time    0.1002: real time    0.1002
    SETDIJ:  cpu time    0.6365: real time    0.6364
    TRIAL :  cpu time    2.4837: real time    2.4865
 BZINTS: Fermi energy:  5.055093;172.000000 electrons
         Band energy:***********;  BLOECHL correction:  0.000000
 BZINTS: Fermi energy:  5.055093;172.000000 electrons
         Band energy:***********;  BLOECHL correction:  0.000000
    CORREC:  cpu time    3.1274: real time    3.1304
    CHARGE:  cpu time    1.0328: real time    1.0330
    --------------------------------------------
      LOOP:  cpu time    7.4011: real time    7.4101

 eigenvalue-minimisations  :     0
 total energy-change (2. order) :-0.2858178E-06  (-0.7174886E-08)
 number of electron     171.9999902 magnetization      -0.0000000      0.0000000      0.0000000
 augmentation part       70.5446547 magnetization       0.0000001      0.0000000     -0.0003721

 Free energy of the ion-electron system (eV)
  ---------------------------------------------------
  alpha Z        PSCENC =       598.80625611
  Ewald energy   TEWEN  =    -15709.01508602
  -Hartree energ DENC   =    -10679.31336717
  -exchange      EXHF   =         0.00000000
  -V(xc)+E(xc)   XCENC  =       822.14049000
  PAW double counting   =     28225.72724948   -29149.83698790
  entropy T*S    EENTRO =         0.00000000
  eigenvalues    EBANDS =     -2695.46902891
  atomic energy  EATOM  =     28505.01627691
  ---------------------------------------------------
  free energy    TOTEN  =       -81.94419751 eV

  energy without entropy =      -81.94419751  energy(sigma->0) =      -81.94419751


--------------------------------------------------------------------------------------------------------




--------------------------------------- Iteration      1(  12)  ---------------------------------------


    POTLOK:  cpu time    0.0986: real time    0.0986
    SETDIJ:  cpu time    0.6359: real time    0.6361
    TRIAL :  cpu time    2.4934: real time    2.4959
 BZINTS: Fermi energy:  5.055093;172.000000 electrons
         Band energy:***********;  BLOECHL correction:  0.000000
 BZINTS: Fermi energy:  5.055093;172.000000 electrons
         Band energy:***********;  BLOECHL correction:  0.000000
    CORREC:  cpu time    3.1005: real time    3.1035
    CHARGE:  cpu time    1.0208: real time    1.0211
    --------------------------------------------
      LOOP:  cpu time    7.3649: real time    7.3742

 eigenvalue-minimisations  :     0
 total energy-change (2. order) :-0.2586894E-06  (-0.6812702E-08)
 number of electron     171.9999902 magnetization       0.0000000      0.0000000     -0.0000000
 augmentation part       70.5446547 magnetization       0.0000001      0.0000000     -0.0003721

 Free energy of the ion-electron system (eV)
  ---------------------------------------------------
  alpha Z        PSCENC =       598.80625611
  Ewald energy   TEWEN  =    -15709.01508602
  -Hartree energ DENC   =    -10679.31336646
  -exchange      EXHF   =         0.00000000
  -V(xc)+E(xc)   XCENC  =       822.14048943
  PAW double counting   =     28225.72724366   -29149.83698216
  entropy T*S    EENTRO =         0.00000000
  eigenvalues    EBANDS =     -2695.46902924
  atomic energy  EATOM  =     28505.01627691
  ---------------------------------------------------
  free energy    TOTEN  =       -81.94419777 eV

  energy without entropy =      -81.94419777  energy(sigma->0) =      -81.94419777


--------------------------------------------------------------------------------------------------------




--------------------------------------- Iteration      1(  13)  ---------------------------------------


    POTLOK:  cpu time    0.0991: real time    0.0991
    SETDIJ:  cpu time    0.6339: real time    0.6340
    TRIAL :  cpu time    2.4973: real time    2.5001
 BZINTS: Fermi energy:  5.055093;172.000000 electrons
         Band energy:***********;  BLOECHL correction:  0.000000
 BZINTS: Fermi energy:  5.055093;172.000000 electrons
         Band energy:***********;  BLOECHL correction:  0.000000
    CORREC:  cpu time    3.1370: real time    3.1397
    CHARGE:  cpu time    1.0210: real time    1.0212
    --------------------------------------------
      LOOP:  cpu time    7.4098: real time    7.4194

 eigenvalue-minimisations  :     0
 total energy-change (2. order) :-0.2397792E-06  (-0.6005448E-08)
 number of electron     171.9999902 magnetization       0.0000000      0.0000000      0.0000000
 augmentation part       70.5446547 magnetization       0.0000001      0.0000000     -0.0003721

 Free energy of the ion-electron system (eV)
  ---------------------------------------------------
  alpha Z        PSCENC =       598.80625611
  Ewald energy   TEWEN  =    -15709.01508602
  -Hartree energ DENC   =    -10679.31336575
  -exchange      EXHF   =         0.00000000
  -V(xc)+E(xc)   XCENC  =       822.14048890
  PAW double counting   =     28225.72723788   -29149.83697647
  entropy T*S    EENTRO =         0.00000000
  eigenvalues    EBANDS =     -2695.46902957
  atomic energy  EATOM  =     28505.01627691
  ---------------------------------------------------
  free energy    TOTEN  =       -81.94419801 eV

  energy without entropy =      -81.94419801  energy(sigma->0) =      -81.94419801


--------------------------------------------------------------------------------------------------------




--------------------------------------- Iteration      1(  14)  ---------------------------------------


    POTLOK:  cpu time    0.0969: real time    0.0968
    SETDIJ:  cpu time    0.6337: real time    0.6339
    TRIAL :  cpu time    2.4903: real time    2.4930
 BZINTS: Fermi energy:  5.055092;172.000000 electrons
         Band energy:***********;  BLOECHL correction:  0.000000
 BZINTS: Fermi energy:  5.055093;172.000000 electrons
         Band energy:***********;  BLOECHL correction:  0.000000
    CORREC:  cpu time    3.1154: real time    3.1182
    CHARGE:  cpu time    1.0218: real time    1.0222
    --------------------------------------------
      LOOP:  cpu time    7.3786: real time    7.3880

 eigenvalue-minimisations  :     0
 total energy-change (2. order) :-0.2301604E-06  (-0.5564961E-08)
 number of electron     171.9999902 magnetization       0.0000000      0.0000000      0.0000000
 augmentation part       70.5446547 magnetization       0.0000001      0.0000000     -0.0003721

 Free energy of the ion-electron system (eV)
  ---------------------------------------------------
  alpha Z        PSCENC =       598.80625611
  Ewald energy   TEWEN  =    -15709.01508602
  -Hartree energ DENC   =    -10679.31336504
  -exchange      EXHF   =         0.00000000
  -V(xc)+E(xc)   XCENC  =       822.14048839
  PAW double counting   =     28225.72723229   -29149.83697099
  entropy T*S    EENTRO =         0.00000000
  eigenvalues    EBANDS =     -2695.46902988
  atomic energy  EATOM  =     28505.01627691
  ---------------------------------------------------
  free energy    TOTEN  =       -81.94419824 eV

  energy without entropy =      -81.94419824  energy(sigma->0) =      -81.94419824


--------------------------------------------------------------------------------------------------------




--------------------------------------- Iteration      1(  15)  ---------------------------------------


    POTLOK:  cpu time    0.1009: real time    0.1009
    SETDIJ:  cpu time    0.6335: real time    0.6335
    TRIAL :  cpu time    2.4875: real time    2.4903
 BZINTS: Fermi energy:  5.055092;172.000000 electrons
         Band energy:***********;  BLOECHL correction:  0.000000
 BZINTS: Fermi energy:  5.055093;172.000000 electrons
         Band energy:***********;  BLOECHL correction:  0.000000
    CORREC:  cpu time    3.1181: real time    3.1210
    CHARGE:  cpu time    1.0197: real time    1.0199
    --------------------------------------------
      LOOP:  cpu time    7.3803: real time    7.3893

 eigenvalue-minimisations  :     0
 total energy-change (2. order) :-0.2254419E-06  (-0.3610280E-08)
 number of electron     171.9999902 magnetization       0.0000000      0.0000000      0.0000000
 augmentation part       70.5446547 magnetization       0.0000001      0.0000000     -0.0003721

 Free energy of the ion-electron system (eV)
  ---------------------------------------------------
  alpha Z        PSCENC =       598.80625611
  Ewald energy   TEWEN  =    -15709.01508602
  -Hartree energ DENC   =    -10679.31336438
  -exchange      EXHF   =         0.00000000
  -V(xc)+E(xc)   XCENC  =       822.14048787
  PAW double counting   =     28225.72722737   -29149.83696619
  entropy T*S    EENTRO =         0.00000000
  eigenvalues    EBANDS =     -2695.46903013
  atomic energy  EATOM  =     28505.01627691
  ---------------------------------------------------
  free energy    TOTEN  =       -81.94419846 eV

  energy without entropy =      -81.94419846  energy(sigma->0) =      -81.94419846


--------------------------------------------------------------------------------------------------------




--------------------------------------- Iteration      1(  16)  ---------------------------------------


    POTLOK:  cpu time    0.0989: real time    0.0989
    SETDIJ:  cpu time    0.6330: real time    0.6332
    TRIAL :  cpu time    2.4916: real time    2.4940
 BZINTS: Fermi energy:  5.055092;172.000000 electrons
         Band energy:***********;  BLOECHL correction:  0.000000
 BZINTS: Fermi energy:  5.055093;172.000000 electrons
         Band energy:***********;  BLOECHL correction:  0.000000
    CORREC:  cpu time    3.1279: real time    3.1308
    CHARGE:  cpu time    1.0237: real time    1.0239
    --------------------------------------------
      LOOP:  cpu time    7.3961: real time    7.4056

 eigenvalue-minimisations  :     0
 total energy-change (2. order) :-0.1208191E-06  (-0.2703105E-08)
 number of electron     171.9999902 magnetization       0.0000000      0.0000000     -0.0000000
 augmentation part       70.5446547 magnetization       0.0000001      0.0000000     -0.0003721

 Free energy of the ion-electron system (eV)
  ---------------------------------------------------
  alpha Z        PSCENC =       598.80625611
  Ewald energy   TEWEN  =    -15709.01508602
  -Hartree energ DENC   =    -10679.31336404
  -exchange      EXHF   =         0.00000000
  -V(xc)+E(xc)   XCENC  =       822.14048760
  PAW double counting   =     28225.72722504   -29149.83696394
  entropy T*S    EENTRO =         0.00000000
  eigenvalues    EBANDS =     -2695.46903024
  atomic energy  EATOM  =     28505.01627691
  ---------------------------------------------------
  free energy    TOTEN  =       -81.94419858 eV

  energy without entropy =      -81.94419858  energy(sigma->0) =      -81.94419858


--------------------------------------------------------------------------------------------------------




--------------------------------------- Iteration      1(  17)  ---------------------------------------


    POTLOK:  cpu time    0.0973: real time    0.0973
    SETDIJ:  cpu time    0.6336: real time    0.6337
    TRIAL :  cpu time    2.4808: real time    2.4836
 BZINTS: Fermi energy:  5.055092;172.000000 electrons
         Band energy:***********;  BLOECHL correction:  0.000000
 BZINTS: Fermi energy:  5.055093;172.000000 electrons
         Band energy:***********;  BLOECHL correction:  0.000000
    CORREC:  cpu time    3.1114: real time    3.1141
    CHARGE:  cpu time    1.0184: real time    1.0186
    --------------------------------------------
      LOOP:  cpu time    7.3624: real time    7.3716

 eigenvalue-minimisations  :     0
 total energy-change (2. order) :-0.1245244E-06  (-0.3045390E-08)
 number of electron     171.9999902 magnetization       0.0000000      0.0000000      0.0000000
 augmentation part       70.5446547 magnetization       0.0000001      0.0000000     -0.0003721

 Free energy of the ion-electron system (eV)
  ---------------------------------------------------
  alpha Z        PSCENC =       598.80625611
  Ewald energy   TEWEN  =    -15709.01508602
  -Hartree energ DENC   =    -10679.31336366
  -exchange      EXHF   =         0.00000000
  -V(xc)+E(xc)   XCENC  =       822.14048732
  PAW double counting   =     28225.72722250   -29149.83696150
  entropy T*S    EENTRO =         0.00000000
  eigenvalues    EBANDS =     -2695.46903036
  atomic energy  EATOM  =     28505.01627691
  ---------------------------------------------------
  free energy    TOTEN  =       -81.94419871 eV

  energy without entropy =      -81.94419871  energy(sigma->0) =      -81.94419871


--------------------------------------------------------------------------------------------------------




--------------------------------------- Iteration      1(  18)  ---------------------------------------


    POTLOK:  cpu time    0.0996: real time    0.0996
    SETDIJ:  cpu time    0.6337: real time    0.6339
    TRIAL :  cpu time    2.4895: real time    2.4922
 BZINTS: Fermi energy:  5.055092;172.000000 electrons
         Band energy:***********;  BLOECHL correction:  0.000000
 BZINTS: Fermi energy:  5.055092;172.000000 electrons
         Band energy:***********;  BLOECHL correction:  0.000000
    CORREC:  cpu time    3.1269: real time    3.1297
    CHARGE:  cpu time    1.0212: real time    1.0214
    --------------------------------------------
      LOOP:  cpu time    7.3926: real time    7.4022

 eigenvalue-minimisations  :     0
 total energy-change (2. order) :-0.9929681E-07  (-0.1862104E-08)
 number of electron     171.9999902 magnetization      -0.0000000      0.0000000     -0.0000000
 augmentation part       70.5446547 magnetization       0.0000001      0.0000000     -0.0003721

 Free energy of the ion-electron system (eV)
  ---------------------------------------------------
  alpha Z        PSCENC =       598.80625611
  Ewald energy   TEWEN  =    -15709.01508602
  -Hartree energ DENC   =    -10679.31336333
  -exchange      EXHF   =         0.00000000
  -V(xc)+E(xc)   XCENC  =       822.14048709
  PAW double counting   =     28225.72722030   -29149.83695940
  entropy T*S    EENTRO =         0.00000000
  eigenvalues    EBANDS =     -2695.46903047
  atomic energy  EATOM  =     28505.01627691
  ---------------------------------------------------
  free energy    TOTEN  =       -81.94419881 eV

  energy without entropy =      -81.94419881  energy(sigma->0) =      -81.94419881


--------------------------------------------------------------------------------------------------------




--------------------------------------- Iteration      1(  19)  ---------------------------------------


    POTLOK:  cpu time    0.0977: real time    0.0977
    SETDIJ:  cpu time    0.6339: real time    0.6338
    TRIAL :  cpu time    2.4923: real time    2.4952
 BZINTS: Fermi energy:  5.055092;172.000000 electrons
         Band energy:***********;  BLOECHL correction:  0.000000
 BZINTS: Fermi energy:  5.055092;172.000000 electrons
         Band energy:***********;  BLOECHL correction:  0.000000
    CORREC:  cpu time    3.1417: real time    3.1447
    CHARGE:  cpu time    1.0321: real time    1.0323
    --------------------------------------------
      LOOP:  cpu time    7.4149: real time    7.4245

 eigenvalue-minimisations  :     0
 total energy-change (2. order) :-0.7844574E-07  (-0.1756519E-08)
 number of electron     171.9999902 magnetization       0.0000000      0.0000000      0.0000000
 augmentation part       70.5446547 magnetization       0.0000001      0.0000000     -0.0003721

 Free energy of the ion-electron system (eV)
  ---------------------------------------------------
  alpha Z        PSCENC =       598.80625611
  Ewald energy   TEWEN  =    -15709.01508602
  -Hartree energ DENC   =    -10679.31336303
  -exchange      EXHF   =         0.00000000
  -V(xc)+E(xc)   XCENC  =       822.14048692
  PAW double counting   =     28225.72721847   -29149.83695765
  entropy T*S    EENTRO =         0.00000000
  eigenvalues    EBANDS =     -2695.46903058
  atomic energy  EATOM  =     28505.01627691
  ---------------------------------------------------
  free energy    TOTEN  =       -81.94419889 eV

  energy without entropy =      -81.94419889  energy(sigma->0) =      -81.94419889


--------------------------------------------------------------------------------------------------------




--------------------------------------- Iteration      1(  20)  ---------------------------------------


    POTLOK:  cpu time    0.1014: real time    0.1014
    SETDIJ:  cpu time    0.6344: real time    0.6346
    TRIAL :  cpu time    2.4939: real time    2.4964
 BZINTS: Fermi energy:  5.055092;172.000000 electrons
         Band energy:***********;  BLOECHL correction:  0.000000
 BZINTS: Fermi energy:  5.055092;172.000000 electrons
         Band energy:***********;  BLOECHL correction:  0.000000
    CORREC:  cpu time    3.1173: real time    3.1203
    CHARGE:  cpu time    1.0204: real time    1.0206
    --------------------------------------------
      LOOP:  cpu time    7.3829: real time    7.3919

 eigenvalue-minimisations  :     0
 total energy-change (2. order) :-0.4594767E-07  (-0.1624847E-08)
 number of electron     171.9999902 magnetization       0.0000000      0.0000000     -0.0000000
 augmentation part       70.5446547 magnetization       0.0000001      0.0000000     -0.0003721

 Free energy of the ion-electron system (eV)
  ---------------------------------------------------
  alpha Z        PSCENC =       598.80625611
  Ewald energy   TEWEN  =    -15709.01508602
  -Hartree energ DENC   =    -10679.31336284
  -exchange      EXHF   =         0.00000000
  -V(xc)+E(xc)   XCENC  =       822.14048681
  PAW double counting   =     28225.72721754   -29149.83695679
  entropy T*S    EENTRO =         0.00000000
  eigenvalues    EBANDS =     -2695.46903065
  atomic energy  EATOM  =     28505.01627691
  ---------------------------------------------------
  free energy    TOTEN  =       -81.94419893 eV

  energy without entropy =      -81.94419893  energy(sigma->0) =      -81.94419893


--------------------------------------------------------------------------------------------------------




--------------------------------------- Iteration      1(  21)  ---------------------------------------


    POTLOK:  cpu time    0.0975: real time    0.0975
    SETDIJ:  cpu time    0.6345: real time    0.6346
    TRIAL :  cpu time    2.4923: real time    2.4952
 BZINTS: Fermi energy:  5.055092;172.000000 electrons
         Band energy:***********;  BLOECHL correction:  0.000000
 BZINTS: Fermi energy:  5.055092;172.000000 electrons
         Band energy:***********;  BLOECHL correction:  0.000000
    CORREC:  cpu time    3.1112: real time    3.1139
    CHARGE:  cpu time    1.0252: real time    1.0254
    --------------------------------------------
      LOOP:  cpu time    7.3835: real time    7.3927

 eigenvalue-minimisations  :     0
 total energy-change (2. order) :-0.8183997E-07  (-0.1629948E-08)
 number of electron     171.9999902 magnetization       0.0000000      0.0000000      0.0000000
 augmentation part       70.5446547 magnetization       0.0000001      0.0000000     -0.0003721

 Free energy of the ion-electron system (eV)
  ---------------------------------------------------
  alpha Z        PSCENC =       598.80625611
  Ewald energy   TEWEN  =    -15709.01508602
  -Hartree energ DENC   =    -10679.31336258
  -exchange      EXHF   =         0.00000000
  -V(xc)+E(xc)   XCENC  =       822.14048662
  PAW double counting   =     28225.72721632   -29149.83695566
  entropy T*S    EENTRO =         0.00000000
  eigenvalues    EBANDS =     -2695.46903071
  atomic energy  EATOM  =     28505.01627691
  ---------------------------------------------------
  free energy    TOTEN  =       -81.94419901 eV

  energy without entropy =      -81.94419901  energy(sigma->0) =      -81.94419901


--------------------------------------------------------------------------------------------------------




--------------------------------------- Iteration      1(  22)  ---------------------------------------


    POTLOK:  cpu time    0.1007: real time    0.1007
    SETDIJ:  cpu time    0.6341: real time    0.6343
    TRIAL :  cpu time    2.4757: real time    2.4784
 BZINTS: Fermi energy:  5.055092;172.000000 electrons
         Band energy:***********;  BLOECHL correction:  0.000000
[...]
  0.000   0.000   0.000   0.000   0.000  -0.000   0.000  -0.000  -0.000  -0.000   0.000  -0.000   0.000  -0.000  -0.000  -0.000
 pseudopotential strength for first ion, spin component:           3
 -0.000   0.000  -0.000   0.000  -0.000  -0.000   0.000  -0.000   0.000  -0.000  -0.000  -0.000   0.000  -0.000   0.000  -0.000
 -0.000   0.000  -0.000   0.000  -0.000  -0.000   0.000  -0.000   0.000  -0.000  -0.000  -0.000   0.000  -0.000   0.000  -0.000
 -0.000  -0.000  -0.000  -0.000  -0.000   0.000   0.000   0.000   0.000   0.000  -0.000   0.000   0.000   0.000   0.000   0.000
  0.000  -0.000   0.000  -0.000   0.000   0.000  -0.000  -0.000   0.000   0.000   0.000   0.000  -0.000  -0.000   0.000   0.000
  0.000  -0.000   0.000  -0.000   0.000   0.000   0.000   0.000  -0.000   0.000   0.000   0.000   0.000   0.000  -0.000   0.000
 -0.000  -0.000  -0.000  -0.000  -0.000   0.000   0.000   0.000   0.000   0.000  -0.000   0.000   0.000   0.000   0.000   0.000
  0.000  -0.000   0.000  -0.000   0.000   0.000  -0.000  -0.000   0.000   0.000   0.000   0.000  -0.000  -0.000   0.000   0.000
  0.000  -0.000   0.000  -0.000   0.000   0.000   0.000   0.000  -0.000   0.000   0.000   0.000   0.000   0.000  -0.000   0.000
 pseudopotential strength for first ion, spin component:           4
 39.468   0.000  45.326   0.000  -0.001   0.000  -0.001   0.000  -0.002   0.000  -0.001   0.000  -0.002   0.000  -0.003   0.000
 45.326   0.000  52.057   0.000  -0.001   0.000  -0.002   0.000  -0.003   0.000  -0.001   0.000  -0.002   0.000  -0.004   0.000
 -0.001   0.000  -0.001   0.000   8.197   0.000   0.002   0.000  -0.001   0.000  11.111   0.000   0.002   0.000  -0.001   0.000
 -0.001   0.000  -0.002   0.000   0.002   0.000   8.199   0.000  -0.000   0.000   0.002   0.000  11.113   0.000  -0.000   0.000
 -0.002   0.000  -0.003   0.000  -0.001   0.000  -0.000   0.000   8.198   0.000  -0.001   0.000  -0.000   0.000  11.112   0.000
 -0.001   0.000  -0.001   0.000  11.111   0.000   0.002   0.000  -0.001   0.000  15.080   0.000   0.003   0.000  -0.001   0.000
 -0.002   0.000  -0.002   0.000   0.002   0.000  11.113   0.000  -0.000   0.000   0.003   0.000  15.083   0.000  -0.001   0.000
 -0.003   0.000  -0.004   0.000  -0.001   0.000  -0.000   0.000  11.112   0.000  -0.001   0.000  -0.001   0.000  15.081   0.000
 total augmentation occupancy for first ion, spin component:           1
 11.125  -6.931   0.000   0.000  -0.519   0.000   0.000   0.136
 -6.931   5.019   0.000   0.000   0.425   0.000   0.000  -0.082
  0.000   0.000   3.623   0.078   0.000  -1.020  -0.040   0.000
  0.000   0.000   0.078   3.767   0.000  -0.040  -1.098   0.000
 -0.519   0.425   0.000   0.000   3.623   0.000   0.000  -1.022
  0.000   0.000  -1.020  -0.040   0.000   0.345   0.014   0.000
  0.000   0.000  -0.040  -1.098   0.000   0.014   0.374   0.000
  0.136  -0.082   0.000   0.000  -1.022   0.000   0.000   0.346
 total augmentation occupancy for first ion, spin component:           2
  0.000  -0.000   0.000   0.000  -0.000   0.000  -0.000  -0.000
 -0.000  -0.000  -0.000  -0.000   0.000   0.000   0.000   0.000
 -0.000   0.000  -0.000   0.000   0.000   0.000  -0.000   0.000
  0.000   0.000   0.000  -0.000   0.000  -0.000   0.000   0.000
 -0.000   0.000   0.000   0.000   0.000  -0.000   0.000  -0.000
  0.000   0.000   0.000  -0.000   0.000  -0.000   0.000   0.000
  0.000   0.000  -0.000   0.000   0.000   0.000  -0.000   0.000
 -0.000   0.000   0.000   0.000  -0.000   0.000   0.000   0.000
 total augmentation occupancy for first ion, spin component:           3
  0.000   0.000   0.000   0.000  -0.000  -0.000  -0.000   0.000
  0.000   0.000  -0.000  -0.000   0.000   0.000   0.000  -0.000
  0.000  -0.000  -0.000   0.000  -0.000   0.000  -0.000   0.000
  0.000  -0.000   0.000   0.000  -0.000   0.000  -0.000   0.000
  0.000   0.000  -0.000  -0.000  -0.000   0.000   0.000   0.000
 -0.000   0.000  -0.000  -0.000   0.000  -0.000   0.000  -0.000
 -0.000   0.000  -0.000  -0.000   0.000   0.000  -0.000  -0.000
  0.000   0.000   0.000   0.000   0.000  -0.000  -0.000   0.000
 total augmentation occupancy for first ion, spin component:           4
  0.000   0.000   0.105   0.093   0.000   0.081   0.085  -0.000
  0.000   0.000  -0.083  -0.072   0.000  -0.089  -0.092  -0.000
  0.105  -0.083   0.000   0.000   0.006   0.000   0.000  -0.002
  0.093  -0.072   0.000  -0.000   0.009   0.000   0.000  -0.007
  0.000  -0.000   0.006   0.009   0.000  -0.001  -0.006   0.000
  0.081  -0.089   0.000   0.000  -0.001   0.000   0.000   0.015
  0.085  -0.092   0.000   0.000  -0.006   0.000   0.000   0.016
 -0.000  -0.000  -0.002  -0.007   0.000   0.015   0.016   0.000


------------------------ aborting loop because EDIFF is reached ----------------------------------------


 


 total charge     
 
# of ion       s       p       d       tot
------------------------------------------
    1        1.313   2.418   0.000   3.731
    2        1.313   2.418   0.000   3.731
    3        1.313   2.417   0.000   3.730
    4        1.313   2.416   0.000   3.730
    5        1.313   2.418   0.000   3.731
    6        1.313   2.418   0.000   3.731
    7        1.313   2.417   0.000   3.730
    8        1.313   2.416   0.000   3.730
    9        0.264   6.211   8.913  15.388
   10        0.264   6.211   8.913  15.388
   11        0.264   6.211   8.913  15.388
   12        0.264   6.211   8.913  15.388
   13        0.353   6.357   5.830  12.539
   14        0.353   6.357   5.829  12.538
   15        0.353   6.357   5.830  12.539
   16        0.353   6.357   5.829  12.538
--------------------------------------------------
tot         12.975  69.607  58.970 141.552
 


 magnetization (x)
 
# of ion       s       p       d       tot
------------------------------------------
    1        0.000  -0.000   0.000   0.000
    2       -0.000   0.000   0.000  -0.000
    3       -0.000   0.000   0.000   0.000
    4       -0.000   0.000   0.000  -0.000
    5       -0.000   0.000   0.000  -0.000
    6        0.000  -0.000   0.000   0.000
    7       -0.000   0.000   0.000   0.000
    8       -0.000   0.000   0.000  -0.000
    9       -0.000   0.000  -0.000  -0.000
   10       -0.000   0.000   0.000   0.000
   11       -0.000   0.000  -0.000  -0.000
   12       -0.000   0.000   0.000   0.000
   13        0.000  -0.000  -0.000  -0.000
   14       -0.000  -0.000  -0.000  -0.000
   15        0.000  -0.000  -0.000  -0.000
   16       -0.000  -0.000  -0.000  -0.000
--------------------------------------------------
tot         -0.000   0.000  -0.000  -0.000
 


 magnetization (y)
 
# of ion       s       p       d       tot
------------------------------------------
    1       -0.000  -0.000   0.000  -0.000
    2       -0.000  -0.000   0.000  -0.000
    3        0.000  -0.000   0.000  -0.000
    4       -0.000   0.000   0.000   0.000
    5       -0.000  -0.000   0.000  -0.000
    6       -0.000  -0.000   0.000  -0.000
    7        0.000  -0.000   0.000  -0.000
    8       -0.000   0.000   0.000   0.000
    9        0.000  -0.000  -0.000  -0.000
   10        0.000  -0.000   0.000   0.000
   11        0.000  -0.000  -0.000  -0.000
   12        0.000  -0.000   0.000   0.000
   13        0.000   0.000   0.000   0.000
   14       -0.000  -0.000   0.000  -0.000
   15        0.000   0.000   0.000   0.000
   16       -0.000  -0.000   0.000  -0.000
--------------------------------------------------
tot          0.000  -0.000   0.000   0.000
 


 magnetization (z)
 
# of ion       s       p       d       tot
------------------------------------------
    1        0.000  -0.003   0.000  -0.002
    2        0.000  -0.004   0.000  -0.003
    3       -0.000   0.003   0.000   0.003
    4       -0.000   0.003   0.000   0.003
    5        0.000  -0.004   0.000  -0.003
    6        0.000  -0.003   0.000  -0.002
    7       -0.000   0.003   0.000   0.003
    8       -0.000   0.003   0.000   0.003
    9        0.001  -0.001   0.010   0.009
   10       -0.001   0.001  -0.010  -0.009
   11        0.001  -0.001   0.010   0.009
   12       -0.001   0.001  -0.010  -0.009
   13        0.020   0.054   3.659   3.732
   14       -0.020  -0.054  -3.659  -3.733
   15        0.020   0.054   3.659   3.732
   16       -0.020  -0.054  -3.659  -3.733
--------------------------------------------------
tot         -0.000   0.001  -0.001  -0.000
 
    FORLOC:  cpu time    0.0037: real time    0.0037
    FORNL :  cpu time    0.7358: real time    0.7360
    STRESS:  cpu time    0.6562: real time    0.6565
    FORCOR:  cpu time    0.0910: real time    0.0910
    OFIELD:  cpu time    0.0006: real time    0.0006

  FORCE on cell =-STRESS in cart. coord.  units (eV):
  Direction    XX          YY          ZZ          XY          YZ          ZX
  --------------------------------------------------------------------------------------
  Alpha Z   598.80626   598.80626   598.80626
  Ewald   -5346.65541 -5346.65541 -5015.73948    -0.00000     0.00000    -0.00000
  Hartree  3500.95665  3500.95665  3677.40005    -0.00000    -0.00000    -0.00000
  E(xc)   -1051.21644 -1051.21644 -1051.02888    -0.00000    -0.00000    -0.00000
  Local   -1048.26991 -1048.26991 -1552.60948    -0.00000    -0.00000    -0.00000
  n-local   121.50444   123.17109   126.82625    -0.28660     0.01559    -0.01672
  augment  1180.56571  1180.56571  1181.79841    -0.00000     0.00000    -0.00000
  Kinetic  2040.15417  2054.37523  2034.54678    -0.89578     0.11588     0.00178
  Fock        0.00000     0.00000     0.00000     0.00000     0.00000     0.00000
  -------------------------------------------------------------------------------------
  Total       3.78933     3.78933    -0.00009     0.00000     0.00000     0.00000
  in kB      21.45484    21.45484    -0.00051     0.00000     0.00000     0.00000
  external pressure =       14.30 kB  Pullay stress =        0.00 kB


 VOLUME and BASIS-vectors are now :
 -----------------------------------------------------------------------------
  energy-cutoff  :      700.00
  volume of cell :      282.97
      direct lattice vectors                 reciprocal lattice vectors
     5.101022086  0.000000000  0.000000000     0.196039143  0.000000000  0.000000000
     0.000000000  5.101022086  0.000000000     0.000000000  0.196039143  0.000000000
     0.000000000  0.000000000 10.875091365     0.000000000  0.000000000  0.091953250

  length of vectors
     5.101022086  5.101022086 10.875091365     0.196039143  0.196039143  0.091953250


 FORCES acting on ions:
    Electron-Ion                     Ewald-Force                    Non-Local-Force
 -----------------------------------------------------------------------------------------------
   0.419E+02 0.298E-12 0.115E-12   -.427E+02 0.284E-13 -.568E-13   0.849E+00 0.317E-18 0.496E-18
   -.419E+02 0.621E-12 0.649E-12   0.427E+02 0.568E-13 -.568E-13   -.849E+00 -.122E-18 -.152E-18
   0.535E-12 -.419E+02 -.314E-13   -.107E-13 0.427E+02 0.000E+00   -.775E-19 -.849E+00 0.696E-19
   0.579E-12 0.419E+02 -.144E-11   0.169E-13 -.427E+02 -.426E-13   0.559E-18 0.849E+00 0.310E-18
   -.419E+02 -.479E-12 -.947E-13   0.427E+02 0.373E-13 0.284E-13   -.849E+00 -.998E-19 -.624E-18
   0.419E+02 0.643E-12 -.695E-12   -.427E+02 0.400E-13 0.000E+00   0.849E+00 0.700E-18 -.502E-18
   0.357E-12 -.419E+02 0.421E-12   0.995E-13 0.427E+02 0.142E-12   -.562E-19 -.849E+00 0.269E-19
   0.357E-12 0.419E+02 0.528E-12   0.142E-12 -.427E+02 0.853E-13   0.931E-19 0.849E+00 -.258E-18
   0.000E+00 0.435E-12 0.333E-11   0.100E-04 -.213E-04 -.568E-13   0.450E-18 -.262E-18 0.157E-17
   0.152E-11 -.501E-12 -.683E-11   -.100E-04 -.213E-04 0.293E-18   0.112E-19 -.665E-19 -.114E-17
   0.152E-11 -.490E-11 0.125E-12   -.100E-04 0.213E-04 -.568E-13   -.955E-19 0.488E-19 0.152E-17
   0.000E+00 0.103E-11 0.476E-11   0.100E-04 0.213E-04 0.196E-13   -.442E-18 -.244E-18 -.117E-17
   0.535E-12 0.217E-12 0.784E-13   -.736E-05 0.179E-04 0.000E+00   -.490E-18 0.534E-18 0.459E-17
   0.120E-11 -.195E-12 -.302E-10   0.736E-05 0.179E-04 0.301E-12   0.543E-18 0.351E-18 0.346E-17
   0.120E-11 -.424E-11 -.955E-11   0.736E-05 -.179E-04 -.114E-12   -.159E-18 -.174E-19 -.429E-17
   0.490E-12 0.423E-12 0.601E-12   -.736E-05 -.179E-04 -.171E-12   0.698E-18 0.290E-18 -.479E-17
 -----------------------------------------------------------------------------------------------
   0.140E-10 -.190E-12 -.385E-10   -.130E-13 0.299E-13 0.218E-13   0.112E-15 -.110E-15 -.872E-18
 
 
 POSITION                                       TOTAL-FORCE (eV/Angst)
 -----------------------------------------------------------------------------------
      1.29089      1.27526      1.35939        -0.000009      0.000000     -0.000000
      3.81013      3.82577      1.35939         0.000009     -0.000000     -0.000000
      1.27526      3.81013      9.51570        -0.000000      0.000009     -0.000000
      3.82577      1.29089      9.51570        -0.000000     -0.000009      0.000000
      1.25962      1.27526      6.79693         0.000009     -0.000000     -0.000000
      3.84140      3.82577      6.79693        -0.000009      0.000000      0.000000
      3.82577      1.25962      4.07816        -0.000000      0.000009     -0.000000
      1.27526      3.84140      4.07816        -0.000000     -0.000009     -0.000000
      0.00000      0.00000      5.43755        -0.000000      0.000000     -0.000000
      2.55051      0.00000      2.71877         0.000000     -0.000000      0.000000
      2.55051      2.55051      0.00000        -0.000000     -0.000000     -0.000000
      0.00000      2.55051      8.15632         0.000000     -0.000000     -0.000000
      0.00000      0.00000      0.00000        -0.000000     -0.000000     -0.000000
      2.55051      0.00000      8.15632         0.000000     -0.000000      0.000000
      2.55051      2.55051      5.43755         0.000000     -0.000000     -0.000000
      0.00000      2.55051      2.71877         0.000000     -0.000000      0.000000
 -----------------------------------------------------------------------------------
    total drift:                                0.000000     -0.000000     -0.000000


--------------------------------------------------------------------------------------------------------



  FREE ENERGIE OF THE ION-ELECTRON SYSTEM (eV)
  ---------------------------------------------------
  free  energy   TOTEN  =       -81.94419940 eV

  energy  without entropy=      -81.94419940  energy(sigma->0) =      -81.94419940
 


--------------------------------------------------------------------------------------------------------


    POTLOK:  cpu time    0.7400: real time    0.7400


--------------------------------------------------------------------------------------------------------


 writing wavefunctions
     LOOP+:  cpu time  200.1836: real time  205.4224
    4ORBIT:  cpu time    0.0000: real time    0.0000
 


 total charge     
 
# of ion       s       p       d       tot
------------------------------------------
    1        1.313   2.418   0.000   3.731
    2        1.313   2.418   0.000   3.731
    3        1.313   2.417   0.000   3.730
    4        1.313   2.416   0.000   3.730
    5        1.313   2.418   0.000   3.731
    6        1.313   2.418   0.000   3.731
    7        1.313   2.417   0.000   3.730
    8        1.313   2.416   0.000   3.730
    9        0.264   6.211   8.913  15.388
   10        0.264   6.211   8.913  15.388
   11        0.264   6.211   8.913  15.388
   12        0.264   6.211   8.913  15.388
   13        0.353   6.357   5.830  12.539
   14        0.353   6.357   5.829  12.538
   15        0.353   6.357   5.830  12.539
   16        0.353   6.357   5.829  12.538
--------------------------------------------------
tot         12.975  69.607  58.970 141.552
 


 magnetization (x)
 
# of ion       s       p       d       tot
------------------------------------------
    1        0.000  -0.000   0.000   0.000
    2       -0.000   0.000   0.000  -0.000
    3       -0.000   0.000   0.000   0.000
    4       -0.000   0.000   0.000  -0.000
    5       -0.000   0.000   0.000  -0.000
    6        0.000  -0.000   0.000   0.000
    7       -0.000   0.000   0.000   0.000
    8       -0.000   0.000   0.000  -0.000
    9       -0.000   0.000  -0.000  -0.000
   10       -0.000   0.000   0.000   0.000
   11       -0.000   0.000  -0.000  -0.000
   12       -0.000   0.000   0.000   0.000
   13        0.000  -0.000  -0.000  -0.000
   14       -0.000  -0.000  -0.000  -0.000
   15        0.000  -0.000  -0.000  -0.000
   16       -0.000  -0.000  -0.000  -0.000
--------------------------------------------------
tot         -0.000   0.000  -0.000  -0.000
 


 magnetization (y)
 
# of ion       s       p       d       tot
------------------------------------------
    1       -0.000  -0.000   0.000  -0.000
    2       -0.000  -0.000   0.000  -0.000
    3        0.000  -0.000   0.000  -0.000
    4       -0.000   0.000   0.000   0.000
    5       -0.000  -0.000   0.000  -0.000
    6       -0.000  -0.000   0.000  -0.000
    7        0.000  -0.000   0.000  -0.000
    8       -0.000   0.000   0.000   0.000
    9        0.000  -0.000  -0.000  -0.000
   10        0.000  -0.000   0.000   0.000
   11        0.000  -0.000  -0.000  -0.000
   12        0.000  -0.000   0.000   0.000
   13        0.000   0.000   0.000   0.000
   14       -0.000  -0.000   0.000  -0.000
   15        0.000   0.000   0.000   0.000
   16       -0.000  -0.000   0.000  -0.000
--------------------------------------------------
tot          0.000  -0.000   0.000   0.000
 


 magnetization (z)
 
# of ion       s       p       d       tot
------------------------------------------
    1        0.000  -0.003   0.000  -0.002
    2        0.000  -0.004   0.000  -0.003
    3       -0.000   0.003   0.000   0.003
    4       -0.000   0.003   0.000   0.003
    5        0.000  -0.004   0.000  -0.003
    6        0.000  -0.003   0.000  -0.002
    7       -0.000   0.003   0.000   0.003
    8       -0.000   0.003   0.000   0.003
    9        0.001  -0.001   0.010   0.009
   10       -0.001   0.001  -0.010  -0.009
   11        0.001  -0.001   0.010   0.009
   12       -0.001   0.001  -0.010  -0.009
   13        0.020   0.054   3.659   3.732
   14       -0.020  -0.054  -3.659  -3.733
   15        0.020   0.054   3.659   3.732
   16       -0.020  -0.054  -3.659  -3.733
--------------------------------------------------
tot         -0.000   0.001  -0.001  -0.000
 
 BZINTS: Fermi energy:  5.055093;172.000000 electrons
         Band energy:***********;  BLOECHL correction:  0.000000
 BZINTS: Fermi energy:  5.055093;172.000000 electrons
         Band energy:***********;  BLOECHL correction:  0.000000
 BZINTS: Fermi energy:  5.055093;172.000000 electrons
         Band energy:***********;  BLOECHL correction:  0.000000
 BZINTS: Fermi energy:  5.055093;172.000000 electrons
         Band energy:***********;  BLOECHL correction:  0.000000

 total amount of memory used by VASP MPI-rank0    65283. kBytes
=======================================================================

   base      :      30000. kBytes
   nonl-proj :       3995. kBytes
   fftplans  :       1448. kBytes
   grid      :       5898. kBytes
   one-center:         62. kBytes
   wavefun   :      23880. kBytes
 
  
  
 General timing and accounting informations for this job:
 ========================================================
  
                  Total CPU time used (sec):      227.450
                            User time (sec):      212.975
                          System time (sec):       14.475
                         Elapsed time (sec):      234.940
  
                   Maximum memory used (kb):      352284.
                   Average memory used (kb):           0.
  
                          Minor page faults:       158010
                          Major page faults:          117
                 Voluntary context switches:        47702
