 vasp.5.4.4.18Apr17-6-g9f103f2a35 (build Oct 30 2023 17:30:16) complex          
  
 executed on             LinuxIFC date 2024.04.02  20:06:54
 running on  256 total cores
 distrk:  each k-point on  256 cores,    1 groups
 distr:  one band on NCORES_PER_BAND=   1 cores,  256 groups


--------------------------------------------------------------------------------------------------------


 INCAR:
 POTCAR:    PAW_PBE S 06Sep2000                   
 POTCAR:     PAW_PBE Cu_pv 06Sep2000              
 POTCAR:     PAW_PBE Fe_pv 02Aug2007              

 ----------------------------------------------------------------------------- 
|                                                                             |
|           W    W    AA    RRRRR   N    N  II  N    N   GGGG   !!!           |
|           W    W   A  A   R    R  NN   N  II  NN   N  G    G  !!!           |
|           W    W  A    A  R    R  N N  N  II  N N  N  G       !!!           |
|           W WW W  AAAAAA  RRRRR   N  N N  II  N  N N  G  GGG   !            |
|           WW  WW  A    A  R   R   N   NN  II  N   NN  G    G                |
|           W    W  A    A  R    R  N    N  II  N    N   GGGG   !!!           |
|                                                                             |
|      For optimal performance we recommend to set                            |
|        NCORE= 4 - approx SQRT( number of cores)                             |
|      NCORE specifies how many cores store one orbital (NPAR=cpu/NCORE).     |
|      This setting can  greatly improve the performance of VASP for DFT.     |
|      The default,   NCORE=1            might be grossly inefficient         |
|      on modern multi-core architectures or massively parallel machines.     |
|      Do your own testing !!!!                                               |
|      Unfortunately you need to use the default for GW and RPA calculations. |
|      (for HF NCORE is supported but not extensively tested yet)             |
|                                                                             |
 ----------------------------------------------------------------------------- 

 POTCAR:    PAW_PBE S 06Sep2000                   
   SHA256 =  0fc7481fb0695f01bdc6462160264c5c84044ae9ec85a907d398b887a2bc3132 S/
   COPYR  = (c) Copyright 06Sep2000 Georg Kresse                                
   COPYR  = This file is part of the software VASP. Any use, copying, and all ot
   COPYR  = If you do not have a valid VASP license, you may not use, copy or di
   VRHFIN =S : s2p4                                                             
   LEXCH  = PE                                                                  
   EATOM  =   276.8230 eV,   20.3459 Ry                                         
                                                                                
   TITEL  = PAW_PBE S 06Sep2000                                                 
   LULTRA =        F    use ultrasoft PP ?                                      
   IUNSCR =        1    unscreen: 0-lin 1-nonlin 2-no                           
   RPACOR =    1.500    partial core radius                                     
   POMASS =   32.066; ZVAL   =    6.000    mass and valenz                      
   RCORE  =    1.900    outmost cutoff radius                                   
   RWIGS  =    2.200; RWIGS  =    1.164    wigner-seitz radius (au A)           
   ENMAX  =  258.689; ENMIN  =  194.016 eV                                      
   ICORE  =        2    local potential                                         
   LCOR   =        T    correct aug charges                                     
   LPAW   =        T    paw PP                                                  
   EAUG   =  335.092                                                            
   DEXC   =    0.000                                                            
   RMAX   =    1.942    core radius for proj-oper                               
   RAUG   =    1.300    factor for augmentation sphere                          
   RDEP   =    1.954    radius for radial grids                                 
   RDEPT  =    1.744    core radius for aug-charge                              
                                                                                
   Atomic configuration                                                         
    6 entries                                                                   
     n  l   j            E        occ.                                          
     1  0  0.50     -2405.8406   2.0000                                         
     2  0  0.50      -211.7007   2.0000                                         
     2  1  1.50      -156.4958   6.0000                                         
     3  0  0.50       -17.2562   2.0000                                         
     3  1  0.50        -7.0085   4.0000                                         
     3  2  1.50        -6.8029   0.0000                                         
   Description                                                                  
     l       E           TYP  RCUT    TYP  RCUT                                 
     0    -17.2561641     23  1.900                                             
     0    -15.8743224     23  1.900                                             
     1     -7.0085400     23  1.900                                             
     1     -2.7779785     23  1.900                                             
     2     -6.8029130     23  1.900                                             
  local pseudopotential read in
  partial core-charges read in
  partial kinetic energy density read in
  atomic valenz-charges read in
  non local Contribution for L=           0  read in
    real space projection operators read in
  non local Contribution for L=           0  read in
    real space projection operators read in
  non local Contribution for L=           1  read in
    real space projection operators read in
  non local Contribution for L=           1  read in
    real space projection operators read in
    PAW grid and wavefunctions read in
 
   number of l-projection  operators is LMAX  =           4
   number of lm-projection operators is LMMAX =           8
 
 POTCAR:     PAW_PBE Cu_pv 06Sep2000              
   SHA256 =  cb7b504e2ea725fe1f25c85a9ac77d4012ce94cd394135b722c4e25ec297f1cb Cu
   COPYR  = (c) Copyright 06Sep2000 Georg Kresse                                
   COPYR  = This file is part of the software VASP. Any use, copying, and all ot
   COPYR  = If you do not have a valid VASP license, you may not use, copy or di
   VRHFIN =Cu: d10 p1                                                           
   LEXCH  = PE                                                                  
   EATOM  =  4120.1201 eV,  302.8203 Ry                                         
                                                                                
   TITEL  = PAW_PBE Cu_pv 06Sep2000                                             
   LULTRA =        F    use ultrasoft PP ?                                      
   IUNSCR =        1    unscreen: 0-lin 1-nonlin 2-no                           
   RPACOR =    1.500    partial core radius                                     
   POMASS =   63.546; ZVAL   =   17.000    mass and valenz                      
   RCORE  =    2.000    outmost cutoff radius                                   
   RWIGS  =    2.000; RWIGS  =    1.058    wigner-seitz radius (au A)           
   ENMAX  =  368.648; ENMIN  =  276.486 eV                                      
   RCLOC  =    1.304    cutoff for local pot                                    
   LCOR   =        T    correct aug charges                                     
   LPAW   =        T    paw PP                                                  
   EAUG   =  758.233                                                            
   DEXC   =    0.000                                                            
   RMAX   =    2.046    core radius for proj-oper                               
   RAUG   =    1.300    factor for augmentation sphere                          
   RDEP   =    2.025    radius for radial grids                                 
   RDEPT  =    1.558    core radius for aug-charge                              
                                                                                
   Atomic configuration                                                         
    8 entries                                                                   
     n  l   j            E        occ.                                          
     1  0  0.50     -8850.2467   2.0000                                         
     2  0  0.50     -1062.3498   2.0000                                         
     2  1  1.50      -916.8226   6.0000                                         
     3  0  0.50      -114.6929   2.0000                                         
     3  1  1.50       -72.1325   6.0000                                         
     3  2  2.50        -5.0394  10.0000                                         
     4  0  0.50        -4.6097   1.0000                                         
     4  3  2.50        -1.3606   0.0000                                         
   Description                                                                  
     l       E           TYP  RCUT    TYP  RCUT                                 
     1    -72.1324777     23  1.700                                             
     1     -1.3605826     23  1.700                                             
     2     -5.0393776     23  2.000                                             
     2     -6.3999602     23  2.000                                             
     0     -4.6097062     23  1.800                                             
     0     14.1620818     23  1.800                                             
  local pseudopotential read in
  partial core-charges read in
  partial kinetic energy density read in
  atomic valenz-charges read in
  non local Contribution for L=           1  read in
    real space projection operators read in
  non local Contribution for L=           1  read in
    real space projection operators read in
  non local Contribution for L=           2  read in
    real space projection operators read in
  non local Contribution for L=           2  read in
    real space projection operators read in
  non local Contribution for L=           0  read in
    real space projection operators read in
  non local Contribution for L=           0  read in
    real space projection operators read in
    PAW grid and wavefunctions read in
 
   number of l-projection  operators is LMAX  =           6
   number of lm-projection operators is LMMAX =          18
 
 POTCAR:     PAW_PBE Fe_pv 02Aug2007              
   SHA256 =  5d22e414b1f82158bf2c7ecb8b97b28fd0923e48cadc1c3bf74d524558f5dd32 Fe
   COPYR  = (c) Copyright 02Aug2007 Georg Kresse                                
   COPYR  = This file is part of the software VASP. Any use, copying, and all ot
   COPYR  = If you do not have a valid VASP license, you may not use, copy or di
   VRHFIN =Fe:  3pd7s1                                                          
   LEXCH  = PE                                                                  
   EATOM  =  2457.4239 eV,  180.6156 Ry                                         
                                                                                
   TITEL  = PAW_PBE Fe_pv 02Aug2007                                             
   LULTRA =        F    use ultrasoft PP ?                                      
   IUNSCR =        1    unscreen: 0-lin 1-nonlin 2-no                           
   RPACOR =    1.750    partial core radius                                     
   POMASS =   55.847; ZVAL   =   14.000    mass and valenz                      
   RCORE  =    2.200    outmost cutoff radius                                   
   RWIGS  =    2.200; RWIGS  =    1.164    wigner-seitz radius (au A)           
   ENMAX  =  293.238; ENMIN  =  219.928 eV                                      
   ICORE  =        3    local potential                                         
   LCOR   =        T    correct aug charges                                     
   LPAW   =        T    paw PP                                                  
   EAUG   =  578.342                                                            
   DEXC   =    0.000                                                            
   RMAX   =    2.249    core radius for proj-oper                               
   RAUG   =    1.300    factor for augmentation sphere                          
   RDEP   =    2.296    radius for radial grids                                 
   RDEPT  =    1.766    core radius for aug-charge                              
                                                                                
   Atomic configuration                                                         
    8 entries                                                                   
     n  l   j            E        occ.                                          
     1  0  0.50     -6993.8440   2.0000                                         
     2  0  0.50      -814.6047   2.0000                                         
     2  1  1.50      -693.3689   6.0000                                         
     3  0  0.50       -89.4732   2.0000                                         
     3  1  1.50       -55.6373   6.0000                                         
     3  2  2.50        -3.8151   7.0000                                         
     4  0  0.50        -4.2551   1.0000                                         
     4  3  2.50        -1.3606   0.0000                                         
   Description                                                                  
     l       E           TYP  RCUT    TYP  RCUT                                 
     1    -55.6372668     23  2.000                                             
     1     -5.4423304     23  2.000                                             
     2     -3.8151096     23  2.200                                             
     2     -5.1756922     23  2.200                                             
     0     -4.2550951     23  2.200                                             
     0     27.2116520     23  2.200                                             
     3     -1.3605826     23  2.200                                             
  local pseudopotential read in
  partial core-charges read in
  partial kinetic energy density read in
  atomic valenz-charges read in
  non local Contribution for L=           1  read in
    real space projection operators read in
  non local Contribution for L=           1  read in
    real space projection operators read in
  non local Contribution for L=           2  read in
    real space projection operators read in
  non local Contribution for L=           2  read in
    real space projection operators read in
  non local Contribution for L=           0  read in
    real space projection operators read in
  non local Contribution for L=           0  read in
    real space projection operators read in
    PAW grid and wavefunctions read in
 
   number of l-projection  operators is LMAX  =           6
   number of lm-projection operators is LMMAX =          18
 

 ----------------------------------------------------------------------------- 
|                                                                             |
|  ADVICE TO THIS USER RUNNING 'VASP/VAMP'   (HEAR YOUR MASTER'S VOICE ...):  |
|                                                                             |
|      You have a (more or less) 'large supercell' and for larger cells       |
|      it might be more efficient to use real space projection opertators     |
|      So try LREAL= Auto  in the INCAR   file.                               |
|      Mind:          For very  accurate calculation you might also keep the  |
|      reciprocal projection scheme          (i.e. LREAL=.FALSE.)             |
|                                                                             |
 ----------------------------------------------------------------------------- 


 ----------------------------------------------------------------------------- 
|                                                                             |
|  ADVICE TO THIS USER RUNNING 'VASP/VAMP'   (HEAR YOUR MASTER'S VOICE ...):  |
|                                                                             |
|      You enforced a specific xc-type in the INCAR file,                     |
|      a different type was found on the POTCAR file                          |
|          I HOPE YOU KNOW, WHAT YOU ARE  DOING                               |
|                                                                             |
 ----------------------------------------------------------------------------- 

  PAW_PBE S 06Sep2000                   :
 energy of atom  1       EATOM= -276.8230
 kinetic energy error for atom=    0.0007 (will be added to EATOM!!)
   PAW_PBE Cu_pv 06Sep2000              :
 energy of atom  2       EATOM=-4120.1201
 kinetic energy error for atom=    0.0094 (will be added to EATOM!!)
   PAW_PBE Fe_pv 02Aug2007              :
 energy of atom  3       EATOM=-2457.4239
 kinetic energy error for atom=    0.0025 (will be added to EATOM!!)
 
 
 POSCAR: Fe16 Cu16 S32                           
  positions in direct lattice
  No initial velocities read in
 exchange correlation table for  LEXCH =       14
   RHO(1)=    0.500       N(1)  =     2000
   RHO(2)=  100.500       N(2)  =     4000
 


--------------------------------------------------------------------------------------------------------


 ion  position               nearest neighbor table
   1  0.126  0.124  0.125-  41 2.26  37 2.26  61 2.27  49 2.28
   2  0.626  0.124  0.125-  42 2.26  38 2.26  62 2.27  50 2.28
   3  0.126  0.624  0.125-  43 2.26  39 2.26  63 2.27  51 2.28
   4  0.626  0.624  0.125-  44 2.26  40 2.26  64 2.27  52 2.28
   5  0.374  0.374  0.125-  39 2.26  41 2.26  52 2.27  62 2.28
   6  0.874  0.374  0.125-  40 2.26  42 2.26  51 2.27  61 2.28
   7  0.374  0.874  0.125-  37 2.26  43 2.26  50 2.27  64 2.28
   8  0.874  0.874  0.125-  38 2.26  44 2.26  49 2.27  63 2.28
   9  0.125  0.373  0.875-  41 2.26  45 2.26  51 2.28  55 2.28
  10  0.625  0.373  0.875-  42 2.26  46 2.26  52 2.28  56 2.28
  11  0.125  0.873  0.875-  43 2.26  47 2.26  49 2.28  53 2.28
  12  0.625  0.873  0.875-  44 2.26  48 2.26  50 2.28  54 2.28
  13  0.375  0.126  0.875-  41 2.26  46 2.26  50 2.28  53 2.28
  14  0.875  0.126  0.875-  42 2.26  45 2.26  54 2.28  49 2.28
  15  0.375  0.626  0.875-  43 2.26  48 2.26  52 2.28  55 2.28
  16  0.875  0.626  0.875-  44 2.26  47 2.26  56 2.28  51 2.28
  17  0.124  0.124  0.625-  45 2.26  33 2.26  57 2.27  53 2.28
  18  0.624  0.124  0.625-  46 2.26  34 2.26  58 2.27  54 2.28
  19  0.124  0.624  0.625-  47 2.26  35 2.26  59 2.27  55 2.28
  20  0.624  0.624  0.625-  48 2.26  36 2.26  60 2.27  56 2.28
  21  0.376  0.374  0.625-  36 2.26  46 2.26  55 2.27  57 2.28
  22  0.876  0.374  0.625-  35 2.26  45 2.26  56 2.27  58 2.28
  23  0.376  0.874  0.625-  34 2.26  48 2.26  53 2.27  59 2.28
  24  0.876  0.874  0.625-  33 2.26  47 2.26  54 2.27  60 2.28
  25  0.375  0.123  0.375-  34 2.26  37 2.26  57 2.28  62 2.28
  26  0.875  0.123  0.375-  33 2.26  38 2.26  61 2.28  58 2.28
  27  0.375  0.623  0.375-  36 2.26  39 2.26  59 2.28  64 2.28
  28  0.875  0.623  0.375-  35 2.26  40 2.26  63 2.28  60 2.28
  29  0.125  0.376  0.375-  35 2.26  39 2.26  57 2.28  61 2.28
  30  0.625  0.376  0.375-  36 2.26  40 2.26  58 2.28  62 2.28
  31  0.125  0.876  0.375-  33 2.26  37 2.26  59 2.28  63 2.28
  32  0.625  0.876  0.375-  34 2.26  38 2.26  60 2.28  64 2.28
  33  1.000  0.000  0.500-  24 2.26  31 2.26  26 2.26  17 2.26
  34  0.500  0.000  0.500-  23 2.26  32 2.26  25 2.26  18 2.26
  35  1.000  0.500  0.500-  22 2.26  29 2.26  28 2.26  19 2.26
  36  0.500  0.500  0.500-  21 2.26  30 2.26  27 2.26  20 2.26
  37  0.250  0.000  0.250-   7 2.26  31 2.26  25 2.26   1 2.26
  38  0.750  0.000  0.250-   8 2.26  32 2.26  26 2.26   2 2.26
  39  0.250  0.500  0.250-   5 2.26  29 2.26  27 2.26   3 2.26
  40  0.750  0.500  0.250-   6 2.26  30 2.26  28 2.26   4 2.26
  41  0.250  0.250  1.000-   1 2.26  13 2.26   9 2.26   5 2.26
  42  0.750  0.250  1.000-   2 2.26  14 2.26  10 2.26   6 2.26
  43  0.250  0.750  1.000-   3 2.26  15 2.26  11 2.26   7 2.26
  44  0.750  0.750  1.000-   4 2.26  16 2.26  12 2.26   8 2.26
  45  0.000  0.250  0.750-  17 2.26  14 2.26   9 2.26  22 2.26
  46  0.500  0.250  0.750-  18 2.26  13 2.26  10 2.26  21 2.26
  47  0.000  0.750  0.750-  19 2.26  16 2.26  11 2.26  24 2.26
  48  0.500  0.750  0.750-  20 2.26  15 2.26  12 2.26  23 2.26
  49  1.000  0.000  0.000-   8 2.27  11 2.28  14 2.28   1 2.28
  50  0.500  0.000  0.000-   7 2.27  12 2.28  13 2.28   2 2.28
  51  1.000  0.500  0.000-   6 2.27   9 2.28  16 2.28   3 2.28
  52  0.500  0.500  0.000-   5 2.27  10 2.28  15 2.28   4 2.28
  53  0.250  0.000  0.750-  23 2.27  11 2.28  13 2.28  17 2.28
  54  0.750  0.000  0.750-  24 2.27  12 2.28  14 2.28  18 2.28
  55  0.250  0.500  0.750-  21 2.27   9 2.28  15 2.28  19 2.28
  56  0.750  0.500  0.750-  22 2.27  10 2.28  16 2.28  20 2.28
  57  0.250  0.250  0.500-  17 2.27  25 2.28  29 2.28  21 2.28
  58  0.750  0.250  0.500-  18 2.27  26 2.28  30 2.28  22 2.28
  59  0.250  0.750  0.500-  19 2.27  27 2.28  31 2.28  23 2.28
  60  0.750  0.750  0.500-  20 2.27  28 2.28  32 2.28  24 2.28
  61  0.000  0.250  0.250-   1 2.27  26 2.28  29 2.28   6 2.28
  62  0.500  0.250  0.250-   2 2.27  25 2.28  30 2.28   5 2.28
  63  0.000  0.750  0.250-   3 2.27  28 2.28  31 2.28   8 2.28
  64  0.500  0.750  0.250-   4 2.27  27 2.28  32 2.28   7 2.28
 
  LATTYP: Found a simple monoclinic cell.
 ALAT       =    14.8619423131
 B/A-ratio  =     0.7075842295
 C/A-ratio  =     1.5750369219
 COS(beta)  =    -0.9491981931
  
  Lattice vectors:
  
 A1 = ( -10.5611600000,   0.0000000000, -10.4565400000)
 A2 = (   0.0000000000, -10.5160760000,   0.0000000000)
 A3 = (  10.6065850000,   0.0000000000,  20.8671960000)


Analysis of symmetry for initial positions (statically):
=====================================================================
 Subroutine PRICEL returns following result:
 
  LATTYP: Found a base centered monoclinic cell.
 ALAT       =    11.6221408941
 B/A-ratio  =     0.4524156133
 C/A-ratio  =     0.8957691355
 COS(beta)  =    -0.8125347966
  
  Lattice vectors:
  
 A1 = (  -2.6062212500,  -2.6290190000,   5.1938570000)
 A2 = (  -2.6062212500,   2.6290190000,   5.1938570000)
 A3 = (  -0.0454250000,   0.0000000000, -10.4106560000)
 
   8 primitive cells build up your supercell.
 

 Routine SETGRP: Setting up the symmetry group for a 
 simple monoclinic supercell.


 Subroutine GETGRP returns: Found  2 space group operations
 (whereof  1 operations were pure point group operations)
 out of a pool of  4 trial point group operations.


The static configuration has the point symmetry C_1 .
 The point group associated with its full space group is C_2 .


Analysis of symmetry for dynamics (positions and initial velocities):
=====================================================================
 Subroutine PRICEL returns following result:
 
  LATTYP: Found a base centered monoclinic cell.
 ALAT       =    11.6221408941
 B/A-ratio  =     0.4524156133
 C/A-ratio  =     0.8957691355
 COS(beta)  =    -0.8125347966
  
  Lattice vectors:
  
 A1 = (  -2.6062212500,  -2.6290190000,   5.1938570000)
 A2 = (  -2.6062212500,   2.6290190000,   5.1938570000)
 A3 = (  -0.0454250000,   0.0000000000, -10.4106560000)
 
   8 primitive cells build up your supercell.
 

 Routine SETGRP: Setting up the symmetry group for a 
 simple monoclinic supercell.


 Subroutine GETGRP returns: Found  2 space group operations
 (whereof  1 operations were pure point group operations)
 out of a pool of  4 trial point group operations.


The dynamic configuration has the point symmetry C_1 .
 The point group associated with its full space group is C_2 .


Analysis of structural, dynamic, and magnetic symmetry:
=====================================================================
 Subroutine PRICEL returns following result:
 
  LATTYP: Found a base centered monoclinic cell.
 ALAT       =    11.6221408941
 B/A-ratio  =     0.4524156133
 C/A-ratio  =     0.8957691355
 COS(beta)  =    -0.8125347966
  
  Lattice vectors:
  
 A1 = (  -2.6062212500,  -2.6290190000,   5.1938570000)
 A2 = (  -2.6062212500,   2.6290190000,   5.1938570000)
 A3 = (  -0.0454250000,   0.0000000000, -10.4106560000)
 
   8 primitive cells build up your supercell.
 

 Routine SETGRP: Setting up the symmetry group for a 
 simple monoclinic supercell.


 Subroutine GETGRP returns: Found  2 space group operations
 (whereof  1 operations were pure point group operations)
 out of a pool of  4 trial point group operations.


The magnetic configuration has the point symmetry C_1 .
 The point group associated with its full space group is C_2 .


 Subroutine INISYM returns: Found  2 space group operations
 (whereof  1 operations are pure point group operations),
 and found     8 'primitive' translations

 
 
 KPOINTS: Automatic mesh                          

Automatic generation of k-mesh.
Space group operators:
 irot       det(A)        alpha          n_x          n_y          n_z        tau_x        tau_y        tau_z
    1     1.000000     0.000000     1.000000     0.000000     0.000000     0.000000     0.000000     0.000000
    2     1.000000   180.000000     0.000000     1.000000     0.000000    -0.250000     0.000000    -0.250000
 
 Subroutine IBZKPT returns following result:
 ===========================================
 
 Found     30 irreducible k-points:
 
 Following reciprocal coordinates:
            Coordinates               Weight
  0.000000  0.000000  0.000000      1.000000
  0.250000  0.000000  0.000000      2.000000
  0.500000  0.000000  0.000000      1.000000
  0.000000  0.250000  0.000000      2.000000
  0.250000  0.250000  0.000000      4.000000
  0.500000  0.250000  0.000000      2.000000
  0.000000  0.500000  0.000000      1.000000
  0.250000  0.500000  0.000000      2.000000
  0.500000  0.500000  0.000000      1.000000
  0.000000  0.000000  0.250000      2.000000
  0.250000  0.000000  0.250000      2.000000
  0.500000  0.000000  0.250000      2.000000
 -0.250000  0.000000  0.250000      2.000000
  0.000000  0.250000  0.250000      4.000000
  0.250000  0.250000  0.250000      4.000000
  0.500000  0.250000  0.250000      4.000000
 -0.250000  0.250000  0.250000      4.000000
  0.000000  0.500000  0.250000      2.000000
  0.250000  0.500000  0.250000      2.000000
  0.500000  0.500000  0.250000      2.000000
 -0.250000  0.500000  0.250000      2.000000
  0.000000  0.000000  0.500000      1.000000
  0.250000  0.000000  0.500000      2.000000
  0.500000  0.000000  0.500000      1.000000
  0.000000  0.250000  0.500000      2.000000
  0.250000  0.250000  0.500000      4.000000
  0.500000  0.250000  0.500000      2.000000
  0.000000  0.500000  0.500000      1.000000
  0.250000  0.500000  0.500000      2.000000
  0.500000  0.500000  0.500000      1.000000
 
 Following cartesian coordinates:
            Coordinates               Weight
  0.000000  0.000000  0.000000      1.000000
  0.023774  0.000000 -0.000104      2.000000
  0.047549  0.000000 -0.000207      1.000000
  0.000000  0.023773  0.000000      2.000000
  0.023774  0.023773 -0.000104      4.000000
  0.047549  0.023773 -0.000207      2.000000
  0.000000  0.047546  0.000000      1.000000
  0.023774  0.047546 -0.000104      2.000000
  0.047549  0.047546 -0.000207      1.000000
 -0.000105  0.000000  0.024014      2.000000
  0.023670  0.000000  0.023911      2.000000
  0.047444  0.000000  0.023807      2.000000
 -0.023879  0.000000  0.024118      2.000000
 -0.000105  0.023773  0.024014      4.000000
  0.023670  0.023773  0.023911      4.000000
  0.047444  0.023773  0.023807      4.000000
 -0.023879  0.023773  0.024118      4.000000
 -0.000105  0.047546  0.024014      2.000000
  0.023670  0.047546  0.023911      2.000000
  0.047444  0.047546  0.023807      2.000000
 -0.023879  0.047546  0.024118      2.000000
 -0.000210  0.000000  0.048029      1.000000
  0.023565  0.000000  0.047925      2.000000
  0.047339  0.000000  0.047821      1.000000
 -0.000210  0.023773  0.048029      2.000000
  0.023565  0.023773  0.047925      4.000000
  0.047339  0.023773  0.047821      2.000000
 -0.000210  0.047546  0.048029      1.000000
  0.023565  0.047546  0.047925      2.000000
  0.047339  0.047546  0.047821      1.000000
 
 TETIRR: Found    192 inequivalent tetrahedra from      384
 
 Subroutine IBZKPT_HF returns following result:
 ==============================================
 
 Found     64 k-points in 1st BZ
 the following     64 k-points will be used (e.g. in the exchange kernel)
 Following reciprocal coordinates:   # in IRBZ
  0.000000  0.000000  0.000000    0.01562500   1 t-inv F
  0.250000  0.000000  0.000000    0.01562500   2 t-inv F
  0.500000  0.000000  0.000000    0.01562500   3 t-inv F
  0.000000  0.250000  0.000000    0.01562500   4 t-inv F
  0.250000  0.250000  0.000000    0.01562500   5 t-inv F
  0.500000  0.250000  0.000000    0.01562500   6 t-inv F
  0.000000  0.500000  0.000000    0.01562500   7 t-inv F
  0.250000  0.500000  0.000000    0.01562500   8 t-inv F
  0.500000  0.500000  0.000000    0.01562500   9 t-inv F
  0.000000  0.000000  0.250000    0.01562500  10 t-inv F
  0.250000  0.000000  0.250000    0.01562500  11 t-inv F
  0.500000  0.000000  0.250000    0.01562500  12 t-inv F
 -0.250000  0.000000  0.250000    0.01562500  13 t-inv F
  0.000000  0.250000  0.250000    0.01562500  14 t-inv F
  0.250000  0.250000  0.250000    0.01562500  15 t-inv F
  0.500000  0.250000  0.250000    0.01562500  16 t-inv F
 -0.250000  0.250000  0.250000    0.01562500  17 t-inv F
  0.000000  0.500000  0.250000    0.01562500  18 t-inv F
  0.250000  0.500000  0.250000    0.01562500  19 t-inv F
  0.500000  0.500000  0.250000    0.01562500  20 t-inv F
 -0.250000  0.500000  0.250000    0.01562500  21 t-inv F
  0.000000  0.000000  0.500000    0.01562500  22 t-inv F
  0.250000  0.000000  0.500000    0.01562500  23 t-inv F
  0.500000  0.000000  0.500000    0.01562500  24 t-inv F
  0.000000  0.250000  0.500000    0.01562500  25 t-inv F
  0.250000  0.250000  0.500000    0.01562500  26 t-inv F
  0.500000  0.250000  0.500000    0.01562500  27 t-inv F
  0.000000  0.500000  0.500000    0.01562500  28 t-inv F
  0.250000  0.500000  0.500000    0.01562500  29 t-inv F
  0.500000  0.500000  0.500000    0.01562500  30 t-inv F
 -0.250000  0.000000  0.000000    0.01562500   2 t-inv F spinflp
 -0.250000  0.250000  0.000000    0.01562500   5 t-inv F spinflp
 -0.250000  0.500000  0.000000    0.01562500   8 t-inv F spinflp
 -0.000000  0.000000 -0.250000    0.01562500  10 t-inv F spinflp
 -0.250000  0.000000 -0.250000    0.01562500  11 t-inv F spinflp
 -0.500000  0.000000 -0.250000    0.01562500  12 t-inv F spinflp
  0.250000  0.000000 -0.250000    0.01562500  13 t-inv F spinflp
 -0.000000  0.250000 -0.250000    0.01562500  14 t-inv F spinflp
 -0.250000  0.250000 -0.250000    0.01562500  15 t-inv F spinflp
 -0.500000  0.250000 -0.250000    0.01562500  16 t-inv F spinflp
  0.250000  0.250000 -0.250000    0.01562500  17 t-inv F spinflp
 -0.000000  0.500000 -0.250000    0.01562500  18 t-inv F spinflp
 -0.250000  0.500000 -0.250000    0.01562500  19 t-inv F spinflp
 -0.500000  0.500000 -0.250000    0.01562500  20 t-inv F spinflp
  0.250000  0.500000 -0.250000    0.01562500  21 t-inv F spinflp
 -0.250000  0.000000 -0.500000    0.01562500  23 t-inv F spinflp
 -0.250000  0.250000 -0.500000    0.01562500  26 t-inv F spinflp
 -0.250000  0.500000 -0.500000    0.01562500  29 t-inv F spinflp
  0.000000 -0.250000  0.000000    0.01562500   4 t-inv T
 -0.250000 -0.250000  0.000000    0.01562500   5 t-inv T
  0.250000 -0.250000  0.000000    0.01562500   5 t-inv T spinflp
 -0.500000 -0.250000  0.000000    0.01562500   6 t-inv T
 -0.000000 -0.250000 -0.250000    0.01562500  14 t-inv T
  0.000000 -0.250000  0.250000    0.01562500  14 t-inv T spinflp
 -0.250000 -0.250000 -0.250000    0.01562500  15 t-inv T
  0.250000 -0.250000  0.250000    0.01562500  15 t-inv T spinflp
 -0.500000 -0.250000 -0.250000    0.01562500  16 t-inv T
  0.500000 -0.250000  0.250000    0.01562500  16 t-inv T spinflp
  0.250000 -0.250000 -0.250000    0.01562500  17 t-inv T
 -0.250000 -0.250000  0.250000    0.01562500  17 t-inv T spinflp
 -0.000000 -0.250000 -0.500000    0.01562500  25 t-inv T
 -0.250000 -0.250000 -0.500000    0.01562500  26 t-inv T
  0.250000 -0.250000  0.500000    0.01562500  26 t-inv T spinflp
 -0.500000 -0.250000 -0.500000    0.01562500  27 t-inv T


--------------------------------------------------------------------------------------------------------




 Dimension of arrays:
   k-points           NKPTS =     30   k-points in BZ     NKDIM =     30   number of bands    NBANDS=    512
   number of dos      NEDOS =    301   number of ions     NIONS =     64
   non local maximal  LDIM  =      6   non local SUM 2l+1 LMDIM =     18
   total plane-waves  NPLWV = 829440
   max r-space proj   IRMAX =      1   max aug-charges    IRDMAX=  22896
   dimension x,y,z NGX =    96 NGY =   96 NGZ =   90
   dimension x,y,z NGXF=   192 NGYF=  192 NGZF=  180
   support grid    NGXF=   192 NGYF=  192 NGZF=  180
   ions per type =              32  16  16
   NGX,Y,Z   is equivalent  to a cutoff of  15.18, 15.18, 14.37 a.u.
   NGXF,Y,Z  is equivalent  to a cutoff of  30.35, 30.35, 28.74 a.u.

 SYSTEM =  CuFeS2                                  
 POSCAR =  Fe16 Cu16 S32                           

 Startparameter for this run:
   NWRITE =      2    write-flag & timer
   PREC   = accura    normal or accurate (medium, high low for compatibility)
   ISTART =      0    job   : 0-new  1-cont  2-samecut
   ICHARG =      1    charge: 1-file 2-atom 10-const
   ISPIN  =      2    spin polarized calculation?
   LNONCOLLINEAR =      F non collinear calculations
   LSORBIT =      F    spin-orbit coupling
   INIWAV =      1    electr: 0-lowe 1-rand  2-diag
   LASPH  =      F    aspherical Exc in radial PAW
   METAGGA=      F    non-selfconsistent MetaGGA calc.

 Electronic Relaxation 1
   ENCUT  =  700.0 eV  51.45 Ry    7.17 a.u.  22.69 22.69 22.46*2*pi/ulx,y,z
   ENINI  =  700.0     initial cutoff
   ENAUG  =  758.2 eV  augmentation charge cutoff
   NELM   =    500;   NELMIN=  2; NELMDL=  0     # of ELM steps 
   EDIFF  = 0.1E-07   stopping-criterion for ELM
   LREAL  =      F    real-space projection
   NLSPLINE    = F    spline interpolate recip. space projectors
   LCOMPAT=      F    compatible to vasp.4.4
   GGA_COMPAT  = T    GGA compatible to vasp.4.4-vasp.4.6
   LMAXPAW     = -100 max onsite density
   LMAXMIX     =    4 max onsite mixed and CHGCAR
   VOSKOWN=      0    Vosko Wilk Nusair interpolation
   ROPT   =    0.00000   0.00000   0.00000
 Ionic relaxation
   EDIFFG = -.1E-04   stopping-criterion for IOM
   NSW    =      0    number of steps for IOM
   NBLOCK =      1;   KBLOCK =      1    inner block; outer block 
   IBRION =     -1    ionic relax: 0-MD 1-quasi-New 2-CG
   NFREE  =      0    steps in history (QN), initial steepest desc. (CG)
   ISIF   =      2    stress and relaxation
   IWAVPR =     10    prediction:  0-non 1-charg 2-wave 3-comb
   ISYM   =      2    0-nonsym 1-usesym 2-fastsym
   LCORR  =      T    Harris-Foulkes like correction to forces

   POTIM  = 0.5000    time-step for ionic-motion
   TEIN   =    0.0    initial temperature
   TEBEG  =    0.0;   TEEND  =   0.0 temperature during run
   SMASS  =  -3.00    Nose mass-parameter (am)
   estimated Nose-frequenzy (Omega)   =  0.10E-29 period in steps =****** mass=  -0.253E-26a.u.
   SCALEE = 1.0000    scale energy and forces
   NPACO  =    256;   APACO  = 16.0  distance and # of slots for P.C.
   PSTRESS=    0.0 pullay stress

  Mass of Ions in am
   POMASS =  32.07 63.55 55.85
  Ionic Valenz
   ZVAL   =   6.00 17.00 14.00
  Atomic Wigner-Seitz radii
   RWIGS  =  -1.00 -1.00 -1.00
  virtual crystal weights 
   VCA    =   1.00  1.00  1.00
   NELECT =     688.0000    total number of electrons
   NUPDOWN=      -1.0000    fix difference up-down

 DOS related values:
   EMIN   =  10.00;   EMAX   =-10.00  energy-range for DOS
   EFERMI =   0.00
   ISMEAR =    -5;   SIGMA  =   0.03  broadening in eV -4-tet -1-fermi 0-gaus

 Electronic relaxation 2 (details)
   IALGO  =     38    algorithm
   LDIAG  =      T    sub-space diagonalisation (order eigenvalues)
   LSUBROT=      F    optimize rotation matrix (better conditioning)
   TURBO    =      0    0=normal 1=particle mesh
   IRESTART =      0    0=no restart 2=restart with 2 vectors
   NREBOOT  =      0    no. of reboots
   NMIN     =      0    reboot dimension
   EREF     =   0.00    reference energy to select bands
   IMIX   =      4    mixing-type and parameters
     AMIX     =   0.40;   BMIX     =  1.00
     AMIX_MAG =   1.60;   BMIX_MAG =  1.00
     AMIN     =   0.10
     WC   =   100.;   INIMIX=   1;  MIXPRE=   1;  MAXMIX= -45

 Intra band minimization:
   WEIMIN = 0.0000     energy-eigenvalue tresh-hold
   EBREAK =  0.49E-11  absolut break condition
   DEPER  =   0.30     relativ break condition  

   TIME   =   0.40     timestep for ELM

  volume/ion in A,a.u.               =      17.99       121.39
  Fermi-wavevector in a.u.,A,eV,Ry     =   1.378954  2.605846 25.871687  1.901515
  Thomas-Fermi vector in A             =   2.503968
 
 Write flags
   LWAVE        =      T    write WAVECAR
   LDOWNSAMPLE  =      F    k-point downsampling of WAVECAR
   LCHARG       =      T    write CHGCAR
   LVTOT        =      F    write LOCPOT, total local potential
   LVHAR        =      F    write LOCPOT, Hartree potential only
   LELF         =      F    write electronic localiz. function (ELF)
   LORBIT       =     11    0 simple, 1 ext, 2 COOP (PROOUT), +10 PAW based schemes


 Dipole corrections
   LMONO  =      F    monopole corrections only (constant potential shift)
   LDIPOL =      F    correct potential (dipole corrections)
   IDIPOL =      0    1-x, 2-y, 3-z, 4-all directions 
   EPSILON=  1.0000000 bulk dielectric constant

 LDA+U is selected, type is set to LDAUTYPE =  2
   angular momentum for each species LDAUL =     2    2    2
   U (eV)           for each species LDAUU =   0.0  0.1  4.7
   J (eV)           for each species LDAUJ =   0.0  0.0  0.0
 Exchange correlation treatment:
   GGA     =    PS    GGA type
   LEXCH   =    14    internal setting for exchange type
   VOSKOWN=      0    Vosko Wilk Nusair interpolation
   LHFCALC =     F    Hartree Fock is set to
   LHFONE  =     F    Hartree Fock one center treatment
   AEXX    =    0.0000 exact exchange contribution

 Linear response parameters
   LEPSILON=     F    determine dielectric tensor
   LRPA    =     F    only Hartree local field effects (RPA)
   LNABLA  =     F    use nabla operator in PAW spheres
   LVEL    =     F    velocity operator in full k-point grid
   LINTERFAST=   F  fast interpolation
   KINTER  =     0    interpolate to denser k-point grid
   CSHIFT  =0.1000    complex shift for real part using Kramers Kronig
   OMEGAMAX=  -1.0    maximum frequency
   DEG_THRESHOLD= 0.2000000E-02 threshold for treating states as degnerate
   RTIME   =   -0.100 relaxation time in fs
  (WPLASMAI=    0.000 imaginary part of plasma frequency in eV, 0.658/RTIME)
   DFIELD  = 0.0000000 0.0000000 0.0000000 field for delta impulse in time
 
 Orbital magnetization related:
   ORBITALMAG=     F  switch on orbital magnetization
   LCHIMAG   =     F  perturbation theory with respect to B field
   DQ        =  0.001000  dq finite difference perturbation B field
   LLRAUG    =     F  two centre corrections for induced B field

 PEAD related settings:
   LPEAD      =     T    switch on PEAD
   IPEAD      =     4    finite difference order for dpsi/dk
   LCALCPOL   =     T    calculate macroscopic polarization
   LCALCEPS   =     F    calculate dielectric tensor
   EFIELD_PEAD=    0.0000    0.0000    0.0000
   SKIP_EDOTP =     F
   LRPA       =     F
   SKIP_SCF   =     F


--------------------------------------------------------------------------------------------------------


 Static calculation
 charge density and potential will be updated during run
 spin polarized calculation
 Variant of blocked Davidson
 Davidson routine will perform the subspace rotation
 perform sub-space diagonalisation
    after iterative eigenvector-optimisation
 modified Broyden-mixing scheme, WC =      100.0
 initial mixing is a Kerker type mixing with AMIX =  0.4000 and BMIX =      1.0000
 Hartree-type preconditioning will be used
 using additional bands          168
 reciprocal scheme for non local part
 use partial core corrections
 calculate Harris-corrections to forces 
   (improved forces if not selfconsistent)
 use gradient corrections 
 use of overlap-Matrix (Vanderbilt PP)
 Fermi weights with tetrahedron method with Bloechl corrections


--------------------------------------------------------------------------------------------------------


  energy-cutoff  :      700.00
  volume of cell :     1151.23
      direct lattice vectors                 reciprocal lattice vectors
    10.515735000  0.000000000  0.045884000     0.095097398  0.000000000 -0.000414940
     0.000000000 10.516076000  0.000000000     0.000000000  0.095092504  0.000000000
     0.045425000  0.000000000 10.410656000    -0.000419133  0.000000000  0.096057255

  length of vectors
    10.515835104 10.516076000 10.410755101     0.095098303  0.095092504  0.096058170


 
 k-points in units of 2pi/SCALE and weight: Automatic mesh                          
   0.00000000  0.00000000  0.00000000       0.016
   0.02377435  0.00000000 -0.00010374       0.031
   0.04754870  0.00000000 -0.00020747       0.016
   0.00000000  0.02377313  0.00000000       0.031
   0.02377435  0.02377313 -0.00010374       0.062
   0.04754870  0.02377313 -0.00020747       0.031
   0.00000000  0.04754625  0.00000000       0.016
   0.02377435  0.04754625 -0.00010374       0.031
   0.04754870  0.04754625 -0.00020747       0.016
  -0.00010478  0.00000000  0.02401431       0.031
   0.02366957  0.00000000  0.02391058       0.031
   0.04744392  0.00000000  0.02380684       0.031
  -0.02387913  0.00000000  0.02411805       0.031
  -0.00010478  0.02377313  0.02401431       0.062
   0.02366957  0.02377313  0.02391058       0.062
   0.04744392  0.02377313  0.02380684       0.062
  -0.02387913  0.02377313  0.02411805       0.062
  -0.00010478  0.04754625  0.02401431       0.031
   0.02366957  0.04754625  0.02391058       0.031
   0.04744392  0.04754625  0.02380684       0.031
  -0.02387913  0.04754625  0.02411805       0.031
  -0.00020957  0.00000000  0.04802863       0.016
   0.02356478  0.00000000  0.04792489       0.031
   0.04733913  0.00000000  0.04782116       0.016
  -0.00020957  0.02377313  0.04802863       0.031
   0.02356478  0.02377313  0.04792489       0.062
   0.04733913  0.02377313  0.04782116       0.031
  -0.00020957  0.04754625  0.04802863       0.016
   0.02356478  0.04754625  0.04792489       0.031
   0.04733913  0.04754625  0.04782116       0.016
 
 k-points in reciprocal lattice and weights: Automatic mesh                          
   0.00000000  0.00000000  0.00000000       0.016
   0.25000000  0.00000000  0.00000000       0.031
   0.50000000  0.00000000  0.00000000       0.016
   0.00000000  0.25000000  0.00000000       0.031
   0.25000000  0.25000000  0.00000000       0.062
   0.50000000  0.25000000  0.00000000       0.031
   0.00000000  0.50000000  0.00000000       0.016
   0.25000000  0.50000000  0.00000000       0.031
   0.50000000  0.50000000  0.00000000       0.016
   0.00000000  0.00000000  0.25000000       0.031
   0.25000000  0.00000000  0.25000000       0.031
   0.50000000  0.00000000  0.25000000       0.031
  -0.25000000  0.00000000  0.25000000       0.031
   0.00000000  0.25000000  0.25000000       0.062
   0.25000000  0.25000000  0.25000000       0.062
   0.50000000  0.25000000  0.25000000       0.062
  -0.25000000  0.25000000  0.25000000       0.062
   0.00000000  0.50000000  0.25000000       0.031
   0.25000000  0.50000000  0.25000000       0.031
   0.50000000  0.50000000  0.25000000       0.031
  -0.25000000  0.50000000  0.25000000       0.031
   0.00000000  0.00000000  0.50000000       0.016
   0.25000000  0.00000000  0.50000000       0.031
   0.50000000  0.00000000  0.50000000       0.016
   0.00000000  0.25000000  0.50000000       0.031
   0.25000000  0.25000000  0.50000000       0.062
   0.50000000  0.25000000  0.50000000       0.031
   0.00000000  0.50000000  0.50000000       0.016
   0.25000000  0.50000000  0.50000000       0.031
   0.50000000  0.50000000  0.50000000       0.016
 
 position of ions in fractional coordinates (direct lattice) 
   0.12616100  0.12445400  0.12509100
   0.62616100  0.12445400  0.12509100
   0.12616100  0.62445400  0.12509100
   0.62616100  0.62445400  0.12509100
   0.37383900  0.37445400  0.12490900
   0.87383900  0.37445400  0.12490900
   0.37383900  0.87445400  0.12490900
   0.87383900  0.87445400  0.12490900
   0.12500000  0.37346500  0.87500000
   0.62500000  0.37346500  0.87500000
   0.12500000  0.87346500  0.87500000
   0.62500000  0.87346500  0.87500000
   0.37500000  0.12576900  0.87500000
   0.87500000  0.12576900  0.87500000
   0.37500000  0.62576900  0.87500000
   0.87500000  0.62576900  0.87500000
   0.12383900  0.12445400  0.62490900
   0.62383900  0.12445400  0.62490900
   0.12383900  0.62445400  0.62490900
   0.62383900  0.62445400  0.62490900
   0.37616100  0.37445400  0.62509100
   0.87616100  0.37445400  0.62509100
   0.37616100  0.87445400  0.62509100
   0.87616100  0.87445400  0.62509100
   0.37500000  0.12346500  0.37500000
   0.87500000  0.12346500  0.37500000
   0.37500000  0.62346500  0.37500000
   0.87500000  0.62346500  0.37500000
   0.12500000  0.37576900  0.37500000
   0.62500000  0.37576900  0.37500000
   0.12500000  0.87576900  0.37500000
   0.62500000  0.87576900  0.37500000
   0.99983200  0.00047200  0.49999800
   0.49983200  0.00047200  0.49999800
   0.99983200  0.50047200  0.49999800
   0.49983200  0.50047200  0.49999800
   0.25016800  0.00047200  0.25000200
   0.75016800  0.00047200  0.25000200
   0.25016800  0.50047200  0.25000200
   0.75016800  0.50047200  0.25000200
   0.24983200  0.25047200  0.99999800
   0.74983200  0.25047200  0.99999800
   0.24983200  0.75047200  0.99999800
   0.74983200  0.75047200  0.99999800
   0.00016800  0.25047200  0.75000200
   0.50016800  0.25047200  0.75000200
   0.00016800  0.75047200  0.75000200
   0.50016800  0.75047200  0.75000200
   0.99991700  0.00045800  0.00000900
   0.49991700  0.00045800  0.00000900
   0.99991700  0.50045800  0.00000900
   0.49991700  0.50045800  0.00000900
   0.25008300  0.00045800  0.74999100
   0.75008300  0.00045800  0.74999100
   0.25008300  0.50045800  0.74999100
   0.75008300  0.50045800  0.74999100
   0.24991700  0.25045800  0.50000900
   0.74991700  0.25045800  0.50000900
   0.24991700  0.75045800  0.50000900
   0.74991700  0.75045800  0.50000900
   0.00008300  0.25045800  0.24999100
   0.50008300  0.25045800  0.24999100
   0.00008300  0.75045800  0.24999100
   0.50008300  0.75045800  0.24999100
 
 position of ions in cartesian coordinates  (Angst):
   1.33235790  1.30876772  1.30806814
   6.59022540  1.30876772  1.33101014
   1.33235790  6.56680572  1.30806814
   6.59022540  6.56680572  1.33101014
   3.93686585  3.93778672  1.31753786
   9.19473335  3.93778672  1.34047986
   3.93686585  9.19582472  1.31753786
   9.19473335  9.19582472  1.34047986
   1.35421375  3.92738632  9.11505950
   6.61208125  3.92738632  9.13800150
   1.35421375  9.18542432  9.11505950
   6.61208125  9.18542432  9.13800150
   3.98314750  1.32259636  9.12653050
   9.24101500  1.32259636  9.14947250
   3.98314750  6.58063436  9.12653050
   9.24101500  6.58063436  9.14947250
   1.33064460  1.30876772  6.51139486
   6.58851210  1.30876772  6.53433686
   1.33064460  6.56680572  6.51139486
   6.58851210  6.56680572  6.53433686
   3.98400415  3.93778672  6.52486714
   9.24187165  3.93778672  6.54780914
   3.98400415  9.19582472  6.52486714
   9.24187165  9.19582472  6.54780914
   3.96043500  1.29836732  3.92120250
   9.21830250  1.29836732  3.94414450
   3.96043500  6.55640532  3.92120250
   9.21830250  6.55640532  3.94414450
   1.33150125  3.95161536  3.90973150
   6.58936875  3.95161536  3.93267350
   1.33150125  9.20965336  3.90973150
   6.58936875  9.20965336  3.93267350
  10.53668077  0.00496359  5.25118347
   5.27881327  0.00496359  5.22824147
  10.53668077  5.26300159  5.25118347
   5.27881327  5.26300159  5.22824147
   2.64205673  0.00496359  2.61416353
   7.89992423  0.00496359  2.63710553
   2.64205673  5.26300159  2.61416353
   7.89992423  5.26300159  2.63710553
   2.67259202  2.63398259 10.42209847
   7.93045952  2.63398259 10.44504047
   2.67259202  7.89202059 10.42209847
   7.93045952  7.89202059 10.44504047
   0.03583548  2.63398259  7.80802053
   5.29370298  2.63398259  7.83096253
   0.03583548  7.89202059  7.80802053
   5.29370298  7.89202059  7.83096253
  10.51486260  0.00481636  0.04597389
   5.25699510  0.00481636  0.02303189
  10.51486260  5.26285436  0.04597389
   5.25699510  5.26285436  0.02303189
   2.66387490  0.00481636  7.81937311
   7.92174240  0.00481636  7.84231511
   2.66387490  5.26285436  7.81937311
   7.92174240  5.26285436  7.84231511
   2.65077385  2.63383536  5.21688889
   7.90864135  2.63383536  5.23983089
   2.65077385  7.89187336  5.21688889
   7.90864135  7.89187336  5.23983089
   0.01222865  2.63383536  2.60257411
   5.27009615  2.63383536  2.62551611
   0.01222865  7.89187336  2.60257411
   5.27009615  7.89187336  2.62551611
 


--------------------------------------------------------------------------------------------------------


 k-point  1 :   0.0000 0.0000 0.0000  plane waves:   48401
 k-point  2 :   0.2500 0.0000 0.0000  plane waves:   48439
 k-point  3 :   0.5000 0.0000 0.0000  plane waves:   48444
 k-point  4 :   0.0000 0.2500 0.0000  plane waves:   48425
 k-point  5 :   0.2500 0.2500 0.0000  plane waves:   48419
 k-point  6 :   0.5000 0.2500 0.0000  plane waves:   48422
 k-point  7 :   0.0000 0.5000 0.0000  plane waves:   48458
 k-point  8 :   0.2500 0.5000 0.0000  plane waves:   48414
 k-point  9 :   0.5000 0.5000 0.0000  plane waves:   48404
 k-point 10 :   0.0000 0.0000 0.2500  plane waves:   48416
 k-point 11 :   0.2500 0.0000 0.2500  plane waves:   48409
 k-point 12 :   0.5000 0.0000 0.2500  plane waves:   48435
 k-point 13 :  -0.2500 0.0000 0.2500  plane waves:   48438
 k-point 14 :   0.0000 0.2500 0.2500  plane waves:   48427
 k-point 15 :   0.2500 0.2500 0.2500  plane waves:   48431
 k-point 16 :   0.5000 0.2500 0.2500  plane waves:   48400
 k-point 17 :  -0.2500 0.2500 0.2500  plane waves:   48393
 k-point 18 :   0.0000 0.5000 0.2500  plane waves:   48416
 k-point 19 :   0.2500 0.5000 0.2500  plane waves:   48418
 k-point 20 :   0.5000 0.5000 0.2500  plane waves:   48422
 k-point 21 :  -0.2500 0.5000 0.2500  plane waves:   48404
 k-point 22 :   0.0000 0.0000 0.5000  plane waves:   48440
 k-point 23 :   0.2500 0.0000 0.5000  plane waves:   48401
 k-point 24 :   0.5000 0.0000 0.5000  plane waves:   48394
 k-point 25 :   0.0000 0.2500 0.5000  plane waves:   48428
 k-point 26 :   0.2500 0.2500 0.5000  plane waves:   48391
 k-point 27 :   0.5000 0.2500 0.5000  plane waves:   48366
 k-point 28 :   0.0000 0.5000 0.5000  plane waves:   48372
 k-point 29 :   0.2500 0.5000 0.5000  plane waves:   48368
 k-point 30 :   0.5000 0.5000 0.5000  plane waves:   48380

 maximum and minimum number of plane-waves per node :     48458    48366

 maximum number of plane-waves:     48458
 maximum index in each direction: 
   IXMAX=   22   IYMAX=   22   IZMAX=   22
   IXMIN=  -23   IYMIN=  -23   IZMIN=  -22


 serial   3D FFT for wavefunctions
 parallel 3D FFT for charge:
    minimum data exchange during FFTs selected (reduces bandwidth)


 total amount of memory used by VASP MPI-rank0   881832. kBytes
=======================================================================

   base      :      30000. kBytes
   nonl-proj :     680181. kBytes
   fftplans  :       4588. kBytes
   grid      :      69719. kBytes
   one-center:       1990. kBytes
   wavefun   :      95354. kBytes
 
     INWAV:  cpu time    0.0001: real time    0.0002
 Broyden mixing: mesh for mixing (old mesh)
   NGX = 45   NGY = 45   NGZ = 45
  (NGX  =192   NGY  =192   NGZ  =180)
  gives a total of  91125 points

 initial charge density was supplied:
 charge density of overlapping atoms calculated
 number of electron     688.0000000 magnetization      -0.0000000
 keeping initial charge density in first step


--------------------------------------------------------------------------------------------------------


 Maximum index for augmentation-charges          895 (set IRDMAX)


--------------------------------------------------------------------------------------------------------


 First call to EWALD:  gamma=   0.169
 Maximum number of real-space cells 3x 3x 3
 Maximum number of reciprocal cells 3x 3x 3

    FEWALD:  cpu time    0.0027: real time    0.0032


--------------------------------------- Iteration      1(   1)  ---------------------------------------


    POTLOK:  cpu time    0.3417: real time    0.3965
    SETDIJ:  cpu time    0.0139: real time    0.0141
     EDDAV:  cpu time  314.2814: real time  317.0779
 BZINTS: Fermi energy: 16.800466;688.000000 electrons
         Band energy:***********;  BLOECHL correction: -0.011141
       DOS:  cpu time    0.3310: real time    0.3325
    --------------------------------------------
      LOOP:  cpu time  314.9681: real time  317.8210

 eigenvalue-minimisations  : 61440
 total energy-change (2. order) : 0.6199911E+04  (-0.5038552E+05)
 number of electron     688.0000000 magnetization      -0.0000000
 augmentation part      688.0000000 magnetization      -0.0000000

 Free energy of the ion-electron system (eV)
  ---------------------------------------------------
  alpha Z        PSCENC =      2354.99753385
  Ewald energy   TEWEN  =    -62457.28080274
  -Hartree energ DENC   =    -44328.27895635
  -exchange      EXHF   =         0.00000000
  -V(xc)+E(xc)   XCENC  =      3320.12397308
  PAW double counting   =     94592.23312189   -98164.79192727
  entropy T*S    EENTRO =         0.00000000
  eigenvalues    EBANDS =     -3137.15724480
  atomic energy  EATOM  =    114020.06510763
  Solvation  Ediel_sol  =         0.00000000
  ---------------------------------------------------
  free energy    TOTEN  =      6199.91080528 eV

  energy without entropy =     6199.91080528  energy(sigma->0) =     6199.91080528


--------------------------------------------------------------------------------------------------------




--------------------------------------- Iteration      1(   2)  ---------------------------------------


     EDDAV:  cpu time  345.7240: real time  348.2994
 BZINTS: Fermi energy:  6.570237;688.000000 electrons
         Band energy:***********;  BLOECHL correction:  0.000000
       DOS:  cpu time    0.0467: real time    0.0469
    --------------------------------------------
      LOOP:  cpu time  345.7706: real time  348.3463

 eigenvalue-minimisations  : 64512
 total energy-change (2. order) :-0.6288111E+04  (-0.6156981E+04)
 number of electron     688.0000000 magnetization      -0.0000000
 augmentation part      688.0000000 magnetization      -0.0000000

 Free energy of the ion-electron system (eV)
  ---------------------------------------------------
  alpha Z        PSCENC =      2354.99753385
  Ewald energy   TEWEN  =    -62457.28080274
  -Hartree energ DENC   =    -44328.27895635
  -exchange      EXHF   =         0.00000000
  -V(xc)+E(xc)   XCENC  =      3320.12397308
  PAW double counting   =     94592.23312189   -98164.79192727
  entropy T*S    EENTRO =         0.00000000
  eigenvalues    EBANDS =     -9425.26776744
  atomic energy  EATOM  =    114020.06510763
  Solvation  Ediel_sol  =         0.00000000
  ---------------------------------------------------
  free energy    TOTEN  =       -88.19971736 eV

  energy without entropy =      -88.19971736  energy(sigma->0) =      -88.19971736


--------------------------------------------------------------------------------------------------------




--------------------------------------- Iteration      1(   3)  ---------------------------------------


     EDDAV:  cpu time  628.2003: real time  632.4293
 BZINTS: Fermi energy:  5.983925;688.000000 electrons
         Band energy:***********;  BLOECHL correction:  0.000000
       DOS:  cpu time    0.0390: real time    0.0391
    --------------------------------------------
      LOOP:  cpu time  628.2392: real time  632.4684

 eigenvalue-minimisations  : 88576
 total energy-change (2. order) :-0.2841798E+03  (-0.2828631E+03)
 number of electron     688.0000000 magnetization      -0.0000000
 augmentation part      688.0000000 magnetization      -0.0000000

 Free energy of the ion-electron system (eV)
  ---------------------------------------------------
  alpha Z        PSCENC =      2354.99753385
  Ewald energy   TEWEN  =    -62457.28080274
  -Hartree energ DENC   =    -44328.27895635
  -exchange      EXHF   =         0.00000000
  -V(xc)+E(xc)   XCENC  =      3320.12397308
  PAW double counting   =     94592.23312189   -98164.79192727
  entropy T*S    EENTRO =         0.00000000
  eigenvalues    EBANDS =     -9709.44753196
  atomic energy  EATOM  =    114020.06510763
  Solvation  Ediel_sol  =         0.00000000
  ---------------------------------------------------
  free energy    TOTEN  =      -372.37948188 eV

  energy without entropy =     -372.37948188  energy(sigma->0) =     -372.37948188


--------------------------------------------------------------------------------------------------------




--------------------------------------- Iteration      1(   4)  ---------------------------------------


     EDDAV:  cpu time  371.1148: real time  373.8647
 BZINTS: Fermi energy:  6.084722;688.000000 electrons
         Band energy:***********;  BLOECHL correction:  0.000000
       DOS:  cpu time    0.0466: real time    0.0468
    --------------------------------------------
      LOOP:  cpu time  371.1613: real time  373.9115

 eigenvalue-minimisations  : 66304
 total energy-change (2. order) :-0.3952891E+01  (-0.3952658E+01)
 number of electron     688.0000000 magnetization      -0.0000000
 augmentation part      688.0000000 magnetization      -0.0000000

 Free energy of the ion-electron system (eV)
  ---------------------------------------------------
  alpha Z        PSCENC =      2354.99753385
  Ewald energy   TEWEN  =    -62457.28080274
  -Hartree energ DENC   =    -44328.27895635
  -exchange      EXHF   =         0.00000000
  -V(xc)+E(xc)   XCENC  =      3320.12397308
  PAW double counting   =     94592.23312189   -98164.79192727
  entropy T*S    EENTRO =         0.00000000
  eigenvalues    EBANDS =     -9713.40042283
  atomic energy  EATOM  =    114020.06510763
  Solvation  Ediel_sol  =         0.00000000
  ---------------------------------------------------
  free energy    TOTEN  =      -376.33237275 eV

  energy without entropy =     -376.33237275  energy(sigma->0) =     -376.33237275


--------------------------------------------------------------------------------------------------------




--------------------------------------- Iteration      1(   5)  ---------------------------------------


     EDDAV:  cpu time  625.2431: real time  629.4176
 BZINTS: Fermi energy:  6.111247;688.000000 electrons
         Band energy:***********;  BLOECHL correction:  0.000000
       DOS:  cpu time    0.0390: real time    0.0392
    CHARGE:  cpu time    3.9522: real time    3.9823
    MIXING:  cpu time    0.0024: real time    0.0024
    --------------------------------------------
      LOOP:  cpu time  629.2367: real time  633.4415

 eigenvalue-minimisations  : 88064
 total energy-change (2. order) :-0.1041110E+00  (-0.1041103E+00)
 number of electron     688.0000432 magnetization      -0.0000000
 augmentation part      261.0339562 magnetization      -0.0000000

 Broyden mixing:
  rms(total) = 0.74968E+01    rms(broyden)= 0.74968E+01
  rms(prec ) = 0.89737E+01
  weight for this iteration     100.00

 Free energy of the ion-electron system (eV)
  ---------------------------------------------------
  alpha Z        PSCENC =      2354.99753385
  Ewald energy   TEWEN  =    -62457.28080274
  -Hartree energ DENC   =    -44328.27895635
  -exchange      EXHF   =         0.00000000
  -V(xc)+E(xc)   XCENC  =      3320.12397308
  PAW double counting   =     94592.23312189   -98164.79192727
  entropy T*S    EENTRO =         0.00000000
  eigenvalues    EBANDS =     -9713.50453382
  atomic energy  EATOM  =    114020.06510763
  Solvation  Ediel_sol  =         0.00000000
  ---------------------------------------------------
  free energy    TOTEN  =      -376.43648374 eV

  energy without entropy =     -376.43648374  energy(sigma->0) =     -376.43648374


--------------------------------------------------------------------------------------------------------




--------------------------------------- Iteration      1(   6)  ---------------------------------------


    POTLOK:  cpu time    0.1186: real time    0.1196
    SETDIJ:  cpu time    0.0126: real time    0.0127
     EDDAV:  cpu time  319.3536: real time  321.7876
 BZINTS: Fermi energy:  4.288767;688.000000 electrons
         Band energy:***********;  BLOECHL correction:  0.000000
       DOS:  cpu time    0.1048: real time    0.1053
    CHARGE:  cpu time    3.9430: real time    3.9731
    MIXING:  cpu time    0.0022: real time    0.0510
    --------------------------------------------
      LOOP:  cpu time  323.5348: real time  326.0493

 eigenvalue-minimisations  : 61440
 total energy-change (2. order) : 0.4156784E+02  (-0.5901095E+02)
 number of electron     688.0000467 magnetization      -0.0000000
 augmentation part      296.1560285 magnetization      -0.0000000

 Broyden mixing:
  rms(total) = 0.99896E+01    rms(broyden)= 0.99896E+01
  rms(prec ) = 0.10429E+02
  weight for this iteration     100.00

 eigenvalues of (default mixing * dielectric matrix)
  average eigenvalue GAMMA=   0.1669
  0.1669

 Free energy of the ion-electron system (eV)
  ---------------------------------------------------
  alpha Z        PSCENC =      2354.99753385
  Ewald energy   TEWEN  =    -62457.28080274
  -Hartree energ DENC   =    -42372.77941608
  -exchange      EXHF   =         0.00000000
  -V(xc)+E(xc)   XCENC  =      3267.55493033
  PAW double counting   =     96416.66573781   -99776.01576715
  entropy T*S    EENTRO =         0.00000000
  eigenvalues    EBANDS =    -11788.07597149
  atomic energy  EATOM  =    114020.06510763
  Solvation  Ediel_sol  =         0.00000000
  ---------------------------------------------------
  free energy    TOTEN  =      -334.86864784 eV

  energy without entropy =     -334.86864784  energy(sigma->0) =     -334.86864784


--------------------------------------------------------------------------------------------------------




--------------------------------------- Iteration      1(   7)  ---------------------------------------


    POTLOK:  cpu time    0.1163: real time    0.1193
    SETDIJ:  cpu time    0.0125: real time    0.0125
     EDDAV:  cpu time  317.2244: real time  319.6879
 BZINTS: Fermi energy:  4.555834;688.000000 electrons
         Band energy:***********;  BLOECHL correction:  0.000000
       DOS:  cpu time    0.0467: real time    0.0469
    CHARGE:  cpu time    3.9452: real time    3.9775
    MIXING:  cpu time    0.0015: real time    0.0033
    --------------------------------------------
      LOOP:  cpu time  321.3466: real time  323.8474

 eigenvalue-minimisations  : 61440
 total energy-change (2. order) : 0.4977366E+01  (-0.1083635E+02)
 number of electron     688.0000455 magnetization       0.0000000
 augmentation part      286.1202130 magnetization       0.0000000

 Broyden mixing:
  rms(total) = 0.43624E+01    rms(broyden)= 0.43624E+01
  rms(prec ) = 0.44363E+01
  weight for this iteration     100.00

 eigenvalues of (default mixing * dielectric matrix)
  average eigenvalue GAMMA=   0.6169
  0.7613  0.4725

 Free energy of the ion-electron system (eV)
  ---------------------------------------------------
  alpha Z        PSCENC =      2354.99753385
  Ewald energy   TEWEN  =    -62457.28080274
  -Hartree energ DENC   =    -42852.95588209
  -exchange      EXHF   =         0.00000000
  -V(xc)+E(xc)   XCENC  =      3278.97384549
  PAW double counting   =     99827.16713525  -103343.05738342
  entropy T*S    EENTRO =         0.00000000
  eigenvalues    EBANDS =    -11157.80083569
  atomic energy  EATOM  =    114020.06510763
  Solvation  Ediel_sol  =         0.00000000
  ---------------------------------------------------
  free energy    TOTEN  =      -329.89128172 eV

  energy without entropy =     -329.89128172  energy(sigma->0) =     -329.89128172


--------------------------------------------------------------------------------------------------------




--------------------------------------- Iteration      1(   8)  ---------------------------------------


    POTLOK:  cpu time    0.1211: real time    0.1219
    SETDIJ:  cpu time    0.0125: real time    0.0126
     EDDAV:  cpu time  530.3922: real time  534.0476
 BZINTS: Fermi energy:  5.070939;688.000000 electrons
         Band energy:***********;  BLOECHL correction:  0.000000
       DOS:  cpu time    0.0466: real time    0.0469
    CHARGE:  cpu time    3.9580: real time    3.9890
    MIXING:  cpu time    0.0016: real time    0.0016
    --------------------------------------------
      LOOP:  cpu time  534.5321: real time  538.2195

 eigenvalue-minimisations  : 79872
 total energy-change (2. order) : 0.2570627E+00  (-0.3330086E+01)
 number of electron     688.0000451 magnetization       0.0000000
 augmentation part      281.4661255 magnetization       0.0000000

 Broyden mixing:
  rms(total) = 0.31372E+01    rms(broyden)= 0.31371E+01
  rms(prec ) = 0.33716E+01
  weight for this iteration     100.00

 eigenvalues of (default mixing * dielectric matrix)
  average eigenvalue GAMMA=   0.8933
  1.6017  0.6199  0.4582

 Free energy of the ion-electron system (eV)
  ---------------------------------------------------
  alpha Z        PSCENC =      2354.99753385
  Ewald energy   TEWEN  =    -62457.28080274
  -Hartree energ DENC   =    -43110.53242307
  -exchange      EXHF   =         0.00000000
  -V(xc)+E(xc)   XCENC  =      3291.04887753
  PAW double counting   =    105324.44162288  -108940.18841169
  entropy T*S    EENTRO =         0.00000000
  eigenvalues    EBANDS =    -10812.18572343
  atomic energy  EATOM  =    114020.06510763
  Solvation  Ediel_sol  =         0.00000000
  ---------------------------------------------------
  free energy    TOTEN  =      -329.63421904 eV

  energy without entropy =     -329.63421904  energy(sigma->0) =     -329.63421904


--------------------------------------------------------------------------------------------------------




--------------------------------------- Iteration      1(   9)  ---------------------------------------


    POTLOK:  cpu time    0.1197: real time    0.1207
    SETDIJ:  cpu time    0.0125: real time    0.0126
     EDDAV:  cpu time  449.2889: real time  452.6865
 BZINTS: Fermi energy:  4.545675;688.000000 electrons
         Band energy:***********;  BLOECHL correction:  0.000000
       DOS:  cpu time    0.0498: real time    0.0502
    CHARGE:  cpu time    4.0311: real time    4.0751
    MIXING:  cpu time    0.0076: real time    0.0356
    --------------------------------------------
      LOOP:  cpu time  453.5098: real time  456.9809

 eigenvalue-minimisations  : 75520
 total energy-change (2. order) :-0.1935358E+01  (-0.9265683E+01)
 number of electron     688.0000450 magnetization       0.0000000
 augmentation part      282.1079995 magnetization       0.0000000

 Broyden mixing:
  rms(total) = 0.23118E+01    rms(broyden)= 0.23118E+01
  rms(prec ) = 0.27521E+01
  weight for this iteration     100.00

 eigenvalues of (default mixing * dielectric matrix)
  average eigenvalue GAMMA=   0.9819
  2.3971  0.5957  0.5957  0.3390

 Free energy of the ion-electron system (eV)
  ---------------------------------------------------
  alpha Z        PSCENC =      2354.99753385
  Ewald energy   TEWEN  =    -62457.28080274
  -Hartree energ DENC   =    -42898.25447573
  -exchange      EXHF   =         0.00000000
  -V(xc)+E(xc)   XCENC  =      3284.02664436
  PAW double counting   =    109921.43530806  -113575.32880842
  entropy T*S    EENTRO =         0.00000000
  eigenvalues    EBANDS =    -10981.23008418
  atomic energy  EATOM  =    114020.06510763
  Solvation  Ediel_sol  =         0.00000000
  ---------------------------------------------------
  free energy    TOTEN  =      -331.56957716 eV

  energy without entropy =     -331.56957716  energy(sigma->0) =     -331.56957716


--------------------------------------------------------------------------------------------------------




--------------------------------------- Iteration      1(  10)  ---------------------------------------


    POTLOK:  cpu time    0.1235: real time    0.1261
    SETDIJ:  cpu time    0.0137: real time    0.0138
     EDDAV:  cpu time  525.3432: real time  529.0408
 BZINTS: Fermi energy:  4.992838;688.000000 electrons
         Band energy:***********;  BLOECHL correction:  0.000000
       DOS:  cpu time    0.0466: real time    0.0468
    CHARGE:  cpu time    4.0381: real time    4.0690
    MIXING:  cpu time    0.0015: real time    0.0015
    --------------------------------------------
      LOOP:  cpu time  529.5666: real time  533.2979

 eigenvalue-minimisations  : 81408
 total energy-change (2. order) : 0.3578989E+01  (-0.2164955E+01)
 number of electron     688.0000449 magnetization       0.0000000
 augmentation part      282.3826135 magnetization       0.0000000

 Broyden mixing:
  rms(total) = 0.28544E+00    rms(broyden)= 0.28538E+00
  rms(prec ) = 0.30154E+00
  weight for this iteration     100.00

 eigenvalues of (default mixing * dielectric matrix)
  average eigenvalue GAMMA=   0.9176
  2.3647  0.7575  0.5693  0.5693  0.3270

 Free energy of the ion-electron system (eV)
  ---------------------------------------------------
  alpha Z        PSCENC =      2354.99753385
  Ewald energy   TEWEN  =    -62457.28080274
  -Hartree energ DENC   =    -42930.71520397
  -exchange      EXHF   =         0.00000000
  -V(xc)+E(xc)   XCENC  =      3287.38569910
  PAW double counting   =    113304.96507262  -117002.38967270
  entropy T*S    EENTRO =         0.00000000
  eigenvalues    EBANDS =    -10905.01832233
  atomic energy  EATOM  =    114020.06510763
  Solvation  Ediel_sol  =         0.00000000
  ---------------------------------------------------
  free energy    TOTEN  =      -327.99058855 eV

  energy without entropy =     -327.99058855  energy(sigma->0) =     -327.99058855


--------------------------------------------------------------------------------------------------------




--------------------------------------- Iteration      1(  11)  ---------------------------------------


    POTLOK:  cpu time    0.1147: real time    0.1152
    SETDIJ:  cpu time    0.0127: real time    0.0127
     EDDAV:  cpu time  515.9638: real time  519.5352
 BZINTS: Fermi energy:  5.002514;688.000000 electrons
         Band energy:***********;  BLOECHL correction:  0.000000
       DOS:  cpu time    0.0467: real time    0.0469
    CHARGE:  cpu time    4.0469: real time    4.0775
    MIXING:  cpu time    0.0015: real time    0.0015
    --------------------------------------------
      LOOP:  cpu time  520.1863: real time  523.7891

 eigenvalue-minimisations  : 79104
 total energy-change (2. order) :-0.1266285E+00  (-0.1057776E+00)
 number of electron     688.0000449 magnetization       0.0000000
 augmentation part      282.3521954 magnetization       0.0000000

 Broyden mixing:
  rms(total) = 0.35175E+00    rms(broyden)= 0.35173E+00
  rms(prec ) = 0.38763E+00
  weight for this iteration     100.00

 eigenvalues of (default mixing * dielectric matrix)
  average eigenvalue GAMMA=   0.9029
  2.2595  0.7445  0.7445  0.7338  0.5911  0.3436

 Free energy of the ion-electron system (eV)
  ---------------------------------------------------
  alpha Z        PSCENC =      2354.99753385
  Ewald energy   TEWEN  =    -62457.28080274
  -Hartree energ DENC   =    -42946.69862114
  -exchange      EXHF   =         0.00000000
  -V(xc)+E(xc)   XCENC  =      3287.04429962
  PAW double counting   =    113092.85293811  -116790.29947205
  entropy T*S    EENTRO =         0.00000000
  eigenvalues    EBANDS =    -10888.79820034
  atomic energy  EATOM  =    114020.06510763
  Solvation  Ediel_sol  =         0.00000000
  ---------------------------------------------------
  free energy    TOTEN  =      -328.11721705 eV

  energy without entropy =     -328.11721705  energy(sigma->0) =     -328.11721705


--------------------------------------------------------------------------------------------------------




--------------------------------------- Iteration      1(  12)  ---------------------------------------


    POTLOK:  cpu time    0.1146: real time    0.1152
    SETDIJ:  cpu time    0.0126: real time    0.0126
     EDDAV:  cpu time  546.6176: real time  550.3600
 BZINTS: Fermi energy:  4.983985;688.000000 electrons
         Band energy:***********;  BLOECHL correction:  0.000000
       DOS:  cpu time    0.0467: real time    0.0469
    CHARGE:  cpu time    4.0415: real time    4.0721
    MIXING:  cpu time    0.0015: real time    0.0015
    --------------------------------------------
      LOOP:  cpu time  550.8345: real time  554.6083

 eigenvalue-minimisations  : 82176
 total energy-change (2. order) : 0.1260981E-01  (-0.4736147E-01)
 number of electron     688.0000448 magnetization       0.0000000
 augmentation part      282.2515975 magnetization       0.0000000

 Broyden mixing:
  rms(total) = 0.13495E+00    rms(broyden)= 0.13495E+00
  rms(prec ) = 0.14887E+00
  weight for this iteration     100.00

 eigenvalues of (default mixing * dielectric matrix)
  average eigenvalue GAMMA=   0.9370
  2.2792  1.0628  1.0628  0.6142  0.6142  0.5823  0.3438

 Free energy of the ion-electron system (eV)
  ---------------------------------------------------
  alpha Z        PSCENC =      2354.99753385
  Ewald energy   TEWEN  =    -62457.28080274
  -Hartree energ DENC   =    -42945.66001515
  -exchange      EXHF   =         0.00000000
  -V(xc)+E(xc)   XCENC  =      3286.57091424
  PAW double counting   =    112702.57604794  -116397.14277881
  entropy T*S    EENTRO =         0.00000000
  eigenvalues    EBANDS =    -10892.23061419
  atomic energy  EATOM  =    114020.06510763
  Solvation  Ediel_sol  =         0.00000000
  ---------------------------------------------------
  free energy    TOTEN  =      -328.10460724 eV

  energy without entropy =     -328.10460724  energy(sigma->0) =     -328.10460724


--------------------------------------------------------------------------------------------------------




--------------------------------------- Iteration      1(  13)  ---------------------------------------


    POTLOK:  cpu time    0.1149: real time    0.1156
    SETDIJ:  cpu time    0.0126: real time    0.0127
     EDDAV:  cpu time  487.3143: real time  490.7362
 BZINTS: Fermi energy:  4.987317;688.000000 electrons
         Band energy:***********;  BLOECHL correction:  0.000000
       DOS:  cpu time    0.0468: real time    0.0470
    CHARGE:  cpu time    4.0420: real time    4.0734
    MIXING:  cpu time    0.0017: real time    0.0017
    --------------------------------------------
      LOOP:  cpu time  491.5323: real time  494.9866

 eigenvalue-minimisations  : 76800
 total energy-change (2. order) :-0.4606520E-02  (-0.5056901E-02)
 number of electron     688.0000448 magnetization       0.0000000
 augmentation part      282.2522992 magnetization       0.0000000

 Broyden mixing:
  rms(total) = 0.94326E-01    rms(broyden)= 0.94325E-01
  rms(prec ) = 0.95791E-01
  weight for this iteration     100.00

 eigenvalues of (default mixing * dielectric matrix)
  average eigenvalue GAMMA=   1.1241
  2.5383  2.5383  0.3439  0.8442  0.8442  0.6479  0.6479  0.5883

 Free energy of the ion-electron system (eV)
  ---------------------------------------------------
  alpha Z        PSCENC =      2354.99753385
  Ewald energy   TEWEN  =    -62457.28080274
  -Hartree energ DENC   =    -42952.28755283
  -exchange      EXHF   =         0.00000000
  -V(xc)+E(xc)   XCENC  =      3286.64177962
  PAW double counting   =    112445.15382038  -116139.62097707
  entropy T*S    EENTRO =         0.00000000
  eigenvalues    EBANDS =    -10885.77812259
  atomic energy  EATOM  =    114020.06510763
  Solvation  Ediel_sol  =         0.00000000
  ---------------------------------------------------
  free energy    TOTEN  =      -328.10921376 eV

  energy without entropy =     -328.10921376  energy(sigma->0) =     -328.10921376


--------------------------------------------------------------------------------------------------------




--------------------------------------- Iteration      1(  14)  ---------------------------------------


    POTLOK:  cpu time    0.1145: real time    0.1150
    SETDIJ:  cpu time    0.0125: real time    0.0125
     EDDAV:  cpu time  646.8896: real time  651.1907
 BZINTS: Fermi energy:  4.989772;688.000000 electrons
         Band energy:***********;  BLOECHL correction:  0.000000
       DOS:  cpu time    0.0467: real time    0.0469
    CHARGE:  cpu time    4.0372: real time    4.0710
    MIXING:  cpu time    0.0033: real time    0.0033
    --------------------------------------------
      LOOP:  cpu time  651.1037: real time  655.4395

 eigenvalue-minimisations  : 89856
 total energy-change (2. order) :-0.9441167E-02  (-0.4694312E-02)
 number of electron     688.0000448 magnetization       0.0000000
 augmentation part      282.2121873 magnetization       0.0000000

 Broyden mixing:
  rms(total) = 0.39307E-01    rms(broyden)= 0.39301E-01
  rms(prec ) = 0.43962E-01
  weight for this iteration     100.00

 eigenvalues of (default mixing * dielectric matrix)
  average eigenvalue GAMMA=   1.0508
  2.3533  2.3533  0.9402  0.9402  0.3438  0.6397  0.6397  0.5727  0.6742

 Free energy of the ion-electron system (eV)
  ---------------------------------------------------
  alpha Z        PSCENC =      2354.99753385
  Ewald energy   TEWEN  =    -62457.28080274
  -Hartree energ DENC   =    -42960.45506212
  -exchange      EXHF   =         0.00000000
  -V(xc)+E(xc)   XCENC  =      3286.44695234
  PAW double counting   =    112153.16701701  -115847.26351674
  entropy T*S    EENTRO =         0.00000000
  eigenvalues    EBANDS =    -10877.79588416
  atomic energy  EATOM  =    114020.06510763
  Solvation  Ediel_sol  =         0.00000000
  ---------------------------------------------------
  free energy    TOTEN  =      -328.11865493 eV

  energy without entropy =     -328.11865493  energy(sigma->0) =     -328.11865493


--------------------------------------------------------------------------------------------------------




--------------------------------------- Iteration      1(  15)  ---------------------------------------


    POTLOK:  cpu time    0.1160: real time    0.1168
    SETDIJ:  cpu time    0.0126: real time    0.0127
     EDDAV:  cpu time  381.9694: real time  384.7654
[...]
   -.422E+02 0.305E+01 -.258E+00   0.430E+02 -.307E+01 0.261E+00   -.862E+00 0.199E-01 -.304E-02   -.479E-04 -.107E-05 -.816E-06
   -.422E+02 0.305E+01 -.258E+00   0.430E+02 -.307E+01 0.261E+00   -.862E+00 0.199E-01 -.304E-02   -.479E-04 -.107E-05 -.816E-06
   -.422E+02 0.305E+01 -.258E+00   0.430E+02 -.307E+01 0.261E+00   -.862E+00 0.199E-01 -.304E-02   -.479E-04 -.107E-05 -.816E-06
   -.422E+02 0.305E+01 -.258E+00   0.430E+02 -.307E+01 0.261E+00   -.862E+00 0.199E-01 -.304E-02   -.479E-04 -.107E-05 -.816E-06
   0.422E+02 0.305E+01 0.258E+00   -.430E+02 -.307E+01 -.261E+00   0.862E+00 0.199E-01 0.304E-02   0.479E-04 -.107E-05 0.816E-06
   0.422E+02 0.305E+01 0.258E+00   -.430E+02 -.307E+01 -.261E+00   0.862E+00 0.199E-01 0.304E-02   0.479E-04 -.107E-05 0.816E-06
   0.422E+02 0.305E+01 0.258E+00   -.430E+02 -.307E+01 -.261E+00   0.862E+00 0.199E-01 0.304E-02   0.479E-04 -.107E-05 0.816E-06
   0.422E+02 0.305E+01 0.258E+00   -.430E+02 -.307E+01 -.261E+00   0.862E+00 0.199E-01 0.304E-02   0.479E-04 -.107E-05 0.816E-06
   0.540E-07 -.398E+02 0.221E-06   -.455E-11 0.407E+02 -.164E-10   0.247E-17 -.843E+00 0.163E-18   0.105E-12 -.465E-04 -.615E-12
   0.540E-07 -.398E+02 0.221E-06   0.436E-11 0.407E+02 0.156E-10   -.301E-17 -.843E+00 0.163E-18   -.142E-12 -.465E-04 -.692E-12
   0.540E-07 -.398E+02 0.221E-06   -.455E-11 0.407E+02 -.164E-10   -.310E-17 -.843E+00 0.217E-18   0.121E-12 -.465E-04 -.579E-12
   0.540E-07 -.398E+02 0.221E-06   0.440E-11 0.407E+02 0.156E-10   0.502E-17 -.843E+00 0.000E+00   -.866E-13 -.465E-04 -.707E-12
   0.231E-07 0.445E+02 -.184E-06   0.196E-11 -.454E+02 -.106E-11   -.520E-17 0.881E+00 0.108E-17   -.171E-12 0.490E-04 -.594E-12
   0.231E-07 0.445E+02 -.184E-06   -.176E-11 -.454E+02 0.176E-11   0.151E-17 0.881E+00 -.867E-18   0.400E-13 0.490E-04 -.623E-12
   0.231E-07 0.445E+02 -.184E-06   0.195E-11 -.454E+02 -.109E-11   -.367E-18 0.881E+00 -.108E-17   -.157E-12 0.490E-04 -.644E-12
   0.231E-07 0.445E+02 -.184E-06   -.176E-11 -.454E+02 0.179E-11   -.231E-17 0.881E+00 0.282E-17   0.510E-13 0.490E-04 -.671E-12
   0.636E+00 -.288E+01 0.262E-01   -.628E+00 0.277E+01 -.269E-01   -.852E-02 0.116E+00 0.651E-03   -.665E-05 0.344E-05 -.520E-06
   0.636E+00 -.288E+01 0.262E-01   -.628E+00 0.277E+01 -.269E-01   -.852E-02 0.116E+00 0.651E-03   -.665E-05 0.344E-05 -.520E-06
   0.636E+00 -.288E+01 0.262E-01   -.628E+00 0.277E+01 -.269E-01   -.852E-02 0.116E+00 0.651E-03   -.665E-05 0.344E-05 -.520E-06
   0.636E+00 -.288E+01 0.262E-01   -.628E+00 0.277E+01 -.269E-01   -.852E-02 0.116E+00 0.651E-03   -.665E-05 0.344E-05 -.520E-06
   -.636E+00 -.288E+01 -.262E-01   0.628E+00 0.277E+01 0.269E-01   0.852E-02 0.116E+00 -.651E-03   0.665E-05 0.344E-05 0.520E-06
   -.636E+00 -.288E+01 -.262E-01   0.628E+00 0.277E+01 0.269E-01   0.852E-02 0.116E+00 -.651E-03   0.665E-05 0.344E-05 0.520E-06
   -.636E+00 -.288E+01 -.262E-01   0.628E+00 0.277E+01 0.269E-01   0.852E-02 0.116E+00 -.651E-03   0.665E-05 0.344E-05 0.520E-06
   -.636E+00 -.288E+01 -.262E-01   0.628E+00 0.277E+01 0.269E-01   0.852E-02 0.116E+00 -.651E-03   0.665E-05 0.344E-05 0.520E-06
   0.636E+00 -.288E+01 0.262E-01   -.628E+00 0.277E+01 -.269E-01   -.852E-02 0.116E+00 0.651E-03   -.665E-05 0.344E-05 -.520E-06
   0.636E+00 -.288E+01 0.262E-01   -.628E+00 0.277E+01 -.269E-01   -.852E-02 0.116E+00 0.651E-03   -.665E-05 0.344E-05 -.520E-06
   0.636E+00 -.288E+01 0.262E-01   -.628E+00 0.277E+01 -.269E-01   -.852E-02 0.116E+00 0.651E-03   -.665E-05 0.344E-05 -.520E-06
   0.636E+00 -.288E+01 0.262E-01   -.628E+00 0.277E+01 -.269E-01   -.852E-02 0.116E+00 0.651E-03   -.665E-05 0.344E-05 -.520E-06
   -.636E+00 -.288E+01 -.262E-01   0.628E+00 0.277E+01 0.269E-01   0.852E-02 0.116E+00 -.651E-03   0.665E-05 0.344E-05 0.520E-06
   -.636E+00 -.288E+01 -.262E-01   0.628E+00 0.277E+01 0.269E-01   0.852E-02 0.116E+00 -.651E-03   0.665E-05 0.344E-05 0.520E-06
   -.636E+00 -.288E+01 -.262E-01   0.628E+00 0.277E+01 0.269E-01   0.852E-02 0.116E+00 -.651E-03   0.665E-05 0.344E-05 0.520E-06
   -.636E+00 -.288E+01 -.262E-01   0.628E+00 0.277E+01 0.269E-01   0.852E-02 0.116E+00 -.651E-03   0.665E-05 0.344E-05 0.520E-06
   -.743E+00 -.281E+01 0.384E-01   0.728E+00 0.266E+01 -.395E-01   0.159E-01 0.154E+00 0.843E-03   0.824E-05 -.210E-04 -.394E-06
   -.743E+00 -.281E+01 0.384E-01   0.728E+00 0.266E+01 -.395E-01   0.159E-01 0.154E+00 0.843E-03   0.824E-05 -.210E-04 -.394E-06
   -.743E+00 -.281E+01 0.384E-01   0.728E+00 0.266E+01 -.395E-01   0.159E-01 0.154E+00 0.843E-03   0.824E-05 -.210E-04 -.394E-06
   -.743E+00 -.281E+01 0.384E-01   0.728E+00 0.266E+01 -.395E-01   0.159E-01 0.154E+00 0.843E-03   0.824E-05 -.210E-04 -.394E-06
   0.743E+00 -.281E+01 -.384E-01   -.728E+00 0.266E+01 0.395E-01   -.159E-01 0.154E+00 -.843E-03   -.824E-05 -.210E-04 0.394E-06
   0.743E+00 -.281E+01 -.384E-01   -.728E+00 0.266E+01 0.395E-01   -.159E-01 0.154E+00 -.843E-03   -.824E-05 -.210E-04 0.394E-06
   0.743E+00 -.281E+01 -.384E-01   -.728E+00 0.266E+01 0.395E-01   -.159E-01 0.154E+00 -.843E-03   -.824E-05 -.210E-04 0.394E-06
   0.743E+00 -.281E+01 -.384E-01   -.728E+00 0.266E+01 0.395E-01   -.159E-01 0.154E+00 -.843E-03   -.824E-05 -.210E-04 0.394E-06
   -.743E+00 -.281E+01 0.384E-01   0.728E+00 0.266E+01 -.395E-01   0.159E-01 0.154E+00 0.843E-03   0.824E-05 -.210E-04 -.394E-06
   -.743E+00 -.281E+01 0.384E-01   0.728E+00 0.266E+01 -.395E-01   0.159E-01 0.154E+00 0.843E-03   0.824E-05 -.210E-04 -.394E-06
   -.743E+00 -.281E+01 0.384E-01   0.728E+00 0.266E+01 -.395E-01   0.159E-01 0.154E+00 0.843E-03   0.824E-05 -.210E-04 -.394E-06
   -.743E+00 -.281E+01 0.384E-01   0.728E+00 0.266E+01 -.395E-01   0.159E-01 0.154E+00 0.843E-03   0.824E-05 -.210E-04 -.394E-06
   0.743E+00 -.281E+01 -.384E-01   -.728E+00 0.266E+01 0.395E-01   -.159E-01 0.154E+00 -.843E-03   -.824E-05 -.210E-04 0.394E-06
   0.743E+00 -.281E+01 -.384E-01   -.728E+00 0.266E+01 0.395E-01   -.159E-01 0.154E+00 -.843E-03   -.824E-05 -.210E-04 0.394E-06
   0.743E+00 -.281E+01 -.384E-01   -.728E+00 0.266E+01 0.395E-01   -.159E-01 0.154E+00 -.843E-03   -.824E-05 -.210E-04 0.394E-06
   0.743E+00 -.281E+01 -.384E-01   -.728E+00 0.266E+01 0.395E-01   -.159E-01 0.154E+00 -.843E-03   -.824E-05 -.210E-04 0.394E-06
 -----------------------------------------------------------------------------------------------
   0.260E-06 -.495E+01 0.178E-03   -.228E-12 -.708E-12 -.239E-12   0.279E-14 0.495E+01 -.705E-17   -.437E-11 -.279E-03 -.220E-12
 
 
 POSITION                                       TOTAL-FORCE (eV/Angst)
 -----------------------------------------------------------------------------------
      1.33236      1.30877      1.30807         0.000023     -0.000155      0.000027
      6.59023      1.30877      1.33101         0.000023     -0.000155      0.000027
      1.33236      6.56681      1.30807         0.000023     -0.000155      0.000027
      6.59023      6.56681      1.33101         0.000023     -0.000155      0.000027
      3.93687      3.93779      1.31754        -0.000023     -0.000155     -0.000027
      9.19473      3.93779      1.34048        -0.000023     -0.000155     -0.000027
      3.93687      9.19582      1.31754        -0.000023     -0.000155     -0.000027
      9.19473      9.19582      1.34048        -0.000023     -0.000155     -0.000027
      1.35421      3.92739      9.11506         0.000000     -0.000156      0.000000
      6.61208      3.92739      9.13800         0.000000     -0.000156      0.000000
      1.35421      9.18542      9.11506         0.000000     -0.000156      0.000000
      6.61208      9.18542      9.13800         0.000000     -0.000156      0.000000
      3.98315      1.32260      9.12653         0.000000      0.000008      0.000000
      9.24101      1.32260      9.14947         0.000000      0.000008      0.000000
      3.98315      6.58063      9.12653         0.000000      0.000008      0.000000
      9.24101      6.58063      9.14947         0.000000      0.000008      0.000000
      1.33064      1.30877      6.51139        -0.000023     -0.000155     -0.000027
      6.58851      1.30877      6.53434        -0.000023     -0.000155     -0.000027
      1.33064      6.56681      6.51139        -0.000023     -0.000155     -0.000027
      6.58851      6.56681      6.53434        -0.000023     -0.000155     -0.000027
      3.98400      3.93779      6.52487         0.000023     -0.000155      0.000027
      9.24187      3.93779      6.54781         0.000023     -0.000155      0.000027
      3.98400      9.19582      6.52487         0.000023     -0.000155      0.000027
      9.24187      9.19582      6.54781         0.000023     -0.000155      0.000027
      3.96043      1.29837      3.92120         0.000000     -0.000156      0.000000
      9.21830      1.29837      3.94414         0.000000     -0.000156      0.000000
      3.96043      6.55641      3.92120         0.000000     -0.000156      0.000000
      9.21830      6.55641      3.94414         0.000000     -0.000156      0.000000
      1.33150      3.95162      3.90973         0.000000      0.000008      0.000000
      6.58937      3.95162      3.93267         0.000000      0.000008      0.000000
      1.33150      9.20965      3.90973         0.000000      0.000008      0.000000
      6.58937      9.20965      3.93267         0.000000      0.000008      0.000000
     10.53668      0.00496      5.25118        -0.000273      0.000243     -0.000043
      5.27881      0.00496      5.22824        -0.000273      0.000243     -0.000043
     10.53668      5.26300      5.25118        -0.000273      0.000243     -0.000043
      5.27881      5.26300      5.22824        -0.000273      0.000243     -0.000043
      2.64206      0.00496      2.61416         0.000273      0.000243      0.000043
      7.89992      0.00496      2.63711         0.000273      0.000243      0.000043
      2.64206      5.26300      2.61416         0.000273      0.000243      0.000043
      7.89992      5.26300      2.63711         0.000273      0.000243      0.000043
      2.67259      2.63398     10.42210        -0.000273      0.000243     -0.000043
      7.93046      2.63398     10.44504        -0.000273      0.000243     -0.000043
      2.67259      7.89202     10.42210        -0.000273      0.000243     -0.000043
      7.93046      7.89202     10.44504        -0.000273      0.000243     -0.000043
      0.03584      2.63398      7.80802         0.000273      0.000243      0.000043
      5.29370      2.63398      7.83096         0.000273      0.000243      0.000043
      0.03584      7.89202      7.80802         0.000273      0.000243      0.000043
      5.29370      7.89202      7.83096         0.000273      0.000243      0.000043
     10.51486      0.00482      0.04597         0.000059     -0.000014     -0.000279
      5.25700      0.00482      0.02303         0.000059     -0.000014     -0.000279
     10.51486      5.26285      0.04597         0.000059     -0.000014     -0.000279
      5.25700      5.26285      0.02303         0.000059     -0.000014     -0.000279
      2.66387      0.00482      7.81937        -0.000059     -0.000014      0.000279
      7.92174      0.00482      7.84232        -0.000059     -0.000014      0.000279
      2.66387      5.26285      7.81937        -0.000059     -0.000014      0.000279
      7.92174      5.26285      7.84232        -0.000059     -0.000014      0.000279
      2.65077      2.63384      5.21689         0.000059     -0.000014     -0.000279
      7.90864      2.63384      5.23983         0.000059     -0.000014     -0.000279
      2.65077      7.89187      5.21689         0.000059     -0.000014     -0.000279
      7.90864      7.89187      5.23983         0.000059     -0.000014     -0.000279
      0.01223      2.63384      2.60257        -0.000059     -0.000014      0.000279
      5.27010      2.63384      2.62552        -0.000059     -0.000014      0.000279
      0.01223      7.89187      2.60257        -0.000059     -0.000014      0.000279
      5.27010      7.89187      2.62552        -0.000059     -0.000014      0.000279
 -----------------------------------------------------------------------------------
    total drift:                                0.000000     -0.003387      0.000178


--------------------------------------------------------------------------------------------------------



  FREE ENERGIE OF THE ION-ELECTRON SYSTEM (eV)
  ---------------------------------------------------
  free  energy   TOTEN  =      -328.11875370 eV

  energy  without entropy=     -328.11875370  energy(sigma->0) =     -328.11875370
 


--------------------------------------------------------------------------------------------------------


    POTLOK:  cpu time    0.1295: real time    0.1302


--------------------------------------------------------------------------------------------------------


 writing wavefunctions
     LOOP+:  cpu time13709.7065: real time13814.0985
    4ORBIT:  cpu time    0.0001: real time    0.0011
 


 total charge     
 
# of ion       s       p       d       tot
------------------------------------------
    1        1.313   2.410   0.000   3.724
    2        1.313   2.410   0.000   3.724
    3        1.313   2.410   0.000   3.724
    4        1.313   2.410   0.000   3.724
    5        1.313   2.410   0.000   3.724
    6        1.313   2.410   0.000   3.724
    7        1.313   2.410   0.000   3.724
    8        1.313   2.410   0.000   3.724
    9        1.314   2.410   0.000   3.723
   10        1.314   2.410   0.000   3.723
   11        1.314   2.410   0.000   3.723
   12        1.314   2.410   0.000   3.723
   13        1.313   2.411   0.000   3.724
   14        1.313   2.411   0.000   3.724
   15        1.313   2.411   0.000   3.724
   16        1.313   2.411   0.000   3.724
   17        1.313   2.410   0.000   3.724
   18        1.313   2.410   0.000   3.724
   19        1.313   2.410   0.000   3.724
   20        1.313   2.410   0.000   3.724
   21        1.313   2.410   0.000   3.724
   22        1.313   2.410   0.000   3.724
   23        1.313   2.410   0.000   3.724
   24        1.313   2.410   0.000   3.724
   25        1.314   2.410   0.000   3.723
   26        1.314   2.410   0.000   3.723
   27        1.314   2.410   0.000   3.723
   28        1.314   2.410   0.000   3.723
   29        1.313   2.411   0.000   3.724
   30        1.313   2.411   0.000   3.724
   31        1.313   2.411   0.000   3.724
   32        1.313   2.411   0.000   3.724
   33        0.260   6.202   8.917  15.378
   34        0.260   6.202   8.917  15.378
   35        0.260   6.202   8.917  15.378
   36        0.260   6.202   8.917  15.378
   37        0.260   6.202   8.917  15.378
   38        0.260   6.202   8.917  15.378
   39        0.260   6.202   8.917  15.378
   40        0.260   6.202   8.917  15.378
   41        0.260   6.202   8.917  15.378
   42        0.260   6.202   8.917  15.378
   43        0.260   6.202   8.917  15.378
   44        0.260   6.202   8.917  15.378
   45        0.260   6.202   8.917  15.378
   46        0.260   6.202   8.917  15.378
   47        0.260   6.202   8.917  15.378
   48        0.260   6.202   8.917  15.378
   49        0.350   6.351   5.820  12.521
   50        0.350   6.351   5.820  12.521
   51        0.350   6.351   5.820  12.521
   52        0.350   6.351   5.820  12.521
   53        0.350   6.351   5.820  12.521
   54        0.350   6.351   5.820  12.521
   55        0.350   6.351   5.820  12.521
   56        0.350   6.351   5.820  12.521
   57        0.350   6.351   5.820  12.521
   58        0.350   6.351   5.820  12.521
   59        0.350   6.351   5.820  12.521
   60        0.350   6.351   5.820  12.521
   61        0.350   6.351   5.820  12.521
   62        0.350   6.351   5.820  12.521
   63        0.350   6.351   5.820  12.521
   64        0.350   6.351   5.820  12.521
--------------------------------------------------
tot         51.789 277.974 235.777 565.541
 


 magnetization (x)
 
# of ion       s       p       d       tot
------------------------------------------
    1        0.000  -0.002   0.000  -0.002
    2        0.000  -0.002   0.000  -0.002
    3        0.000  -0.002   0.000  -0.002
    4        0.000  -0.002   0.000  -0.002
    5        0.000   0.002   0.000   0.002
    6        0.000   0.002   0.000   0.002
    7        0.000   0.002   0.000   0.002
    8        0.000   0.002   0.000   0.002
    9       -0.000   0.000   0.000   0.000
   10       -0.000   0.000   0.000   0.000
   11       -0.000   0.000   0.000   0.000
   12       -0.000   0.000   0.000   0.000
   13       -0.000   0.000   0.000   0.000
   14       -0.000   0.000   0.000   0.000
   15       -0.000   0.000   0.000   0.000
   16       -0.000   0.000   0.000   0.000
   17        0.000   0.002   0.000   0.002
   18        0.000   0.002   0.000   0.002
   19        0.000   0.002   0.000   0.002
   20        0.000   0.002   0.000   0.002
   21        0.000  -0.002   0.000  -0.002
   22        0.000  -0.002   0.000  -0.002
   23        0.000  -0.002   0.000  -0.002
   24        0.000  -0.002   0.000  -0.002
   25       -0.000   0.000   0.000   0.000
   26       -0.000   0.000   0.000   0.000
   27       -0.000   0.000   0.000   0.000
   28       -0.000   0.000   0.000   0.000
   29       -0.000   0.000   0.000   0.000
   30       -0.000   0.000   0.000   0.000
   31       -0.000   0.000   0.000   0.000
   32       -0.000   0.000   0.000   0.000
   33        0.000   0.000  -0.001   0.000
   34        0.000   0.000  -0.001   0.000
   35        0.000   0.000  -0.001   0.000
   36        0.000   0.000  -0.001   0.000
   37       -0.000  -0.000   0.001  -0.000
   38       -0.000  -0.000   0.001  -0.000
   39       -0.000  -0.000   0.001  -0.000
   40       -0.000  -0.000   0.001  -0.000
   41        0.000   0.000  -0.001   0.000
   42        0.000   0.000  -0.001   0.000
   43        0.000   0.000  -0.001   0.000
   44        0.000   0.000  -0.001   0.000
   45       -0.000  -0.000   0.001  -0.000
   46       -0.000  -0.000   0.001  -0.000
   47       -0.000  -0.000   0.001  -0.000
   48       -0.000  -0.000   0.001  -0.000
   49        0.020   0.054   3.671   3.745
   50        0.020   0.054   3.671   3.745
   51        0.020   0.054   3.671   3.745
   52        0.020   0.054   3.671   3.745
   53       -0.020  -0.054  -3.671  -3.745
   54       -0.020  -0.054  -3.671  -3.745
   55       -0.020  -0.054  -3.671  -3.745
   56       -0.020  -0.054  -3.671  -3.745
   57        0.020   0.054   3.671   3.745
   58        0.020   0.054   3.671   3.745
   59        0.020   0.054   3.671   3.745
   60        0.020   0.054   3.671   3.745
   61       -0.020  -0.054  -3.671  -3.745
   62       -0.020  -0.054  -3.671  -3.745
   63       -0.020  -0.054  -3.671  -3.745
   64       -0.020  -0.054  -3.671  -3.745
--------------------------------------------------
tot         -0.000   0.000   0.000   0.000
 
 BZINTS: Fermi energy:  4.988585;688.000000 electrons
         Band energy:***********;  BLOECHL correction:  0.000000

 total amount of memory used by VASP MPI-rank0   881832. kBytes
=======================================================================

   base      :      30000. kBytes
   nonl-proj :     680181. kBytes
   fftplans  :       4588. kBytes
   grid      :      69719. kBytes
   one-center:       1990. kBytes
   wavefun   :      95354. kBytes
 
  
  
 General timing and accounting informations for this job:
 ========================================================
  
                  Total CPU time used (sec):    13858.023
                            User time (sec):    13831.865
                          System time (sec):       26.158
                         Elapsed time (sec):    13966.680
  
                   Maximum memory used (kb):     1517996.
                   Average memory used (kb):           0.
  
                          Minor page faults:      1638386
                          Major page faults:        32594
                 Voluntary context switches:        39568
