       N       E                     dE             d eps       ncg     rms          rms(c)
DAV:   1     0.604575421096E+04    0.60458E+04   -0.51608E+05 16384   0.197E+03
DAV:   2    -0.792660740024E+02   -0.61250E+04   -0.60155E+04 17920   0.446E+02
DAV:   3    -0.326919366276E+03   -0.24765E+03   -0.24676E+03 23040   0.974E+01
DAV:   4    -0.330300058398E+03   -0.33807E+01   -0.33805E+01 19456   0.114E+01
DAV:   5    -0.330402596057E+03   -0.10254E+00   -0.10254E+00 22016   0.196E+00    0.148E+01
DAV:   6    -0.327700075954E+03    0.27025E+01   -0.34626E+00 27648   0.659E+00    0.824E+00
DAV:   7    -0.327047859889E+03    0.65222E+00   -0.33245E+00 20480   0.554E+00    0.592E+00
DAV:   8    -0.326894888728E+03    0.15297E+00   -0.39900E+00 23552   0.562E+00    0.579E+00
DAV:   9    -0.326774466530E+03    0.12042E+00   -0.11200E+00 20480   0.285E+00    0.158E+00
DAV:  10    -0.326776878424E+03   -0.24119E-02   -0.51525E-02 23552   0.442E-01    0.922E-01
DAV:  11    -0.326779338631E+03   -0.24602E-02   -0.16853E-02 19968   0.298E-01    0.432E-01
DAV:  12    -0.326781331417E+03   -0.19928E-02   -0.64241E-03 22272   0.128E-01    0.165E-01
DAV:  13    -0.326781621423E+03   -0.29001E-03   -0.82140E-04 19456   0.614E-02    0.107E-01
DAV:  14    -0.326781812101E+03   -0.19068E-03   -0.53898E-04 23296   0.353E-02    0.554E-02
DAV:  15    -0.326781916527E+03   -0.10443E-03   -0.30342E-04 18688   0.181E-02    0.290E-02
DAV:  16    -0.326781944831E+03   -0.28303E-04   -0.79633E-05 22528   0.120E-02    0.185E-02
DAV:  17    -0.326781964500E+03   -0.19669E-04   -0.82334E-05 19456   0.890E-03    0.113E-02
DAV:  18    -0.326781970012E+03   -0.55116E-05   -0.38182E-05 20992   0.666E-03    0.513E-03
DAV:  19    -0.326781970644E+03   -0.63267E-06   -0.39263E-06 23040   0.226E-03    0.381E-03
DAV:  20    -0.326781970842E+03   -0.19779E-06   -0.13068E-06 23552   0.134E-03    0.150E-03
DAV:  21    -0.326781970916E+03   -0.73749E-07   -0.29972E-07 19200   0.658E-04    0.885E-04
DAV:  22    -0.326781970955E+03   -0.39567E-07   -0.68277E-08 25088   0.313E-04    0.546E-04
DAV:  23    -0.326781970975E+03   -0.19543E-07   -0.22605E-08 12800   0.179E-04    0.238E-04
DAV:  24    -0.326781970986E+03   -0.11394E-07   -0.10358E-08 14336   0.110E-04    0.160E-04
DAV:  25    -0.326781970989E+03   -0.27212E-08   -0.45287E-09 11264   0.744E-05
   1 F= -.32678197E+03 E0= -.32678197E+03  d E =0.000000E+00  mag=     0.0000
