 vasp.5.4.4.18Apr17-6-g9f103f2a35 (build Oct 30 2023 17:30:16) complex          
  
 executed on             LinuxIFC date 2024.06.30  20:56:50
 running on  256 total cores
 distrk:  each k-point on  256 cores,    1 groups
 distr:  one band on NCORES_PER_BAND=   1 cores,  256 groups


--------------------------------------------------------------------------------------------------------


 INCAR:
 POTCAR:    PAW_PBE S 06Sep2000                   
 POTCAR:     PAW_PBE Cu_pv 06Sep2000              
 POTCAR:     PAW_PBE Fe_pv 02Aug2007              

 ----------------------------------------------------------------------------- 
|                                                                             |
|           W    W    AA    RRRRR   N    N  II  N    N   GGGG   !!!           |
|           W    W   A  A   R    R  NN   N  II  NN   N  G    G  !!!           |
|           W    W  A    A  R    R  N N  N  II  N N  N  G       !!!           |
|           W WW W  AAAAAA  RRRRR   N  N N  II  N  N N  G  GGG   !            |
|           WW  WW  A    A  R   R   N   NN  II  N   NN  G    G                |
|           W    W  A    A  R    R  N    N  II  N    N   GGGG   !!!           |
|                                                                             |
|      For optimal performance we recommend to set                            |
|        NCORE= 4 - approx SQRT( number of cores)                             |
|      NCORE specifies how many cores store one orbital (NPAR=cpu/NCORE).     |
|      This setting can  greatly improve the performance of VASP for DFT.     |
|      The default,   NCORE=1            might be grossly inefficient         |
|      on modern multi-core architectures or massively parallel machines.     |
|      Do your own testing !!!!                                               |
|      Unfortunately you need to use the default for GW and RPA calculations. |
|      (for HF NCORE is supported but not extensively tested yet)             |
|                                                                             |
 ----------------------------------------------------------------------------- 

 POTCAR:    PAW_PBE S 06Sep2000                   
   SHA256 =  0fc7481fb0695f01bdc6462160264c5c84044ae9ec85a907d398b887a2bc3132 S/
   COPYR  = (c) Copyright 06Sep2000 Georg Kresse                                
   COPYR  = This file is part of the software VASP. Any use, copying, and all ot
   COPYR  = If you do not have a valid VASP license, you may not use, copy or di
   VRHFIN =S : s2p4                                                             
   LEXCH  = PE                                                                  
   EATOM  =   276.8230 eV,   20.3459 Ry                                         
                                                                                
   TITEL  = PAW_PBE S 06Sep2000                                                 
   LULTRA =        F    use ultrasoft PP ?                                      
   IUNSCR =        1    unscreen: 0-lin 1-nonlin 2-no                           
   RPACOR =    1.500    partial core radius                                     
   POMASS =   32.066; ZVAL   =    6.000    mass and valenz                      
   RCORE  =    1.900    outmost cutoff radius                                   
   RWIGS  =    2.200; RWIGS  =    1.164    wigner-seitz radius (au A)           
   ENMAX  =  258.689; ENMIN  =  194.016 eV                                      
   ICORE  =        2    local potential                                         
   LCOR   =        T    correct aug charges                                     
   LPAW   =        T    paw PP                                                  
   EAUG   =  335.092                                                            
   DEXC   =    0.000                                                            
   RMAX   =    1.942    core radius for proj-oper                               
   RAUG   =    1.300    factor for augmentation sphere                          
   RDEP   =    1.954    radius for radial grids                                 
   RDEPT  =    1.744    core radius for aug-charge                              
                                                                                
   Atomic configuration                                                         
    6 entries                                                                   
     n  l   j            E        occ.                                          
     1  0  0.50     -2405.8406   2.0000                                         
     2  0  0.50      -211.7007   2.0000                                         
     2  1  1.50      -156.4958   6.0000                                         
     3  0  0.50       -17.2562   2.0000                                         
     3  1  0.50        -7.0085   4.0000                                         
     3  2  1.50        -6.8029   0.0000                                         
   Description                                                                  
     l       E           TYP  RCUT    TYP  RCUT                                 
     0    -17.2561641     23  1.900                                             
     0    -15.8743224     23  1.900                                             
     1     -7.0085400     23  1.900                                             
     1     -2.7779785     23  1.900                                             
     2     -6.8029130     23  1.900                                             
  local pseudopotential read in
  partial core-charges read in
  partial kinetic energy density read in
  atomic valenz-charges read in
  non local Contribution for L=           0  read in
    real space projection operators read in
  non local Contribution for L=           0  read in
    real space projection operators read in
  non local Contribution for L=           1  read in
    real space projection operators read in
  non local Contribution for L=           1  read in
    real space projection operators read in
    PAW grid and wavefunctions read in
 
   number of l-projection  operators is LMAX  =           4
   number of lm-projection operators is LMMAX =           8
 
 POTCAR:     PAW_PBE Cu_pv 06Sep2000              
   SHA256 =  cb7b504e2ea725fe1f25c85a9ac77d4012ce94cd394135b722c4e25ec297f1cb Cu
   COPYR  = (c) Copyright 06Sep2000 Georg Kresse                                
   COPYR  = This file is part of the software VASP. Any use, copying, and all ot
   COPYR  = If you do not have a valid VASP license, you may not use, copy or di
   VRHFIN =Cu: d10 p1                                                           
   LEXCH  = PE                                                                  
   EATOM  =  4120.1201 eV,  302.8203 Ry                                         
                                                                                
   TITEL  = PAW_PBE Cu_pv 06Sep2000                                             
   LULTRA =        F    use ultrasoft PP ?                                      
   IUNSCR =        1    unscreen: 0-lin 1-nonlin 2-no                           
   RPACOR =    1.500    partial core radius                                     
   POMASS =   63.546; ZVAL   =   17.000    mass and valenz                      
   RCORE  =    2.000    outmost cutoff radius                                   
   RWIGS  =    2.000; RWIGS  =    1.058    wigner-seitz radius (au A)           
   ENMAX  =  368.648; ENMIN  =  276.486 eV                                      
   RCLOC  =    1.304    cutoff for local pot                                    
   LCOR   =        T    correct aug charges                                     
   LPAW   =        T    paw PP                                                  
   EAUG   =  758.233                                                            
   DEXC   =    0.000                                                            
   RMAX   =    2.046    core radius for proj-oper                               
   RAUG   =    1.300    factor for augmentation sphere                          
   RDEP   =    2.025    radius for radial grids                                 
   RDEPT  =    1.558    core radius for aug-charge                              
                                                                                
   Atomic configuration                                                         
    8 entries                                                                   
     n  l   j            E        occ.                                          
     1  0  0.50     -8850.2467   2.0000                                         
     2  0  0.50     -1062.3498   2.0000                                         
     2  1  1.50      -916.8226   6.0000                                         
     3  0  0.50      -114.6929   2.0000                                         
     3  1  1.50       -72.1325   6.0000                                         
     3  2  2.50        -5.0394  10.0000                                         
     4  0  0.50        -4.6097   1.0000                                         
     4  3  2.50        -1.3606   0.0000                                         
   Description                                                                  
     l       E           TYP  RCUT    TYP  RCUT                                 
     1    -72.1324777     23  1.700                                             
     1     -1.3605826     23  1.700                                             
     2     -5.0393776     23  2.000                                             
     2     -6.3999602     23  2.000                                             
     0     -4.6097062     23  1.800                                             
     0     14.1620818     23  1.800                                             
  local pseudopotential read in
  partial core-charges read in
  partial kinetic energy density read in
  atomic valenz-charges read in
  non local Contribution for L=           1  read in
    real space projection operators read in
  non local Contribution for L=           1  read in
    real space projection operators read in
  non local Contribution for L=           2  read in
    real space projection operators read in
  non local Contribution for L=           2  read in
    real space projection operators read in
  non local Contribution for L=           0  read in
    real space projection operators read in
  non local Contribution for L=           0  read in
    real space projection operators read in
    PAW grid and wavefunctions read in
 
   number of l-projection  operators is LMAX  =           6
   number of lm-projection operators is LMMAX =          18
 
 POTCAR:     PAW_PBE Fe_pv 02Aug2007              
   SHA256 =  5d22e414b1f82158bf2c7ecb8b97b28fd0923e48cadc1c3bf74d524558f5dd32 Fe
   COPYR  = (c) Copyright 02Aug2007 Georg Kresse                                
   COPYR  = This file is part of the software VASP. Any use, copying, and all ot
   COPYR  = If you do not have a valid VASP license, you may not use, copy or di
   VRHFIN =Fe:  3pd7s1                                                          
   LEXCH  = PE                                                                  
   EATOM  =  2457.4239 eV,  180.6156 Ry                                         
                                                                                
   TITEL  = PAW_PBE Fe_pv 02Aug2007                                             
   LULTRA =        F    use ultrasoft PP ?                                      
   IUNSCR =        1    unscreen: 0-lin 1-nonlin 2-no                           
   RPACOR =    1.750    partial core radius                                     
   POMASS =   55.847; ZVAL   =   14.000    mass and valenz                      
   RCORE  =    2.200    outmost cutoff radius                                   
   RWIGS  =    2.200; RWIGS  =    1.164    wigner-seitz radius (au A)           
   ENMAX  =  293.238; ENMIN  =  219.928 eV                                      
   ICORE  =        3    local potential                                         
   LCOR   =        T    correct aug charges                                     
   LPAW   =        T    paw PP                                                  
   EAUG   =  578.342                                                            
   DEXC   =    0.000                                                            
   RMAX   =    2.249    core radius for proj-oper                               
   RAUG   =    1.300    factor for augmentation sphere                          
   RDEP   =    2.296    radius for radial grids                                 
   RDEPT  =    1.766    core radius for aug-charge                              
                                                                                
   Atomic configuration                                                         
    8 entries                                                                   
     n  l   j            E        occ.                                          
     1  0  0.50     -6993.8440   2.0000                                         
     2  0  0.50      -814.6047   2.0000                                         
     2  1  1.50      -693.3689   6.0000                                         
     3  0  0.50       -89.4732   2.0000                                         
     3  1  1.50       -55.6373   6.0000                                         
     3  2  2.50        -3.8151   7.0000                                         
     4  0  0.50        -4.2551   1.0000                                         
     4  3  2.50        -1.3606   0.0000                                         
   Description                                                                  
     l       E           TYP  RCUT    TYP  RCUT                                 
     1    -55.6372668     23  2.000                                             
     1     -5.4423304     23  2.000                                             
     2     -3.8151096     23  2.200                                             
     2     -5.1756922     23  2.200                                             
     0     -4.2550951     23  2.200                                             
     0     27.2116520     23  2.200                                             
     3     -1.3605826     23  2.200                                             
  local pseudopotential read in
  partial core-charges read in
  partial kinetic energy density read in
  atomic valenz-charges read in
  non local Contribution for L=           1  read in
    real space projection operators read in
  non local Contribution for L=           1  read in
    real space projection operators read in
  non local Contribution for L=           2  read in
    real space projection operators read in
  non local Contribution for L=           2  read in
    real space projection operators read in
  non local Contribution for L=           0  read in
    real space projection operators read in
  non local Contribution for L=           0  read in
    real space projection operators read in
    PAW grid and wavefunctions read in
 
   number of l-projection  operators is LMAX  =           6
   number of lm-projection operators is LMMAX =          18
 

 ----------------------------------------------------------------------------- 
|                                                                             |
|  ADVICE TO THIS USER RUNNING 'VASP/VAMP'   (HEAR YOUR MASTER'S VOICE ...):  |
|                                                                             |
|      You have a (more or less) 'large supercell' and for larger cells       |
|      it might be more efficient to use real space projection opertators     |
|      So try LREAL= Auto  in the INCAR   file.                               |
|      Mind:          For very  accurate calculation you might also keep the  |
|      reciprocal projection scheme          (i.e. LREAL=.FALSE.)             |
|                                                                             |
 ----------------------------------------------------------------------------- 


 ----------------------------------------------------------------------------- 
|                                                                             |
|  ADVICE TO THIS USER RUNNING 'VASP/VAMP'   (HEAR YOUR MASTER'S VOICE ...):  |
|                                                                             |
|      You enforced a specific xc-type in the INCAR file,                     |
|      a different type was found on the POTCAR file                          |
|          I HOPE YOU KNOW, WHAT YOU ARE  DOING                               |
|                                                                             |
 ----------------------------------------------------------------------------- 

  PAW_PBE S 06Sep2000                   :
 energy of atom  1       EATOM= -276.8230
 kinetic energy error for atom=    0.0007 (will be added to EATOM!!)
   PAW_PBE Cu_pv 06Sep2000              :
 energy of atom  2       EATOM=-4120.1201
 kinetic energy error for atom=    0.0094 (will be added to EATOM!!)
   PAW_PBE Fe_pv 02Aug2007              :
 energy of atom  3       EATOM=-2457.4239
 kinetic energy error for atom=    0.0025 (will be added to EATOM!!)
 
 
 POSCAR: Fe16 Cu16 S32                           
  positions in direct lattice
  No initial velocities read in
 exchange correlation table for  LEXCH =       14
   RHO(1)=    0.500       N(1)  =     2000
   RHO(2)=  100.500       N(2)  =     4000
 


--------------------------------------------------------------------------------------------------------


 ion  position               nearest neighbor table
   1  0.127  0.118  0.126-  41 2.25  61 2.26  37 2.28  49 2.30
   2  0.627  0.118  0.126-  42 2.25  62 2.26  38 2.28  50 2.30
   3  0.127  0.618  0.126-  43 2.25  63 2.26  39 2.28  51 2.30
   4  0.627  0.618  0.126-  44 2.25  64 2.26  40 2.28  52 2.30
   5  0.373  0.368  0.124-  39 2.25  52 2.26  41 2.28  62 2.30
   6  0.873  0.368  0.124-  40 2.25  51 2.26  42 2.28  61 2.30
   7  0.373  0.868  0.124-  37 2.25  50 2.26  43 2.28  64 2.30
   8  0.873  0.868  0.124-  38 2.25  49 2.26  44 2.28  63 2.30
   9  0.125  0.370  0.875-  51 2.27  55 2.27  41 2.27  45 2.27
  10  0.625  0.370  0.875-  52 2.27  56 2.27  42 2.27  46 2.27
  11  0.125  0.870  0.875-  49 2.27  53 2.27  43 2.27  47 2.27
  12  0.625  0.870  0.875-  50 2.27  54 2.27  44 2.27  48 2.27
  13  0.375  0.121  0.875-  41 2.26  46 2.26  50 2.29  53 2.29
  14  0.875  0.121  0.875-  42 2.26  45 2.26  49 2.29  54 2.29
  15  0.375  0.621  0.875-  43 2.26  48 2.26  52 2.29  55 2.29
  16  0.875  0.621  0.875-  44 2.26  47 2.26  51 2.29  56 2.29
  17  0.123  0.118  0.624-  45 2.25  57 2.26  33 2.28  53 2.30
  18  0.623  0.118  0.624-  46 2.25  58 2.26  34 2.28  54 2.30
  19  0.123  0.618  0.624-  47 2.25  59 2.26  35 2.28  55 2.30
  20  0.623  0.618  0.624-  48 2.25  60 2.26  36 2.28  56 2.30
  21  0.377  0.368  0.626-  36 2.25  55 2.26  46 2.28  57 2.30
  22  0.877  0.368  0.626-  35 2.25  56 2.26  45 2.28  58 2.30
  23  0.377  0.868  0.626-  34 2.25  53 2.26  48 2.28  59 2.30
  24  0.877  0.868  0.626-  33 2.25  54 2.26  47 2.28  60 2.30
  25  0.375  0.120  0.375-  57 2.27  62 2.27  34 2.27  37 2.27
  26  0.875  0.120  0.375-  58 2.27  61 2.27  33 2.27  38 2.27
  27  0.375  0.620  0.375-  59 2.27  64 2.27  36 2.27  39 2.27
  28  0.875  0.620  0.375-  60 2.27  63 2.27  35 2.27  40 2.27
  29  0.125  0.371  0.375-  35 2.26  39 2.26  57 2.29  61 2.29
  30  0.625  0.371  0.375-  36 2.26  40 2.26  58 2.29  62 2.29
  31  0.125  0.871  0.375-  33 2.26  37 2.26  59 2.29  63 2.29
  32  0.625  0.871  0.375-  34 2.26  38 2.26  60 2.29  64 2.29
  33  0.997  0.006  0.500-  24 2.25  31 2.26  26 2.27  17 2.28
  34  0.497  0.006  0.500-  23 2.25  32 2.26  25 2.27  18 2.28
  35  0.997  0.506  0.500-  22 2.25  29 2.26  28 2.27  19 2.28
  36  0.497  0.506  0.500-  21 2.25  30 2.26  27 2.27  20 2.28
  37  0.253  0.006  0.250-   7 2.25  31 2.26  25 2.27   1 2.28
  38  0.753  0.006  0.250-   8 2.25  32 2.26  26 2.27   2 2.28
  39  0.253  0.506  0.250-   5 2.25  29 2.26  27 2.27   3 2.28
  40  0.753  0.506  0.250-   6 2.25  30 2.26  28 2.27   4 2.28
  41  0.247  0.256  0.000-   1 2.25  13 2.26   9 2.27   5 2.28
  42  0.747  0.256  0.000-   2 2.25  14 2.26  10 2.27   6 2.28
  43  0.247  0.756  0.000-   3 2.25  15 2.26  11 2.27   7 2.28
  44  0.747  0.756  0.000-   4 2.25  16 2.26  12 2.27   8 2.28
  45  0.003  0.256  0.750-  17 2.25  14 2.26   9 2.27  22 2.28
  46  0.503  0.256  0.750-  18 2.25  13 2.26  10 2.27  21 2.28
  47  0.003  0.756  0.750-  19 2.25  16 2.26  11 2.27  24 2.28
  48  0.503  0.756  0.750-  20 2.25  15 2.26  12 2.27  23 2.28
  49  0.998  0.006  0.001-   8 2.26  11 2.27  14 2.29   1 2.30
  50  0.498  0.006  0.001-   7 2.26  12 2.27  13 2.29   2 2.30
  51  0.998  0.506  0.001-   6 2.26   9 2.27  16 2.29   3 2.30
  52  0.498  0.506  0.001-   5 2.26  10 2.27  15 2.29   4 2.30
  53  0.252  0.006  0.749-  23 2.26  11 2.27  13 2.29  17 2.30
  54  0.752  0.006  0.749-  24 2.26  12 2.27  14 2.29  18 2.30
  55  0.252  0.506  0.749-  21 2.26   9 2.27  15 2.29  19 2.30
  56  0.752  0.506  0.749-  22 2.26  10 2.27  16 2.29  20 2.30
  57  0.248  0.256  0.501-  17 2.26  25 2.27  29 2.29  21 2.30
  58  0.748  0.256  0.501-  18 2.26  26 2.27  30 2.29  22 2.30
  59  0.248  0.756  0.501-  19 2.26  27 2.27  31 2.29  23 2.30
  60  0.748  0.756  0.501-  20 2.26  28 2.27  32 2.29  24 2.30
  61  0.002  0.256  0.249-   1 2.26  26 2.27  29 2.29   6 2.30
  62  0.502  0.256  0.249-   2 2.26  25 2.27  30 2.29   5 2.30
  63  0.002  0.756  0.249-   3 2.26  28 2.27  31 2.29   8 2.30
  64  0.502  0.756  0.249-   4 2.26  27 2.27  32 2.29   7 2.30
 
  LATTYP: Found a simple monoclinic cell.
 ALAT       =    15.5945642482
 B/A-ratio  =     0.6753591080
 C/A-ratio  =     1.5608651982
 COS(beta)  =    -0.9581111635
  
  Lattice vectors:
  
 A1 = ( -11.0764170000,   0.0000000000, -10.9774050000)
 A2 = (   0.0000000000, -10.5319310000,   0.0000000000)
 A3 = (  11.6573960000,   0.0000000000,  21.3679670000)


Analysis of symmetry for initial positions (statically):
=====================================================================
 Subroutine PRICEL returns following result:
 
  LATTYP: Found a base centered monoclinic cell.
 ALAT       =    11.1234306086
 B/A-ratio  =     0.4734119972
 C/A-ratio  =     0.9355739387
 COS(beta)  =    -0.7979931079
  
  Lattice vectors:
  
 A1 = (  -2.3333700000,  -2.6329827500,   5.0485702500)
 A2 = (  -2.3333700000,   2.6329827500,   5.0485702500)
 A3 = (  -0.5809790000,   0.0000000000, -10.3905620000)
 
   8 primitive cells build up your supercell.
 

 Routine SETGRP: Setting up the symmetry group for a 
 simple monoclinic supercell.


 Subroutine GETGRP returns: Found  2 space group operations
 (whereof  1 operations were pure point group operations)
 out of a pool of  4 trial point group operations.


The static configuration has the point symmetry C_1 .
 The point group associated with its full space group is C_2 .


Analysis of symmetry for dynamics (positions and initial velocities):
=====================================================================
 Subroutine PRICEL returns following result:
 
  LATTYP: Found a base centered monoclinic cell.
 ALAT       =    11.1234306086
 B/A-ratio  =     0.4734119972
 C/A-ratio  =     0.9355739387
 COS(beta)  =    -0.7979931079
  
  Lattice vectors:
  
 A1 = (  -2.3333700000,  -2.6329827500,   5.0485702500)
 A2 = (  -2.3333700000,   2.6329827500,   5.0485702500)
 A3 = (  -0.5809790000,   0.0000000000, -10.3905620000)
 
   8 primitive cells build up your supercell.
 

 Routine SETGRP: Setting up the symmetry group for a 
 simple monoclinic supercell.


 Subroutine GETGRP returns: Found  2 space group operations
 (whereof  1 operations were pure point group operations)
 out of a pool of  4 trial point group operations.


The dynamic configuration has the point symmetry C_1 .
 The point group associated with its full space group is C_2 .


Analysis of structural, dynamic, and magnetic symmetry:
=====================================================================
 Subroutine PRICEL returns following result:
 
  LATTYP: Found a base centered monoclinic cell.
 ALAT       =    11.1234306086
 B/A-ratio  =     0.4734119972
 C/A-ratio  =     0.9355739387
 COS(beta)  =    -0.7979931079
  
  Lattice vectors:
  
 A1 = (  -2.3333700000,  -2.6329827500,   5.0485702500)
 A2 = (  -2.3333700000,   2.6329827500,   5.0485702500)
 A3 = (  -0.5809790000,   0.0000000000, -10.3905620000)
 
   8 primitive cells build up your supercell.
 

 Routine SETGRP: Setting up the symmetry group for a 
 simple monoclinic supercell.


 Subroutine GETGRP returns: Found  2 space group operations
 (whereof  1 operations were pure point group operations)
 out of a pool of  4 trial point group operations.


The magnetic configuration has the point symmetry C_1 .
 The point group associated with its full space group is C_2 .


 Subroutine INISYM returns: Found  2 space group operations
 (whereof  1 operations are pure point group operations),
 and found     8 'primitive' translations

 
 
 KPOINTS: Automatic mesh                          

Automatic generation of k-mesh.
Space group operators:
 irot       det(A)        alpha          n_x          n_y          n_z        tau_x        tau_y        tau_z
    1     1.000000     0.000000     1.000000     0.000000     0.000000     0.000000     0.000000     0.000000
    2     1.000000   180.000000     0.000000     1.000000     0.000000    -0.250000     0.000000    -0.250000
 
 Subroutine IBZKPT returns following result:
 ===========================================
 
 Found      8 irreducible k-points:
 
 Following reciprocal coordinates:
            Coordinates               Weight
  0.000000  0.000000  0.000000      1.000000
  0.500000  0.000000 -0.000000      1.000000
  0.000000  0.500000  0.000000      1.000000
  0.500000  0.500000 -0.000000      1.000000
 -0.000000  0.000000  0.500000      1.000000
  0.500000  0.000000  0.500000      1.000000
 -0.000000  0.500000  0.500000      1.000000
  0.500000  0.500000  0.500000      1.000000
 
 Following cartesian coordinates:
            Coordinates               Weight
  0.000000  0.000000  0.000000      1.000000
  0.047789  0.000000 -0.002672      1.000000
  0.000000  0.047475  0.000000      1.000000
  0.047789  0.047475 -0.002672      1.000000
 -0.002699  0.000000  0.048272      1.000000
  0.045090  0.000000  0.045599      1.000000
 -0.002699  0.047475  0.048272      1.000000
  0.045090  0.047475  0.045599      1.000000
 
 TETIRR: Found     24 inequivalent tetrahedra from       48
 
 Subroutine IBZKPT_HF returns following result:
 ==============================================
 
 Found      8 k-points in 1st BZ
 the following      8 k-points will be used (e.g. in the exchange kernel)
 Following reciprocal coordinates:   # in IRBZ
  0.000000  0.000000  0.000000    0.12500000   1 t-inv F
  0.500000  0.000000 -0.000000    0.12500000   2 t-inv F
  0.000000  0.500000  0.000000    0.12500000   3 t-inv F
  0.500000  0.500000 -0.000000    0.12500000   4 t-inv F
 -0.000000  0.000000  0.500000    0.12500000   5 t-inv F
  0.500000  0.000000  0.500000    0.12500000   6 t-inv F
 -0.000000  0.500000  0.500000    0.12500000   7 t-inv F
  0.500000  0.500000  0.500000    0.12500000   8 t-inv F


--------------------------------------------------------------------------------------------------------




 Dimension of arrays:
   k-points           NKPTS =      8   k-points in BZ     NKDIM =      8   number of bands    NBANDS=    512
   number of dos      NEDOS =    301   number of ions     NIONS =     64
   non local maximal  LDIM  =      6   non local SUM 2l+1 LMDIM =     18
   total plane-waves  NPLWV = 829440
   max r-space proj   IRMAX =      1   max aug-charges    IRDMAX=  23020
   dimension x,y,z NGX =    96 NGY =   96 NGZ =   90
   dimension x,y,z NGXF=   192 NGYF=  192 NGZF=  180
   support grid    NGXF=   192 NGYF=  192 NGZF=  180
   ions per type =              32  16  16
   NGX,Y,Z   is equivalent  to a cutoff of  15.18, 15.15, 14.38 a.u.
   NGXF,Y,Z  is equivalent  to a cutoff of  30.37, 30.31, 28.75 a.u.

 SYSTEM =  CuFeS2                                  
 POSCAR =  Fe16 Cu16 S32                           

 Startparameter for this run:
   NWRITE =      2    write-flag & timer
   PREC   = accura    normal or accurate (medium, high low for compatibility)
   ISTART =      0    job   : 0-new  1-cont  2-samecut
   ICHARG =      1    charge: 1-file 2-atom 10-const
   ISPIN  =      2    spin polarized calculation?
   LNONCOLLINEAR =      F non collinear calculations
   LSORBIT =      F    spin-orbit coupling
   INIWAV =      1    electr: 0-lowe 1-rand  2-diag
   LASPH  =      F    aspherical Exc in radial PAW
   METAGGA=      F    non-selfconsistent MetaGGA calc.

 Electronic Relaxation 1
   ENCUT  =  700.0 eV  51.45 Ry    7.17 a.u.  22.68 22.72 22.45*2*pi/ulx,y,z
   ENINI  =  700.0     initial cutoff
   ENAUG  =  758.2 eV  augmentation charge cutoff
   NELM   =    500;   NELMIN=  2; NELMDL= -5     # of ELM steps 
   EDIFF  = 0.1E-07   stopping-criterion for ELM
   LREAL  =      F    real-space projection
   NLSPLINE    = F    spline interpolate recip. space projectors
   LCOMPAT=      F    compatible to vasp.4.4
   GGA_COMPAT  = T    GGA compatible to vasp.4.4-vasp.4.6
   LMAXPAW     = -100 max onsite density
   LMAXMIX     =    4 max onsite mixed and CHGCAR
   VOSKOWN=      0    Vosko Wilk Nusair interpolation
   ROPT   =    0.00000   0.00000   0.00000
 Ionic relaxation
   EDIFFG = -.1E-04   stopping-criterion for IOM
   NSW    =      0    number of steps for IOM
   NBLOCK =      1;   KBLOCK =      1    inner block; outer block 
   IBRION =     -1    ionic relax: 0-MD 1-quasi-New 2-CG
   NFREE  =      0    steps in history (QN), initial steepest desc. (CG)
   ISIF   =      2    stress and relaxation
   IWAVPR =     10    prediction:  0-non 1-charg 2-wave 3-comb
   ISYM   =      2    0-nonsym 1-usesym 2-fastsym
   LCORR  =      T    Harris-Foulkes like correction to forces

   POTIM  = 0.5000    time-step for ionic-motion
   TEIN   =    0.0    initial temperature
   TEBEG  =    0.0;   TEEND  =   0.0 temperature during run
   SMASS  =  -3.00    Nose mass-parameter (am)
   estimated Nose-frequenzy (Omega)   =  0.10E-29 period in steps =****** mass=  -0.253E-26a.u.
   SCALEE = 1.0000    scale energy and forces
   NPACO  =    256;   APACO  = 16.0  distance and # of slots for P.C.
   PSTRESS=    0.0 pullay stress

  Mass of Ions in am
   POMASS =  32.07 63.55 55.85
  Ionic Valenz
   ZVAL   =   6.00 17.00 14.00
  Atomic Wigner-Seitz radii
   RWIGS  =  -1.00 -1.00 -1.00
  virtual crystal weights 
   VCA    =   1.00  1.00  1.00
   NELECT =     688.0000    total number of electrons
   NUPDOWN=      -1.0000    fix difference up-down

 DOS related values:
   EMIN   =  10.00;   EMAX   =-10.00  energy-range for DOS
   EFERMI =   0.00
   ISMEAR =    -5;   SIGMA  =   0.03  broadening in eV -4-tet -1-fermi 0-gaus

 Electronic relaxation 2 (details)
   IALGO  =     38    algorithm
   LDIAG  =      T    sub-space diagonalisation (order eigenvalues)
   LSUBROT=      F    optimize rotation matrix (better conditioning)
   TURBO    =      0    0=normal 1=particle mesh
   IRESTART =      0    0=no restart 2=restart with 2 vectors
   NREBOOT  =      0    no. of reboots
   NMIN     =      0    reboot dimension
   EREF     =   0.00    reference energy to select bands
   IMIX   =      4    mixing-type and parameters
     AMIX     =   0.40;   BMIX     =  1.00
     AMIX_MAG =   1.60;   BMIX_MAG =  1.00
     AMIN     =   0.10
     WC   =   100.;   INIMIX=   1;  MIXPRE=   1;  MAXMIX= -45

 Intra band minimization:
   WEIMIN = 0.0000     energy-eigenvalue tresh-hold
   EBREAK =  0.49E-11  absolut break condition
   DEPER  =   0.30     relativ break condition  

   TIME   =   0.40     timestep for ELM

  volume/ion in A,a.u.               =      17.89       120.73
  Fermi-wavevector in a.u.,A,eV,Ry     =   1.381471  2.610601 25.966200  1.908462
  Thomas-Fermi vector in A             =   2.506252
 
 Write flags
   LWAVE        =      T    write WAVECAR
   LDOWNSAMPLE  =      F    k-point downsampling of WAVECAR
   LCHARG       =      T    write CHGCAR
   LVTOT        =      F    write LOCPOT, total local potential
   LVHAR        =      F    write LOCPOT, Hartree potential only
   LELF         =      F    write electronic localiz. function (ELF)
   LORBIT       =     11    0 simple, 1 ext, 2 COOP (PROOUT), +10 PAW based schemes


 Dipole corrections
   LMONO  =      F    monopole corrections only (constant potential shift)
   LDIPOL =      F    correct potential (dipole corrections)
   IDIPOL =      0    1-x, 2-y, 3-z, 4-all directions 
   EPSILON=  1.0000000 bulk dielectric constant

 LDA+U is selected, type is set to LDAUTYPE =  2
   angular momentum for each species LDAUL =     2    2    2
   U (eV)           for each species LDAUU =   0.0  0.1  4.7
   J (eV)           for each species LDAUJ =   0.0  0.0  0.0
 Exchange correlation treatment:
   GGA     =    PS    GGA type
   LEXCH   =    14    internal setting for exchange type
   VOSKOWN=      0    Vosko Wilk Nusair interpolation
   LHFCALC =     F    Hartree Fock is set to
   LHFONE  =     F    Hartree Fock one center treatment
   AEXX    =    0.0000 exact exchange contribution

 Linear response parameters
   LEPSILON=     F    determine dielectric tensor
   LRPA    =     F    only Hartree local field effects (RPA)
   LNABLA  =     F    use nabla operator in PAW spheres
   LVEL    =     F    velocity operator in full k-point grid
   LINTERFAST=   F  fast interpolation
   KINTER  =     0    interpolate to denser k-point grid
   CSHIFT  =0.1000    complex shift for real part using Kramers Kronig
   OMEGAMAX=  -1.0    maximum frequency
   DEG_THRESHOLD= 0.2000000E-02 threshold for treating states as degnerate
   RTIME   =   -0.100 relaxation time in fs
  (WPLASMAI=    0.000 imaginary part of plasma frequency in eV, 0.658/RTIME)
   DFIELD  = 0.0000000 0.0000000 0.0000000 field for delta impulse in time
 
 Orbital magnetization related:
   ORBITALMAG=     F  switch on orbital magnetization
   LCHIMAG   =     F  perturbation theory with respect to B field
   DQ        =  0.001000  dq finite difference perturbation B field
   LLRAUG    =     F  two centre corrections for induced B field

 PEAD related settings:
   LPEAD      =     T    switch on PEAD
   IPEAD      =     4    finite difference order for dpsi/dk
   LCALCPOL   =     T    calculate macroscopic polarization
   LCALCEPS   =     F    calculate dielectric tensor
   EFIELD_PEAD=    0.0000    0.0000    0.0000
   SKIP_EDOTP =     F
   LRPA       =     F
   SKIP_SCF   =     F


--------------------------------------------------------------------------------------------------------


 Static calculation
 charge density and potential will be updated during run
 spin polarized calculation
 Variant of blocked Davidson
 Davidson routine will perform the subspace rotation
 perform sub-space diagonalisation
    after iterative eigenvector-optimisation
 modified Broyden-mixing scheme, WC =      100.0
 initial mixing is a Kerker type mixing with AMIX =  0.4000 and BMIX =      1.0000
 Hartree-type preconditioning will be used
 using additional bands          168
 reciprocal scheme for non local part
 use partial core corrections
 calculate Harris-corrections to forces 
   (improved forces if not selfconsistent)
 use gradient corrections 
 use of overlap-Matrix (Vanderbilt PP)
 Fermi weights with tetrahedron method with Bloechl corrections


--------------------------------------------------------------------------------------------------------


  energy-cutoff  :      700.00
  volume of cell :     1144.95
      direct lattice vectors                 reciprocal lattice vectors
    10.495438000  0.000000000  0.586843000     0.095578307  0.000000000 -0.005344176
     0.000000000 10.531931000  0.000000000     0.000000000  0.094949350  0.000000000
     0.580979000  0.000000000 10.390562000    -0.005398116  0.000000000  0.096543016

  length of vectors
    10.511831597 10.531931000 10.406791786     0.095727598  0.094949350  0.096693814


 
 k-points in units of 2pi/SCALE and weight: Automatic mesh                          
   0.00000000  0.00000000  0.00000000       0.125
   0.04778915  0.00000000 -0.00267209       0.125
   0.00000000  0.04747467  0.00000000       0.125
   0.04778915  0.04747467 -0.00267209       0.125
  -0.00269906  0.00000000  0.04827151       0.125
   0.04509010  0.00000000  0.04559942       0.125
  -0.00269906  0.04747467  0.04827151       0.125
   0.04509010  0.04747467  0.04559942       0.125
 
 k-points in reciprocal lattice and weights: Automatic mesh                          
   0.00000000  0.00000000  0.00000000       0.125
   0.50000000  0.00000000 -0.00000000       0.125
   0.00000000  0.50000000  0.00000000       0.125
   0.50000000  0.50000000 -0.00000000       0.125
  -0.00000000  0.00000000  0.50000000       0.125
   0.50000000  0.00000000  0.50000000       0.125
  -0.00000000  0.50000000  0.50000000       0.125
   0.50000000  0.50000000  0.50000000       0.125
 
 position of ions in fractional coordinates (direct lattice) 
   0.12653000  0.11775300  0.12605500
   0.62653000  0.11775300  0.12605500
   0.12653000  0.61775300  0.12605500
   0.62653000  0.61775300  0.12605500
   0.37347000  0.36775300  0.12394500
   0.87347000  0.36775300  0.12394500
   0.37347000  0.86775300  0.12394500
   0.87347000  0.86775300  0.12394500
   0.12500000  0.36993600  0.87500000
   0.62500000  0.36993600  0.87500000
   0.12500000  0.86993600  0.87500000
   0.62500000  0.86993600  0.87500000
   0.37500000  0.12128600  0.87500000
   0.87500000  0.12128600  0.87500000
   0.37500000  0.62128600  0.87500000
   0.87500000  0.62128600  0.87500000
   0.12347000  0.11775300  0.62394500
   0.62347000  0.11775300  0.62394500
   0.12347000  0.61775300  0.62394500
   0.62347000  0.61775300  0.62394500
   0.37653000  0.36775300  0.62605500
   0.87653000  0.36775300  0.62605500
   0.37653000  0.86775300  0.62605500
   0.87653000  0.86775300  0.62605500
   0.37500000  0.11993600  0.37500000
   0.87500000  0.11993600  0.37500000
   0.37500000  0.61993600  0.37500000
   0.87500000  0.61993600  0.37500000
   0.12500000  0.37128600  0.37500000
   0.62500000  0.37128600  0.37500000
   0.12500000  0.87128600  0.37500000
   0.62500000  0.87128600  0.37500000
   0.99720700  0.00587900  0.50002600
   0.49720700  0.00587900  0.50002600
   0.99720700  0.50587900  0.50002600
   0.49720700  0.50587900  0.50002600
   0.25279300  0.00587900  0.24997400
   0.75279300  0.00587900  0.24997400
   0.25279300  0.50587900  0.24997400
   0.75279300  0.50587900  0.24997400
   0.24720700  0.25587900  0.00002600
   0.74720700  0.25587900  0.00002600
   0.24720700  0.75587900  0.00002600
   0.74720700  0.75587900  0.00002600
   0.00279300  0.25587900  0.74997400
   0.50279300  0.25587900  0.74997400
   0.00279300  0.75587900  0.74997400
   0.50279300  0.75587900  0.74997400
   0.99832500  0.00575700  0.00103200
   0.49832500  0.00575700  0.00103200
   0.99832500  0.50575700  0.00103200
   0.49832500  0.50575700  0.00103200
   0.25167500  0.00575700  0.74896800
   0.75167500  0.00575700  0.74896800
   0.25167500  0.50575700  0.74896800
   0.75167500  0.50575700  0.74896800
   0.24832500  0.25575700  0.50103200
   0.74832500  0.25575700  0.50103200
   0.24832500  0.75575700  0.50103200
   0.74832500  0.75575700  0.50103200
   0.00167500  0.25575700  0.24896800
   0.50167500  0.25575700  0.24896800
   0.00167500  0.75575700  0.24896800
   0.50167500  0.75575700  0.24896800
 
 position of ions in cartesian coordinates  (Angst):
   1.40122308  1.24016647  1.38403554
   6.64894208  1.24016647  1.67745704
   1.40122308  6.50613197  1.38403554
   6.64894208  6.50613197  1.67745704
   3.99174067  3.87314922  1.50702646
   9.23945967  3.87314922  1.80044796
   3.99174067  9.13911472  1.50702646
   9.23945967  9.13911472  1.80044796
   1.82028638  3.89614043  9.16509712
   7.06800538  3.89614043  9.45851862
   1.82028638  9.16210593  9.16509712
   7.06800538  9.16210593  9.45851862
   4.44414588  1.27737578  9.31180787
   9.69186487  1.27737578  9.60522937
   4.44414588  6.54334128  9.31180787
   9.69186487  6.54334128  9.60522937
   1.65837067  1.24016647  6.55559671
   6.90608967  1.24016647  6.84901821
   1.65837067  6.50613197  6.55559671
   6.90608967  6.50613197  6.84901821
   4.31557208  3.87314922  6.72602729
   9.56329108  3.87314922  7.01944879
   4.31557208  9.13911472  6.72602729
   9.56329108  9.13911472  7.01944879
   4.15365637  1.26315768  4.11652687
   9.40137537  1.26315768  4.40994837
   4.15365637  6.52912318  4.11652687
   9.40137537  6.52912318  4.40994837
   1.52979687  3.91035853  3.96981612
   6.77751587  3.91035853  4.26323762
   1.52979687  9.17632403  3.96981612
   6.77751587  9.17632403  4.26323762
  10.75662885  0.06191722  5.78075510
   5.50890985  0.06191722  5.48733360
  10.75662885  5.32788272  5.78075510
   5.50890985  5.32788272  5.48733360
   2.79840290  0.06191722  2.74572015
   8.04612190  0.06191722  3.03914165
   2.79840290  5.32788272  2.74572015
   8.04612190  5.32788272  3.03914165
   2.59456085  2.69489997  0.14534185
   7.84227985  2.69489997  0.43876335
   2.59456085  7.96086547  0.14534185
   7.84227985  7.96086547  0.43876335
   0.46503290  2.69489997  7.79429040
   5.71275190  2.69489997  8.08771190
   0.46503290  7.96086547  7.79429040
   5.71275190  7.96086547  8.08771190
  10.47845771  0.06063233  0.59658310
   5.23073871  0.06063233  0.30316160
  10.47845771  5.32659783  0.59658310
   5.23073871  5.32659783  0.30316160
   3.07657404  0.06063233  7.92989215
   8.32429304  0.06063233  8.22331365
   3.07657404  5.32659783  7.92989215
   8.32429304  5.32659783  8.22331365
   2.89736871  2.69361508  5.35173185
   8.14508771  2.69361508  5.64515335
   2.89736871  7.95958058  5.35173185
   8.14508771  7.95958058  5.64515335
   0.16222504  2.69361508  2.58790040
   5.40994404  2.69361508  2.88132190
   0.16222504  7.95958058  2.58790040
   5.40994404  7.95958058  2.88132190
 


--------------------------------------------------------------------------------------------------------


 k-point  1 :   0.0000 0.0000 0.0000  plane waves:   48163
 k-point  2 :   0.5000 0.0000-0.0000  plane waves:   48176
 k-point  3 :   0.0000 0.5000 0.0000  plane waves:   48170
 k-point  4 :   0.5000 0.5000-0.0000  plane waves:   48140
 k-point  5 :  -0.0000 0.0000 0.5000  plane waves:   48138
 k-point  6 :   0.5000 0.0000 0.5000  plane waves:   48168
 k-point  7 :  -0.0000 0.5000 0.5000  plane waves:   48160
 k-point  8 :   0.5000 0.5000 0.5000  plane waves:   48104

 maximum and minimum number of plane-waves per node :     48176    48104

 maximum number of plane-waves:     48176
 maximum index in each direction: 
   IXMAX=   22   IYMAX=   22   IZMAX=   22
   IXMIN=  -23   IYMIN=  -23   IZMIN=  -22


 serial   3D FFT for wavefunctions
 parallel 3D FFT for charge:
    minimum data exchange during FFTs selected (reduces bandwidth)


 total amount of memory used by VASP MPI-rank0   348353. kBytes
=======================================================================

   base      :      30000. kBytes
   nonl-proj :     216760. kBytes
   fftplans  :       4588. kBytes
   grid      :      69719. kBytes
   one-center:       1990. kBytes
   wavefun   :      25296. kBytes
 
     INWAV:  cpu time    0.0001: real time    0.0003
 Broyden mixing: mesh for mixing (old mesh)
   NGX = 45   NGY = 45   NGZ = 45
  (NGX  =192   NGY  =192   NGZ  =180)
  gives a total of  91125 points

 initial charge density was supplied:
 number of electron     687.9999838 magnetization      -0.0000000
 keeping initial charge density in first step


--------------------------------------------------------------------------------------------------------


 Maximum index for augmentation-charges          895 (set IRDMAX)


--------------------------------------------------------------------------------------------------------


 First call to EWALD:  gamma=   0.169
 Maximum number of real-space cells 3x 3x 3
 Maximum number of reciprocal cells 3x 3x 3

    FEWALD:  cpu time    0.0026: real time    0.0030


--------------------------------------- Iteration      1(   1)  ---------------------------------------


    POTLOK:  cpu time    0.3588: real time    0.4045
    SETDIJ:  cpu time    0.0143: real time    0.0145
     EDDAV:  cpu time   84.0362: real time   84.7492
 BZINTS: Fermi energy: 14.950252;688.000000 electrons
         Band energy:***********;  BLOECHL correction: -0.006999
       DOS:  cpu time    0.0400: real time    0.0402
    --------------------------------------------
      LOOP:  cpu time   84.4494: real time   85.2084

 eigenvalue-minimisations  : 16384
 total energy-change (2. order) : 0.6045754E+04  (-0.5160823E+05)
 number of electron     687.9999838 magnetization      -0.0000000
 augmentation part      687.9999838 magnetization      -0.0000000

 Free energy of the ion-electron system (eV)
  ---------------------------------------------------
  alpha Z        PSCENC =      2367.91398573
  Ewald energy   TEWEN  =    -62621.15272097
  -Hartree energ DENC   =    -42794.76755794
  -exchange      EXHF   =         0.00000000
  -V(xc)+E(xc)   XCENC  =      3284.05567952
  PAW double counting   =    112095.85910443  -115786.62766005
  entropy T*S    EENTRO =         0.00000000
  eigenvalues    EBANDS =     -4519.59172740
  atomic energy  EATOM  =    114020.06510763
  Solvation  Ediel_sol  =         0.00000000
  ---------------------------------------------------
  free energy    TOTEN  =      6045.75421096 eV

  energy without entropy =     6045.75421096  energy(sigma->0) =     6045.75421096


--------------------------------------------------------------------------------------------------------




--------------------------------------- Iteration      1(   2)  ---------------------------------------


     EDDAV:  cpu time   97.6335: real time   98.3777
 BZINTS: Fermi energy:  5.587767;688.000000 electrons
         Band energy:***********;  BLOECHL correction:  0.000000
       DOS:  cpu time    0.0069: real time    0.0070
    --------------------------------------------
      LOOP:  cpu time   97.6404: real time   98.3846

 eigenvalue-minimisations  : 17920
 total energy-change (2. order) :-0.6125020E+04  (-0.6015453E+04)
 number of electron     687.9999838 magnetization      -0.0000000
 augmentation part      687.9999838 magnetization      -0.0000000

 Free energy of the ion-electron system (eV)
  ---------------------------------------------------
  alpha Z        PSCENC =      2367.91398573
  Ewald energy   TEWEN  =    -62621.15272097
  -Hartree energ DENC   =    -42794.76755794
  -exchange      EXHF   =         0.00000000
  -V(xc)+E(xc)   XCENC  =      3284.05567952
  PAW double counting   =    112095.85910443  -115786.62766005
  entropy T*S    EENTRO =         0.00000000
  eigenvalues    EBANDS =    -10644.61201236
  atomic energy  EATOM  =    114020.06510763
  Solvation  Ediel_sol  =         0.00000000
  ---------------------------------------------------
  free energy    TOTEN  =       -79.26607400 eV

  energy without entropy =      -79.26607400  energy(sigma->0) =      -79.26607400


--------------------------------------------------------------------------------------------------------




--------------------------------------- Iteration      1(   3)  ---------------------------------------


     EDDAV:  cpu time  158.2955: real time  159.4022
 BZINTS: Fermi energy:  4.946406;688.000000 electrons
         Band energy:***********;  BLOECHL correction:  0.000000
       DOS:  cpu time    0.0058: real time    0.0058
    --------------------------------------------
      LOOP:  cpu time  158.3013: real time  159.4080

 eigenvalue-minimisations  : 23040
 total energy-change (2. order) :-0.2476533E+03  (-0.2467552E+03)
 number of electron     687.9999838 magnetization      -0.0000000
 augmentation part      687.9999838 magnetization      -0.0000000

 Free energy of the ion-electron system (eV)
  ---------------------------------------------------
  alpha Z        PSCENC =      2367.91398573
  Ewald energy   TEWEN  =    -62621.15272097
  -Hartree energ DENC   =    -42794.76755794
  -exchange      EXHF   =         0.00000000
  -V(xc)+E(xc)   XCENC  =      3284.05567952
  PAW double counting   =    112095.85910443  -115786.62766005
  entropy T*S    EENTRO =         0.00000000
  eigenvalues    EBANDS =    -10892.26530463
  atomic energy  EATOM  =    114020.06510763
  Solvation  Ediel_sol  =         0.00000000
  ---------------------------------------------------
  free energy    TOTEN  =      -326.91936628 eV

  energy without entropy =     -326.91936628  energy(sigma->0) =     -326.91936628


--------------------------------------------------------------------------------------------------------




--------------------------------------- Iteration      1(   4)  ---------------------------------------


     EDDAV:  cpu time  126.3050: real time  127.2150
 BZINTS: Fermi energy:  5.014323;688.000000 electrons
         Band energy:***********;  BLOECHL correction:  0.000000
       DOS:  cpu time    0.0067: real time    0.0067
    --------------------------------------------
      LOOP:  cpu time  126.3117: real time  127.2217

 eigenvalue-minimisations  : 19456
 total energy-change (2. order) :-0.3380692E+01  (-0.3380539E+01)
 number of electron     687.9999838 magnetization      -0.0000000
 augmentation part      687.9999838 magnetization      -0.0000000

 Free energy of the ion-electron system (eV)
  ---------------------------------------------------
  alpha Z        PSCENC =      2367.91398573
  Ewald energy   TEWEN  =    -62621.15272097
  -Hartree energ DENC   =    -42794.76755794
  -exchange      EXHF   =         0.00000000
  -V(xc)+E(xc)   XCENC  =      3284.05567952
  PAW double counting   =    112095.85910443  -115786.62766005
  entropy T*S    EENTRO =         0.00000000
  eigenvalues    EBANDS =    -10895.64599675
  atomic energy  EATOM  =    114020.06510763
  Solvation  Ediel_sol  =         0.00000000
  ---------------------------------------------------
  free energy    TOTEN  =      -330.30005840 eV

  energy without entropy =     -330.30005840  energy(sigma->0) =     -330.30005840


--------------------------------------------------------------------------------------------------------




--------------------------------------- Iteration      1(   5)  ---------------------------------------


     EDDAV:  cpu time  149.9099: real time  150.9529
 BZINTS: Fermi energy:  5.004577;688.000000 electrons
         Band energy:***********;  BLOECHL correction:  0.000000
       DOS:  cpu time    0.0057: real time    0.0057
    CHARGE:  cpu time    1.3995: real time    1.4078
    MIXING:  cpu time    0.0073: real time    0.0073
    --------------------------------------------
      LOOP:  cpu time  151.3223: real time  152.3738

 eigenvalue-minimisations  : 22016
 total energy-change (2. order) :-0.1025377E+00  (-0.1025372E+00)
 number of electron     688.0000039 magnetization      -0.0000000
 augmentation part      283.2031404 magnetization      -0.0000000

 Broyden mixing:
  rms(total) = 0.14781E+01    rms(broyden)= 0.14779E+01
  rms(prec ) = 0.16569E+01
  weight for this iteration     100.00

 Free energy of the ion-electron system (eV)
  ---------------------------------------------------
  alpha Z        PSCENC =      2367.91398573
  Ewald energy   TEWEN  =    -62621.15272097
  -Hartree energ DENC   =    -42794.76755794
  -exchange      EXHF   =         0.00000000
  -V(xc)+E(xc)   XCENC  =      3284.05567952
  PAW double counting   =    112095.85910443  -115786.62766005
  entropy T*S    EENTRO =         0.00000000
  eigenvalues    EBANDS =    -10895.74853441
  atomic energy  EATOM  =    114020.06510763
  Solvation  Ediel_sol  =         0.00000000
  ---------------------------------------------------
  free energy    TOTEN  =      -330.40259606 eV

  energy without entropy =     -330.40259606  energy(sigma->0) =     -330.40259606


--------------------------------------------------------------------------------------------------------




--------------------------------------- Iteration      1(   6)  ---------------------------------------


    POTLOK:  cpu time    0.1209: real time    0.1225
    SETDIJ:  cpu time    0.0128: real time    0.0129
     EDDAV:  cpu time  200.4434: real time  201.8005
 BZINTS: Fermi energy:  5.038332;688.000000 electrons
         Band energy:***********;  BLOECHL correction:  0.000000
       DOS:  cpu time    0.0059: real time    0.0059
    CHARGE:  cpu time    1.3990: real time    1.4074
    MIXING:  cpu time    0.0026: real time    0.0974
    --------------------------------------------
      LOOP:  cpu time  201.9847: real time  203.4466

 eigenvalue-minimisations  : 27648
 total energy-change (2. order) : 0.2702520E+01  (-0.3462644E+00)
 number of electron     688.0000038 magnetization      -0.0000000
 augmentation part      281.6076374 magnetization      -0.0000000

 Broyden mixing:
  rms(total) = 0.82405E+00    rms(broyden)= 0.82404E+00
  rms(prec ) = 0.92107E+00
  weight for this iteration     100.00

 eigenvalues of (default mixing * dielectric matrix)
  average eigenvalue GAMMA=   0.8211
  0.8211

 Free energy of the ion-electron system (eV)
  ---------------------------------------------------
  alpha Z        PSCENC =      2367.91398573
  Ewald energy   TEWEN  =    -62621.15272097
  -Hartree energ DENC   =    -42893.66198649
  -exchange      EXHF   =         0.00000000
  -V(xc)+E(xc)   XCENC  =      3287.21368050
  PAW double counting   =    112513.89874261  -116216.15197764
  entropy T*S    EENTRO =         0.00000000
  eigenvalues    EBANDS =    -10785.82490733
  atomic energy  EATOM  =    114020.06510763
  Solvation  Ediel_sol  =         0.00000000
  ---------------------------------------------------
  free energy    TOTEN  =      -327.70007595 eV

  energy without entropy =     -327.70007595  energy(sigma->0) =     -327.70007595


--------------------------------------------------------------------------------------------------------




--------------------------------------- Iteration      1(   7)  ---------------------------------------


    POTLOK:  cpu time    0.1198: real time    0.1239
    SETDIJ:  cpu time    0.0127: real time    0.0128
     EDDAV:  cpu time  126.6946: real time  127.6013
 BZINTS: Fermi energy:  4.915541;688.000000 electrons
         Band energy:***********;  BLOECHL correction:  0.000000
       DOS:  cpu time    0.0065: real time    0.0065
    CHARGE:  cpu time    1.3981: real time    1.4064
    MIXING:  cpu time    0.0015: real time    0.0036
    --------------------------------------------
      LOOP:  cpu time  128.2333: real time  129.1544

 eigenvalue-minimisations  : 20480
 total energy-change (2. order) : 0.6522161E+00  (-0.3324456E+00)
 number of electron     688.0000038 magnetization      -0.0000000
 augmentation part      282.6785024 magnetization      -0.0000000

 Broyden mixing:
  rms(total) = 0.59182E+00    rms(broyden)= 0.59181E+00
  rms(prec ) = 0.67334E+00
  weight for this iteration     100.00

 eigenvalues of (default mixing * dielectric matrix)
  average eigenvalue GAMMA=   1.0534
  1.5322  0.5746

 Free energy of the ion-electron system (eV)
  ---------------------------------------------------
  alpha Z        PSCENC =      2367.91398573
  Ewald energy   TEWEN  =    -62621.15272097
  -Hartree energ DENC   =    -42817.26928439
  -exchange      EXHF   =         0.00000000
  -V(xc)+E(xc)   XCENC  =      3285.24321210
  PAW double counting   =    112319.92380839  -116007.47397207
  entropy T*S    EENTRO =         0.00000000
  eigenvalues    EBANDS =    -10874.29799632
  atomic energy  EATOM  =    114020.06510763
  Solvation  Ediel_sol  =         0.00000000
  ---------------------------------------------------
  free energy    TOTEN  =      -327.04785989 eV

  energy without entropy =     -327.04785989  energy(sigma->0) =     -327.04785989


--------------------------------------------------------------------------------------------------------




--------------------------------------- Iteration      1(   8)  ---------------------------------------


    POTLOK:  cpu time    0.1209: real time    0.1228
    SETDIJ:  cpu time    0.0129: real time    0.0129
     EDDAV:  cpu time  166.0178: real time  167.1560
 BZINTS: Fermi energy:  5.042551;688.000000 electrons
         Band energy:***********;  BLOECHL correction:  0.000000
       DOS:  cpu time    0.0057: real time    0.0057
    CHARGE:  cpu time    1.3942: real time    1.4036
    MIXING:  cpu time    0.0013: real time    0.0013
    --------------------------------------------
      LOOP:  cpu time  167.5528: real time  168.7024

 eigenvalue-minimisations  : 23552
 total energy-change (2. order) : 0.1529712E+00  (-0.3989967E+00)
 number of electron     688.0000038 magnetization      -0.0000000
 augmentation part      282.5610381 magnetization      -0.0000000

 Broyden mixing:
  rms(total) = 0.57910E+00    rms(broyden)= 0.57909E+00
  rms(prec ) = 0.67752E+00
  weight for this iteration     100.00

 eigenvalues of (default mixing * dielectric matrix)
  average eigenvalue GAMMA=   0.8390
  1.6641  0.5478  0.3051

 Free energy of the ion-electron system (eV)
  ---------------------------------------------------
  alpha Z        PSCENC =      2367.91398573
  Ewald energy   TEWEN  =    -62621.15272097
  -Hartree energ DENC   =    -42857.34060382
  -exchange      EXHF   =         0.00000000
  -V(xc)+E(xc)   XCENC  =      3287.03044972
  PAW double counting   =    112281.94327973  -115973.16337352
  entropy T*S    EENTRO =         0.00000000
  eigenvalues    EBANDS =    -10832.19101323
  atomic energy  EATOM  =    114020.06510763
  Solvation  Ediel_sol  =         0.00000000
  ---------------------------------------------------
  free energy    TOTEN  =      -326.89488873 eV

  energy without entropy =     -326.89488873  energy(sigma->0) =     -326.89488873


--------------------------------------------------------------------------------------------------------




--------------------------------------- Iteration      1(   9)  ---------------------------------------


    POTLOK:  cpu time    0.1188: real time    0.1234
    SETDIJ:  cpu time    0.0130: real time    0.0130
     EDDAV:  cpu time  129.4677: real time  130.3952
 BZINTS: Fermi energy:  5.023423;688.000000 electrons
         Band energy:***********;  BLOECHL correction:  0.000000
       DOS:  cpu time    0.0057: real time    0.0058
    CHARGE:  cpu time    1.3954: real time    1.4052
    MIXING:  cpu time    0.0015: real time    0.0025
    --------------------------------------------
      LOOP:  cpu time  131.0020: real time  131.9450

 eigenvalue-minimisations  : 20480
 total energy-change (2. order) : 0.1204222E+00  (-0.1119956E+00)
 number of electron     688.0000038 magnetization      -0.0000000
 augmentation part      282.3392083 magnetization      -0.0000000

 Broyden mixing:
  rms(total) = 0.15819E+00    rms(broyden)= 0.15818E+00
  rms(prec ) = 0.16469E+00
  weight for this iteration     100.00

 eigenvalues of (default mixing * dielectric matrix)
  average eigenvalue GAMMA=   0.8717
  1.9442  0.7115  0.4780  0.3529

 Free energy of the ion-electron system (eV)
  ---------------------------------------------------
  alpha Z        PSCENC =      2367.91398573
  Ewald energy   TEWEN  =    -62621.15272097
  -Hartree energ DENC   =    -42856.88624041
  -exchange      EXHF   =         0.00000000
  -V(xc)+E(xc)   XCENC  =      3286.53710410
  PAW double counting   =    112271.24783066  -115963.74331258
  entropy T*S    EENTRO =         0.00000000
  eigenvalues    EBANDS =    -10830.75622070
  atomic energy  EATOM  =    114020.06510763
  Solvation  Ediel_sol  =         0.00000000
  ---------------------------------------------------
  free energy    TOTEN  =      -326.77446653 eV

  energy without entropy =     -326.77446653  energy(sigma->0) =     -326.77446653


--------------------------------------------------------------------------------------------------------




--------------------------------------- Iteration      1(  10)  ---------------------------------------


    POTLOK:  cpu time    0.1212: real time    0.1222
    SETDIJ:  cpu time    0.0128: real time    0.0128
     EDDAV:  cpu time  165.1143: real time  166.2477
 BZINTS: Fermi energy:  5.024321;688.000000 electrons
         Band energy:***********;  BLOECHL correction:  0.000000
       DOS:  cpu time    0.0058: real time    0.0058
    CHARGE:  cpu time    1.3997: real time    1.4080
    MIXING:  cpu time    0.0014: real time    0.0014
    --------------------------------------------
      LOOP:  cpu time  166.6552: real time  167.7980

 eigenvalue-minimisations  : 23552
 total energy-change (2. order) :-0.2411894E-02  (-0.5152508E-02)
 number of electron     688.0000038 magnetization       0.0000000
 augmentation part      282.1967358 magnetization       0.0000000

 Broyden mixing:
  rms(total) = 0.92171E-01    rms(broyden)= 0.92170E-01
  rms(prec ) = 0.95369E-01
  weight for this iteration     100.00

 eigenvalues of (default mixing * dielectric matrix)
  average eigenvalue GAMMA=   0.9617
  1.7792  1.4996  0.6328  0.5628  0.3339

 Free energy of the ion-electron system (eV)
  ---------------------------------------------------
  alpha Z        PSCENC =      2367.91398573
  Ewald energy   TEWEN  =    -62621.15272097
  -Hartree energ DENC   =    -42862.73071620
  -exchange      EXHF   =         0.00000000
  -V(xc)+E(xc)   XCENC  =      3286.61436424
  PAW double counting   =    112261.01906170  -115953.83335357
  entropy T*S    EENTRO =         0.00000000
  eigenvalues    EBANDS =    -10824.67260699
  atomic energy  EATOM  =    114020.06510763
  Solvation  Ediel_sol  =         0.00000000
  ---------------------------------------------------
  free energy    TOTEN  =      -326.77687842 eV

  energy without entropy =     -326.77687842  energy(sigma->0) =     -326.77687842


--------------------------------------------------------------------------------------------------------




--------------------------------------- Iteration      1(  11)  ---------------------------------------


    POTLOK:  cpu time    0.1169: real time    0.1215
    SETDIJ:  cpu time    0.0128: real time    0.0129
     EDDAV:  cpu time  125.7319: real time  126.6287
 BZINTS: Fermi energy:  5.022381;688.000000 electrons
         Band energy:***********;  BLOECHL correction:  0.000000
       DOS:  cpu time    0.0058: real time    0.0058
    CHARGE:  cpu time    1.4162: real time    1.4246
    MIXING:  cpu time    0.0015: real time    0.0015
    --------------------------------------------
      LOOP:  cpu time  127.2852: real time  128.1950

 eigenvalue-minimisations  : 19968
 total energy-change (2. order) :-0.2460207E-02  (-0.1685300E-02)
 number of electron     688.0000038 magnetization      -0.0000000
 augmentation part      282.2649719 magnetization      -0.0000000

 Broyden mixing:
  rms(total) = 0.43202E-01    rms(broyden)= 0.43202E-01
  rms(prec ) = 0.44081E-01
  weight for this iteration     100.00

 eigenvalues of (default mixing * dielectric matrix)
  average eigenvalue GAMMA=   1.1057
  2.1187  2.1187  0.7960  0.6352  0.6352  0.3302

 Free energy of the ion-electron system (eV)
  ---------------------------------------------------
  alpha Z        PSCENC =      2367.91398573
  Ewald energy   TEWEN  =    -62621.15272097
  -Hartree energ DENC   =    -42858.33023732
  -exchange      EXHF   =         0.00000000
  -V(xc)+E(xc)   XCENC  =      3286.46914283
  PAW double counting   =    112225.38165091  -115917.12140879
  entropy T*S    EENTRO =         0.00000000
  eigenvalues    EBANDS =    -10830.00485865
  atomic energy  EATOM  =    114020.06510763
  Solvation  Ediel_sol  =         0.00000000
  ---------------------------------------------------
  free energy    TOTEN  =      -326.77933863 eV

  energy without entropy =     -326.77933863  energy(sigma->0) =     -326.77933863


--------------------------------------------------------------------------------------------------------




--------------------------------------- Iteration      1(  12)  ---------------------------------------


    POTLOK:  cpu time    0.1193: real time    0.1222
    SETDIJ:  cpu time    0.0129: real time    0.0130
     EDDAV:  cpu time  156.0338: real time  157.0979
 BZINTS: Fermi energy:  5.023390;688.000000 electrons
         Band energy:***********;  BLOECHL correction:  0.000000
       DOS:  cpu time    0.0058: real time    0.0058
    CHARGE:  cpu time    1.3918: real time    1.4012
    MIXING:  cpu time    0.0016: real time    0.0016
    --------------------------------------------
      LOOP:  cpu time  157.5652: real time  158.6417

 eigenvalue-minimisations  : 22272
 total energy-change (2. order) :-0.1992786E-02  (-0.6424095E-03)
 number of electron     688.0000038 magnetization       0.0000000
 augmentation part      282.2422324 magnetization       0.0000000

 Broyden mixing:
  rms(total) = 0.16451E-01    rms(broyden)= 0.16450E-01
  rms(prec ) = 0.17449E-01
  weight for this iteration     100.00

 eigenvalues of (default mixing * dielectric matrix)
  average eigenvalue GAMMA=   1.0906
  2.2050  2.2050  0.9430  0.3304  0.7139  0.6185  0.6185

 Free energy of the ion-electron system (eV)
  ---------------------------------------------------
  alpha Z        PSCENC =      2367.91398573
  Ewald energy   TEWEN  =    -62621.15272097
  -Hartree energ DENC   =    -42859.96972004
  -exchange      EXHF   =         0.00000000
  -V(xc)+E(xc)   XCENC  =      3286.52162159
  PAW double counting   =    112194.96984235  -115886.93541768
  entropy T*S    EENTRO =         0.00000000
  eigenvalues    EBANDS =    -10828.19403002
  atomic energy  EATOM  =    114020.06510763
  Solvation  Ediel_sol  =         0.00000000
  ---------------------------------------------------
  free energy    TOTEN  =      -326.78133142 eV

  energy without entropy =     -326.78133142  energy(sigma->0) =     -326.78133142


--------------------------------------------------------------------------------------------------------




--------------------------------------- Iteration      1(  13)  ---------------------------------------


    POTLOK:  cpu time    0.1212: real time    0.1219
    SETDIJ:  cpu time    0.0126: real time    0.0127
     EDDAV:  cpu time  122.7840: real time  123.6575
 BZINTS: Fermi energy:  5.023082;688.000000 electrons
         Band energy:***********;  BLOECHL correction:  0.000000
       DOS:  cpu time    0.0058: real time    0.0058
    CHARGE:  cpu time    1.3961: real time    1.4043
    MIXING:  cpu time    0.0016: real time    0.0016
    --------------------------------------------
      LOOP:  cpu time  124.3213: real time  125.2037

 eigenvalue-minimisations  : 19456
 total energy-change (2. order) :-0.2900059E-03  (-0.8214010E-04)
 number of electron     688.0000038 magnetization       0.0000000
 augmentation part      282.2582357 magnetization       0.0000000

 Broyden mixing:
  rms(total) = 0.10704E-01    rms(broyden)= 0.10704E-01
  rms(prec ) = 0.11291E-01
  weight for this iteration     100.00

 eigenvalues of (default mixing * dielectric matrix)
  average eigenvalue GAMMA=   1.1044
  2.2422  2.2422  1.0811  1.0811  0.3304  0.5933  0.5933  0.6719

 Free energy of the ion-electron system (eV)
  ---------------------------------------------------
  alpha Z        PSCENC =      2367.91398573
  Ewald energy   TEWEN  =    -62621.15272097
  -Hartree energ DENC   =    -42859.10579064
  -exchange      EXHF   =         0.00000000
  -V(xc)+E(xc)   XCENC  =      3286.50564644
  PAW double counting   =    112184.47400514  -115876.33578795
  entropy T*S    EENTRO =         0.00000000
  eigenvalues    EBANDS =    -10829.14606682
  atomic energy  EATOM  =    114020.06510763
  Solvation  Ediel_sol  =         0.00000000
  ---------------------------------------------------
  free energy    TOTEN  =      -326.78162142 eV

  energy without entropy =     -326.78162142  energy(sigma->0) =     -326.78162142


--------------------------------------------------------------------------------------------------------




--------------------------------------- Iteration      1(  14)  ---------------------------------------


    POTLOK:  cpu time    0.1213: real time    0.1223
    SETDIJ:  cpu time    0.0127: real time    0.0128
     EDDAV:  cpu time  168.0665: real time  169.1911
 BZINTS: Fermi energy:  5.023152;688.000000 electrons
         Band energy:***********;  BLOECHL correction:  0.000000
       DOS:  cpu time    0.0058: real time    0.0058
    CHARGE:  cpu time    1.3961: real time    1.4046
    MIXING:  cpu time    0.0017: real time    0.0017
    --------------------------------------------
      LOOP:  cpu time  169.6041: real time  170.7382

 eigenvalue-minimisations  : 23296
 total energy-change (2. order) :-0.1906780E-03  (-0.5389807E-04)
 number of electron     688.0000038 magnetization       0.0000000
 augmentation part      282.2502240 magnetization       0.0000000

 Broyden mixing:
  rms(total) = 0.55357E-02    rms(broyden)= 0.55355E-02
  rms(prec ) = 0.58552E-02
  weight for this iteration     100.00

 eigenvalues of (default mixing * dielectric matrix)
  average eigenvalue GAMMA=   1.1784
  2.4081  2.4081  1.4320  1.4320  0.3304  0.5971  0.5971  0.7004  0.7004

 Free energy of the ion-electron system (eV)
  ---------------------------------------------------
  alpha Z        PSCENC =      2367.91398573
  Ewald energy   TEWEN  =    -62621.15272097
  -Hartree energ DENC   =    -42859.49867112
  -exchange      EXHF   =         0.00000000
  -V(xc)+E(xc)   XCENC  =      3286.51294389
  PAW double counting   =    112178.64024199  -115870.61508100
  entropy T*S    EENTRO =         0.00000000
  eigenvalues    EBANDS =    -10828.64761826
  atomic energy  EATOM  =    114020.06510763
  Solvation  Ediel_sol  =         0.00000000
  ---------------------------------------------------
  free energy    TOTEN  =      -326.78181210 eV

  energy without entropy =     -326.78181210  energy(sigma->0) =     -326.78181210


--------------------------------------------------------------------------------------------------------




--------------------------------------- Iteration      1(  15)  ---------------------------------------


    POTLOK:  cpu time    0.1217: real time    0.1226
    SETDIJ:  cpu time    0.0128: real time    0.0129
     EDDAV:  cpu time  113.9579: real time  114.7788
 BZINTS: Fermi energy:  5.023118;688.000000 electrons
         Band energy:***********;  BLOECHL correction:  0.000000
       DOS:  cpu time    0.0060: real time    0.0060
    CHARGE:  cpu time    1.3957: real time    1.4046
    MIXING:  cpu time    0.0016: real time    0.0016
    --------------------------------------------
      LOOP:  cpu time  115.4957: real time  116.3264

 eigenvalue-minimisations  : 18688
 total energy-change (2. order) :-0.1044265E-03  (-0.3034248E-04)
 number of electron     688.0000038 magnetization       0.0000000
 augmentation part      282.2503287 magnetization       0.0000000

 Broyden mixing:
  rms(total) = 0.28959E-02    rms(broyden)= 0.28956E-02
  rms(prec ) = 0.32327E-02
  weight for this iteration     100.00

 eigenvalues of (default mixing * dielectric matrix)
  average eigenvalue GAMMA=   1.1883
  2.7124  2.3020  1.8257  1.0906  1.0906  0.3304  0.5941  0.5941  0.7123  0.6312

 Free energy of the ion-electron system (eV)
  ---------------------------------------------------
  alpha Z        PSCENC =      2367.91398573
  Ewald energy   TEWEN  =    -62621.15272097
  -Hartree energ DENC   =    -42859.45738865
  -exchange      EXHF   =         0.00000000
  -V(xc)+E(xc)   XCENC  =      3286.51487226
  PAW double counting   =    112175.19824110  -115867.19438218
  entropy T*S    EENTRO =         0.00000000
  eigenvalues    EBANDS =    -10828.66963144
  atomic energy  EATOM  =    114020.06510763
  Solvation  Ediel_sol  =         0.00000000
  ---------------------------------------------------
  free energy    TOTEN  =      -326.78191653 eV

  energy without entropy =     -326.78191653  energy(sigma->0) =     -326.78191653


--------------------------------------------------------------------------------------------------------




--------------------------------------- Iteration      1(  16)  ---------------------------------------


    POTLOK:  cpu time    0.1178: real time    0.1223
    SETDIJ:  cpu time    0.0127: real time    0.0128
     EDDAV:  cpu time  162.4156: real time  163.4980
 BZINTS: Fermi energy:  5.023144;688.000000 electrons
         Band energy:***********;  BLOECHL correction:  0.000000
       DOS:  cpu time    0.0058: real time    0.0058
    CHARGE:  cpu time    1.3997: real time    1.4088
    MIXING:  cpu time    0.0020: real time    0.0027
    --------------------------------------------
      LOOP:  cpu time  163.9535: real time  165.0505

 eigenvalue-minimisations  : 22528
 total energy-change (2. order) :-0.2830317E-04  (-0.7963258E-05)
 number of electron     688.0000038 magnetization       0.0000000
 augmentation part      282.2530631 magnetization       0.0000000

 Broyden mixing:
  rms(total) = 0.18456E-02    rms(broyden)= 0.18454E-02
  rms(prec ) = 0.19496E-02
  weight for this iteration     100.00

 eigenvalues of (default mixing * dielectric matrix)
  average eigenvalue GAMMA=   1.2286
  2.8825  2.2662  2.0001  1.3071  1.3071  0.3304  0.8972  0.5934  0.5934  0.7126
  0.6247

 Free energy of the ion-electron system (eV)
  ---------------------------------------------------
  alpha Z        PSCENC =      2367.91398573
  Ewald energy   TEWEN  =    -62621.15272097
  -Hartree energ DENC   =    -42859.35993398
  -exchange      EXHF   =         0.00000000
  -V(xc)+E(xc)   XCENC  =      3286.51432645
  PAW double counting   =    112174.06624702  -115866.05148071
  entropy T*S    EENTRO =         0.00000000
  eigenvalues    EBANDS =    -10828.77747601
  atomic energy  EATOM  =    114020.06510763
  Solvation  Ediel_sol  =         0.00000000
  ---------------------------------------------------
  free energy    TOTEN  =      -326.78194483 eV

  energy without entropy =     -326.78194483  energy(sigma->0) =     -326.78194483


--------------------------------------------------------------------------------------------------------




--------------------------------------- Iteration      1(  17)  ---------------------------------------


    POTLOK:  cpu time    0.1203: real time    0.1213
    SETDIJ:  cpu time    0.0127: real time    0.0128
     EDDAV:  cpu time  121.8076: real time  122.6684
 BZINTS: Fermi energy:  5.023180;688.000000 electrons
         Band energy:***********;  BLOECHL correction:  0.000000
       DOS:  cpu time    0.0058: real time    0.0058
    CHARGE:  cpu time    1.4021: real time    1.4103
    MIXING:  cpu time    0.0026: real time    0.0027
    --------------------------------------------
      LOOP:  cpu time  123.3512: real time  124.2213

 eigenvalue-minimisations  : 19456
 total energy-change (2. order) :-0.1966929E-04  (-0.8233448E-05)
 number of electron     688.0000038 magnetization       0.0000000
 augmentation part      282.2532205 magnetization       0.0000000

 Broyden mixing:
  rms(total) = 0.11295E-02    rms(broyden)= 0.11293E-02
  rms(prec ) = 0.12489E-02
  weight for this iteration     100.00

 eigenvalues of (default mixing * dielectric matrix)
  average eigenvalue GAMMA=   1.3310
  3.7211  2.3212  2.3212  1.5597  1.5597  0.3304  0.9226  0.5959  0.5959  0.7518
  0.6541  0.6387

 Free energy of the ion-electron system (eV)
  ---------------------------------------------------
  alpha Z        PSCENC =      2367.91398573
  Ewald energy   TEWEN  =    -62621.15272097
  -Hartree energ DENC   =    -42859.36836082
  -exchange      EXHF   =         0.00000000
  -V(xc)+E(xc)   XCENC  =      3286.51432829
  PAW double counting   =    112174.46587476  -115866.45947727
  entropy T*S    EENTRO =         0.00000000
  eigenvalues    EBANDS =    -10828.76070185
  atomic energy  EATOM  =    114020.06510763
  Solvation  Ediel_sol  =         0.00000000
  ---------------------------------------------------
  free energy    TOTEN  =      -326.78196450 eV

  energy without entropy =     -326.78196450  energy(sigma->0) =     -326.78196450


--------------------------------------------------------------------------------------------------------




--------------------------------------- Iteration      1(  18)  ---------------------------------------


    POTLOK:  cpu time    0.1238: real time    0.1249
    SETDIJ:  cpu time    0.0127: real time    0.0128
     EDDAV:  cpu time  144.8015: real time  145.7961
 BZINTS: Fermi energy:  5.023157;688.000000 electrons
         Band energy:***********;  BLOECHL correction:  0.000000
       DOS:  cpu time    0.0058: real time    0.0059
    CHARGE:  cpu time    1.3965: real time    1.4060
    MIXING:  cpu time    0.0020: real time    0.0020
    --------------------------------------------
      LOOP:  cpu time  146.3423: real time  147.3478

 eigenvalue-minimisations  : 20992
 total energy-change (2. order) :-0.5511552E-05  (-0.3818155E-05)
 number of electron     688.0000038 magnetization       0.0000000
 augmentation part      282.2528203 magnetization       0.0000000

 Broyden mixing:
  rms(total) = 0.51325E-03    rms(broyden)= 0.51295E-03
  rms(prec ) = 0.53809E-03
  weight for this iteration     100.00

 eigenvalues of (default mixing * dielectric matrix)
  average eigenvalue GAMMA=   1.3410
  4.2386  2.3903  2.3903  1.6466  1.2644  1.0023  1.0023  0.3304  0.5957  0.5957
  0.7115  0.6324  0.6324

 Free energy of the ion-electron system (eV)
  ---------------------------------------------------
  alpha Z        PSCENC =      2367.91398573
  Ewald energy   TEWEN  =    -62621.15272097
  -Hartree energ DENC   =    -42859.35851881
  -exchange      EXHF   =         0.00000000
  -V(xc)+E(xc)   XCENC  =      3286.51383266
  PAW double counting   =    112175.08773201  -115867.07959852
  entropy T*S    EENTRO =         0.00000000
  eigenvalues    EBANDS =    -10828.77178974
  atomic energy  EATOM  =    114020.06510763
  Solvation  Ediel_sol  =         0.00000000
  ---------------------------------------------------
  free energy    TOTEN  =      -326.78197001 eV

  energy without entropy =     -326.78197001  energy(sigma->0) =     -326.78197001


--------------------------------------------------------------------------------------------------------




--------------------------------------- Iteration      1(  19)  ---------------------------------------


    POTLOK:  cpu time    0.1212: real time    0.1221
    SETDIJ:  cpu time    0.0127: real time    0.0127
     EDDAV:  cpu time  155.9310: real time  156.9910
 BZINTS: Fermi energy:  5.023146;688.000000 electrons
         Band energy:***********;  BLOECHL correction:  0.000000
       DOS:  cpu time    0.0058: real time    0.0059
    CHARGE:  cpu time    1.3946: real time    1.4028
    MIXING:  cpu time    0.0020: real time    0.0020
    --------------------------------------------
      LOOP:  cpu time  157.4673: real time  158.5365

 eigenvalue-minimisations  : 23040
 total energy-change (2. order) :-0.6326736E-06  (-0.3926269E-06)
 number of electron     688.0000038 magnetization       0.0000000
 augmentation part      282.2527292 magnetization       0.0000000

 Broyden mixing:
[...]
   -.401E+02 0.405E+02 -.257E+01   0.409E+02 -.408E+02 0.260E+01   -.795E+00 0.259E+00 -.330E-01   -.129E-04 0.433E-05 -.121E-06
   -.401E+02 0.405E+02 -.257E+01   0.409E+02 -.408E+02 0.260E+01   -.795E+00 0.259E+00 -.330E-01   -.129E-04 0.433E-05 -.123E-06
   -.401E+02 0.405E+02 -.257E+01   0.409E+02 -.408E+02 0.260E+01   -.795E+00 0.259E+00 -.330E-01   -.129E-04 0.434E-05 -.121E-06
   -.401E+02 0.405E+02 -.257E+01   0.409E+02 -.408E+02 0.260E+01   -.795E+00 0.259E+00 -.330E-01   -.129E-04 0.434E-05 -.123E-06
   0.401E+02 0.405E+02 0.257E+01   -.409E+02 -.408E+02 -.260E+01   0.795E+00 0.259E+00 0.330E-01   0.129E-04 0.434E-05 0.121E-06
   0.401E+02 0.405E+02 0.257E+01   -.409E+02 -.408E+02 -.260E+01   0.795E+00 0.259E+00 0.330E-01   0.129E-04 0.434E-05 0.121E-06
   0.401E+02 0.405E+02 0.257E+01   -.409E+02 -.408E+02 -.260E+01   0.795E+00 0.259E+00 0.330E-01   0.129E-04 0.434E-05 0.123E-06
   0.401E+02 0.405E+02 0.257E+01   -.409E+02 -.408E+02 -.260E+01   0.795E+00 0.259E+00 0.330E-01   0.129E-04 0.434E-05 0.123E-06
   -.217E-08 -.148E+02 -.393E-07   -.213E-13 0.155E+02 -.355E-13   0.323E-24 -.639E+00 -.620E-24   0.466E-09 -.983E-05 0.110E-08
   -.217E-08 -.148E+02 -.393E-07   -.338E-13 0.155E+02 -.169E-13   0.355E-25 -.639E+00 0.569E-24   -.489E-09 -.983E-05 -.110E-08
   -.217E-08 -.148E+02 -.394E-07   0.000E+00 0.155E+02 -.142E-13   -.326E-24 -.639E+00 0.827E-24   0.466E-09 -.982E-05 0.110E-08
   -.217E-08 -.148E+02 -.394E-07   -.284E-13 0.155E+02 0.178E-13   0.423E-24 -.639E+00 -.362E-24   -.489E-09 -.982E-05 -.110E-08
   -.335E-07 0.710E+02 -.215E-06   -.115E-12 -.721E+02 0.977E-14   -.126E-23 0.106E+01 -.517E-24   -.605E-08 0.221E-04 0.330E-09
   -.335E-07 0.710E+02 -.215E-06   -.853E-13 -.721E+02 0.711E-14   0.452E-25 0.106E+01 -.310E-24   0.607E-08 0.221E-04 -.331E-09
   -.335E-07 0.710E+02 -.215E-06   -.128E-12 -.721E+02 0.320E-13   -.646E-25 0.106E+01 -.114E-23   -.605E-08 0.221E-04 0.330E-09
   -.335E-07 0.710E+02 -.215E-06   -.142E-12 -.721E+02 0.284E-13   -.258E-25 0.106E+01 0.827E-24   0.607E-08 0.221E-04 -.331E-09
   0.608E+01 -.369E+02 0.459E+01   -.602E+01 0.354E+02 -.469E+01   -.537E-01 0.146E+01 0.931E-01   0.157E-05 0.207E-05 -.205E-05
   0.608E+01 -.369E+02 0.459E+01   -.602E+01 0.354E+02 -.469E+01   -.537E-01 0.146E+01 0.931E-01   0.159E-05 0.207E-05 -.205E-05
   0.608E+01 -.369E+02 0.459E+01   -.602E+01 0.354E+02 -.469E+01   -.537E-01 0.146E+01 0.931E-01   0.157E-05 0.209E-05 -.206E-05
   0.608E+01 -.369E+02 0.459E+01   -.602E+01 0.354E+02 -.469E+01   -.537E-01 0.146E+01 0.931E-01   0.159E-05 0.209E-05 -.206E-05
   -.608E+01 -.369E+02 -.459E+01   0.602E+01 0.354E+02 0.469E+01   0.537E-01 0.146E+01 -.931E-01   -.159E-05 0.207E-05 0.206E-05
   -.608E+01 -.369E+02 -.459E+01   0.602E+01 0.354E+02 0.469E+01   0.537E-01 0.146E+01 -.931E-01   -.157E-05 0.207E-05 0.205E-05
   -.608E+01 -.369E+02 -.459E+01   0.602E+01 0.354E+02 0.469E+01   0.537E-01 0.146E+01 -.931E-01   -.159E-05 0.209E-05 0.206E-05
   -.608E+01 -.369E+02 -.459E+01   0.602E+01 0.354E+02 0.469E+01   0.537E-01 0.146E+01 -.931E-01   -.157E-05 0.209E-05 0.206E-05
   0.608E+01 -.369E+02 0.459E+01   -.602E+01 0.354E+02 -.469E+01   -.537E-01 0.146E+01 0.931E-01   0.156E-05 0.206E-05 -.206E-05
   0.608E+01 -.369E+02 0.459E+01   -.602E+01 0.354E+02 -.469E+01   -.537E-01 0.146E+01 0.931E-01   0.160E-05 0.206E-05 -.205E-05
   0.608E+01 -.369E+02 0.459E+01   -.602E+01 0.354E+02 -.469E+01   -.537E-01 0.146E+01 0.931E-01   0.156E-05 0.209E-05 -.206E-05
   0.608E+01 -.369E+02 0.459E+01   -.602E+01 0.354E+02 -.469E+01   -.537E-01 0.146E+01 0.931E-01   0.160E-05 0.209E-05 -.205E-05
   -.608E+01 -.369E+02 -.459E+01   0.602E+01 0.354E+02 0.469E+01   0.537E-01 0.146E+01 -.931E-01   -.159E-05 0.206E-05 0.206E-05
   -.608E+01 -.369E+02 -.459E+01   0.602E+01 0.354E+02 0.469E+01   0.537E-01 0.146E+01 -.931E-01   -.157E-05 0.206E-05 0.205E-05
   -.608E+01 -.369E+02 -.459E+01   0.602E+01 0.354E+02 0.469E+01   0.537E-01 0.146E+01 -.931E-01   -.159E-05 0.209E-05 0.206E-05
   -.608E+01 -.369E+02 -.459E+01   0.602E+01 0.354E+02 0.469E+01   0.537E-01 0.146E+01 -.931E-01   -.157E-05 0.209E-05 0.205E-05
   -.103E+02 -.355E+02 0.608E+01   0.102E+02 0.337E+02 -.622E+01   0.170E+00 0.190E+01 0.122E+00   0.523E-05 -.546E-05 0.383E-05
   -.103E+02 -.355E+02 0.608E+01   0.102E+02 0.337E+02 -.622E+01   0.170E+00 0.190E+01 0.122E+00   0.525E-05 -.546E-05 0.383E-05
   -.103E+02 -.355E+02 0.608E+01   0.102E+02 0.337E+02 -.622E+01   0.170E+00 0.190E+01 0.122E+00   0.523E-05 -.543E-05 0.383E-05
   -.103E+02 -.355E+02 0.608E+01   0.102E+02 0.337E+02 -.622E+01   0.170E+00 0.190E+01 0.122E+00   0.525E-05 -.543E-05 0.383E-05
   0.103E+02 -.355E+02 -.608E+01   -.102E+02 0.337E+02 0.622E+01   -.170E+00 0.190E+01 -.122E+00   -.525E-05 -.546E-05 -.383E-05
   0.103E+02 -.355E+02 -.608E+01   -.102E+02 0.337E+02 0.622E+01   -.170E+00 0.190E+01 -.122E+00   -.523E-05 -.546E-05 -.383E-05
   0.103E+02 -.355E+02 -.608E+01   -.102E+02 0.337E+02 0.622E+01   -.170E+00 0.190E+01 -.122E+00   -.525E-05 -.543E-05 -.383E-05
   0.103E+02 -.355E+02 -.608E+01   -.102E+02 0.337E+02 0.622E+01   -.170E+00 0.190E+01 -.122E+00   -.523E-05 -.543E-05 -.383E-05
   -.103E+02 -.355E+02 0.608E+01   0.102E+02 0.337E+02 -.622E+01   0.170E+00 0.190E+01 0.122E+00   0.523E-05 -.545E-05 0.383E-05
   -.103E+02 -.355E+02 0.608E+01   0.102E+02 0.337E+02 -.622E+01   0.170E+00 0.190E+01 0.122E+00   0.525E-05 -.545E-05 0.382E-05
   -.103E+02 -.355E+02 0.608E+01   0.102E+02 0.337E+02 -.622E+01   0.170E+00 0.190E+01 0.122E+00   0.523E-05 -.544E-05 0.383E-05
   -.103E+02 -.355E+02 0.608E+01   0.102E+02 0.337E+02 -.622E+01   0.170E+00 0.190E+01 0.122E+00   0.525E-05 -.544E-05 0.383E-05
   0.103E+02 -.355E+02 -.608E+01   -.102E+02 0.337E+02 0.622E+01   -.170E+00 0.190E+01 -.122E+00   -.525E-05 -.545E-05 -.383E-05
   0.103E+02 -.355E+02 -.608E+01   -.102E+02 0.337E+02 0.622E+01   -.170E+00 0.190E+01 -.122E+00   -.523E-05 -.545E-05 -.383E-05
   0.103E+02 -.355E+02 -.608E+01   -.102E+02 0.337E+02 0.622E+01   -.170E+00 0.190E+01 -.122E+00   -.525E-05 -.544E-05 -.383E-05
   0.103E+02 -.355E+02 -.608E+01   -.102E+02 0.337E+02 0.622E+01   -.170E+00 0.190E+01 -.122E+00   -.523E-05 -.544E-05 -.383E-05
 -----------------------------------------------------------------------------------------------
   0.739E-05 -.612E+02 0.235E-03   0.330E-12 0.711E-12 0.185E-12   -.944E-15 0.612E+02 0.236E-15   0.613E-11 0.114E-03 0.148E-10
 
 
 POSITION                                       TOTAL-FORCE (eV/Angst)
 -----------------------------------------------------------------------------------
      1.40122      1.24017      1.38404         0.000148     -0.010844      0.002265
      6.64894      1.24017      1.67746         0.000148     -0.010844      0.002265
      1.40122      6.50613      1.38404         0.000148     -0.010844      0.002265
      6.64894      6.50613      1.67746         0.000148     -0.010844      0.002265
      3.99174      3.87315      1.50703        -0.000148     -0.010844     -0.002265
      9.23946      3.87315      1.80045        -0.000148     -0.010844     -0.002265
      3.99174      9.13911      1.50703        -0.000148     -0.010844     -0.002265
      9.23946      9.13911      1.80045        -0.000148     -0.010844     -0.002265
      1.82029      3.89614      9.16510         0.000000     -0.006844     -0.000000
      7.06801      3.89614      9.45852         0.000000     -0.006844     -0.000000
      1.82029      9.16211      9.16510         0.000000     -0.006844     -0.000000
      7.06801      9.16211      9.45852         0.000000     -0.006844     -0.000000
      4.44415      1.27738      9.31181         0.000000     -0.004074     -0.000000
      9.69186      1.27738      9.60523         0.000000     -0.004074     -0.000000
      4.44415      6.54334      9.31181         0.000000     -0.004074     -0.000000
      9.69186      6.54334      9.60523         0.000000     -0.004074     -0.000000
      1.65837      1.24017      6.55560        -0.000148     -0.010844     -0.002265
      6.90609      1.24017      6.84902        -0.000148     -0.010844     -0.002265
      1.65837      6.50613      6.55560        -0.000148     -0.010844     -0.002265
      6.90609      6.50613      6.84902        -0.000148     -0.010844     -0.002265
      4.31557      3.87315      6.72603         0.000148     -0.010844      0.002265
      9.56329      3.87315      7.01945         0.000148     -0.010844      0.002265
      4.31557      9.13911      6.72603         0.000148     -0.010844      0.002265
      9.56329      9.13911      7.01945         0.000148     -0.010844      0.002265
      4.15366      1.26316      4.11653         0.000000     -0.006844     -0.000000
      9.40138      1.26316      4.40995         0.000000     -0.006844     -0.000000
      4.15366      6.52912      4.11653         0.000000     -0.006844     -0.000000
      9.40138      6.52912      4.40995         0.000000     -0.006844     -0.000000
      1.52980      3.91036      3.96982         0.000000     -0.004074     -0.000000
      6.77752      3.91036      4.26324         0.000000     -0.004074     -0.000000
      1.52980      9.17632      3.96982         0.000000     -0.004074     -0.000000
      6.77752      9.17632      4.26324         0.000000     -0.004074     -0.000000
     10.75663      0.06192      5.78076         0.003183      0.007243     -0.006078
      5.50891      0.06192      5.48733         0.003183      0.007243     -0.006078
     10.75663      5.32788      5.78076         0.003183      0.007243     -0.006078
      5.50891      5.32788      5.48733         0.003183      0.007243     -0.006078
      2.79840      0.06192      2.74572        -0.003183      0.007243      0.006078
      8.04612      0.06192      3.03914        -0.003183      0.007243      0.006078
      2.79840      5.32788      2.74572        -0.003183      0.007243      0.006078
      8.04612      5.32788      3.03914        -0.003183      0.007243      0.006078
      2.59456      2.69490      0.14534         0.003183      0.007243     -0.006078
      7.84228      2.69490      0.43876         0.003183      0.007243     -0.006078
      2.59456      7.96087      0.14534         0.003183      0.007243     -0.006078
      7.84228      7.96087      0.43876         0.003183      0.007243     -0.006078
      0.46503      2.69490      7.79429        -0.003183      0.007243      0.006078
      5.71275      2.69490      8.08771        -0.003183      0.007243      0.006078
      0.46503      7.96087      7.79429        -0.003183      0.007243      0.006078
      5.71275      7.96087      8.08771        -0.003183      0.007243      0.006078
     10.47846      0.06063      0.59658         0.004848      0.009060     -0.013949
      5.23074      0.06063      0.30316         0.004848      0.009060     -0.013949
     10.47846      5.32660      0.59658         0.004848      0.009060     -0.013949
      5.23074      5.32660      0.30316         0.004848      0.009060     -0.013949
      3.07657      0.06063      7.92989        -0.004848      0.009060      0.013949
      8.32429      0.06063      8.22331        -0.004848      0.009060      0.013949
      3.07657      5.32660      7.92989        -0.004848      0.009060      0.013949
      8.32429      5.32660      8.22331        -0.004848      0.009060      0.013949
      2.89737      2.69362      5.35173         0.004848      0.009060     -0.013949
      8.14509      2.69362      5.64515         0.004848      0.009060     -0.013949
      2.89737      7.95958      5.35173         0.004848      0.009060     -0.013949
      8.14509      7.95958      5.64515         0.004848      0.009060     -0.013949
      0.16223      2.69362      2.58790        -0.004848      0.009060      0.013949
      5.40994      2.69362      2.88132        -0.004848      0.009060      0.013949
      0.16223      7.95958      2.58790        -0.004848      0.009060      0.013949
      5.40994      7.95958      2.88132        -0.004848      0.009060      0.013949
 -----------------------------------------------------------------------------------
    total drift:                                0.000007     -0.028014      0.000235


--------------------------------------------------------------------------------------------------------



  FREE ENERGIE OF THE ION-ELECTRON SYSTEM (eV)
  ---------------------------------------------------
  free  energy   TOTEN  =      -326.78197099 eV

  energy  without entropy=     -326.78197099  energy(sigma->0) =     -326.78197099
 


--------------------------------------------------------------------------------------------------------


    POTLOK:  cpu time    0.1304: real time    0.1311


--------------------------------------------------------------------------------------------------------


 writing wavefunctions
     LOOP+:  cpu time 3601.7079: real time 3627.1753
    4ORBIT:  cpu time    0.0000: real time    0.0000
 


 total charge     
 
# of ion       s       p       d       tot
------------------------------------------
    1        1.315   2.406   0.000   3.721
    2        1.315   2.406   0.000   3.721
    3        1.315   2.406   0.000   3.721
    4        1.315   2.406   0.000   3.721
    5        1.315   2.406   0.000   3.721
    6        1.315   2.406   0.000   3.721
    7        1.315   2.406   0.000   3.721
    8        1.315   2.406   0.000   3.721
    9        1.317   2.400   0.000   3.717
   10        1.317   2.400   0.000   3.717
   11        1.317   2.400   0.000   3.717
   12        1.317   2.400   0.000   3.717
   13        1.313   2.411   0.000   3.724
   14        1.313   2.411   0.000   3.724
   15        1.313   2.411   0.000   3.724
   16        1.313   2.411   0.000   3.724
   17        1.315   2.406   0.000   3.721
   18        1.315   2.406   0.000   3.721
   19        1.315   2.406   0.000   3.721
   20        1.315   2.406   0.000   3.721
   21        1.315   2.406   0.000   3.721
   22        1.315   2.406   0.000   3.721
   23        1.315   2.406   0.000   3.721
   24        1.315   2.406   0.000   3.721
   25        1.317   2.400   0.000   3.717
   26        1.317   2.400   0.000   3.717
   27        1.317   2.400   0.000   3.717
   28        1.317   2.400   0.000   3.717
   29        1.313   2.411   0.000   3.724
   30        1.313   2.411   0.000   3.724
   31        1.313   2.411   0.000   3.724
   32        1.313   2.411   0.000   3.724
   33        0.258   6.200   8.917  15.375
   34        0.258   6.200   8.917  15.375
   35        0.258   6.200   8.917  15.375
   36        0.258   6.200   8.917  15.375
   37        0.258   6.200   8.917  15.375
   38        0.258   6.200   8.917  15.375
   39        0.258   6.200   8.917  15.375
   40        0.258   6.200   8.917  15.375
   41        0.258   6.200   8.917  15.375
   42        0.258   6.200   8.917  15.375
   43        0.258   6.200   8.917  15.375
   44        0.258   6.200   8.917  15.375
   45        0.258   6.200   8.917  15.375
   46        0.258   6.200   8.917  15.375
   47        0.258   6.200   8.917  15.375
   48        0.258   6.200   8.917  15.375
   49        0.347   6.347   5.824  12.519
   50        0.347   6.347   5.824  12.519
   51        0.347   6.347   5.824  12.519
   52        0.347   6.347   5.824  12.519
   53        0.347   6.347   5.824  12.519
   54        0.347   6.347   5.824  12.519
   55        0.347   6.347   5.824  12.519
   56        0.347   6.347   5.824  12.519
   57        0.347   6.347   5.824  12.519
   58        0.347   6.347   5.824  12.519
   59        0.347   6.347   5.824  12.519
   60        0.347   6.347   5.824  12.519
   61        0.347   6.347   5.824  12.519
   62        0.347   6.347   5.824  12.519
   63        0.347   6.347   5.824  12.519
   64        0.347   6.347   5.824  12.519
--------------------------------------------------
tot         51.765 277.747 235.864 565.376
 


 magnetization (x)
 
# of ion       s       p       d       tot
------------------------------------------
    1       -0.000  -0.027   0.000  -0.028
    2       -0.000  -0.027   0.000  -0.028
    3       -0.000  -0.027   0.000  -0.028
    4       -0.000  -0.027   0.000  -0.028
    5        0.000   0.027   0.000   0.028
    6        0.000   0.027   0.000   0.028
    7        0.000   0.027   0.000   0.028
    8        0.000   0.027   0.000   0.028
    9        0.000  -0.000   0.000  -0.000
   10        0.000   0.000   0.000   0.000
   11        0.000  -0.000   0.000  -0.000
   12        0.000   0.000   0.000   0.000
   13       -0.000   0.000   0.000   0.000
   14        0.000   0.000   0.000   0.000
   15       -0.000   0.000   0.000   0.000
   16        0.000   0.000   0.000   0.000
   17        0.000   0.027   0.000   0.028
   18        0.000   0.027   0.000   0.028
   19        0.000   0.027   0.000   0.028
   20        0.000   0.027   0.000   0.028
   21       -0.000  -0.027   0.000  -0.028
   22       -0.000  -0.027   0.000  -0.028
   23       -0.000  -0.027   0.000  -0.028
   24       -0.000  -0.027   0.000  -0.028
   25        0.000   0.000   0.000   0.000
   26        0.000   0.000   0.000   0.000
   27        0.000   0.000   0.000   0.000
   28        0.000   0.000   0.000   0.000
   29       -0.000   0.000   0.000   0.000
   30        0.000   0.000   0.000   0.000
   31       -0.000   0.000   0.000   0.000
   32        0.000   0.000   0.000   0.000
   33        0.000   0.001  -0.004  -0.003
   34        0.000   0.001  -0.004  -0.003
   35        0.000   0.001  -0.004  -0.003
   36        0.000   0.001  -0.004  -0.003
   37       -0.000  -0.001   0.004   0.003
   38       -0.000  -0.001   0.004   0.003
   39       -0.000  -0.001   0.004   0.003
   40       -0.000  -0.001   0.004   0.003
   41        0.000   0.001  -0.004  -0.003
   42        0.000   0.001  -0.004  -0.003
   43        0.000   0.001  -0.004  -0.003
   44        0.000   0.001  -0.004  -0.003
   45       -0.000  -0.001   0.004   0.003
   46       -0.000  -0.001   0.004   0.003
   47       -0.000  -0.001   0.004   0.003
   48       -0.000  -0.001   0.004   0.003
   49        0.020   0.054   3.664   3.738
   50        0.020   0.054   3.664   3.738
   51        0.020   0.054   3.664   3.738
   52        0.020   0.054   3.664   3.738
   53       -0.020  -0.054  -3.664  -3.738
   54       -0.020  -0.054  -3.664  -3.738
   55       -0.020  -0.054  -3.664  -3.738
   56       -0.020  -0.054  -3.664  -3.738
   57        0.020   0.054   3.664   3.738
   58        0.020   0.054   3.664   3.738
   59        0.020   0.054   3.664   3.738
   60        0.020   0.054   3.664   3.738
   61       -0.020  -0.054  -3.664  -3.738
   62       -0.020  -0.054  -3.664  -3.738
   63       -0.020  -0.054  -3.664  -3.738
   64       -0.020  -0.054  -3.664  -3.738
--------------------------------------------------
tot         -0.000   0.000  -0.000  -0.000
 
 BZINTS: Fermi energy:  5.023120;688.000000 electrons
         Band energy:***********;  BLOECHL correction:  0.000000

 total amount of memory used by VASP MPI-rank0   348353. kBytes
=======================================================================

   base      :      30000. kBytes
   nonl-proj :     216760. kBytes
   fftplans  :       4588. kBytes
   grid      :      69719. kBytes
   one-center:       1990. kBytes
   wavefun   :      25296. kBytes
 
  
  
 General timing and accounting informations for this job:
 ========================================================
  
                  Total CPU time used (sec):     3660.533
                            User time (sec):     3649.400
                          System time (sec):       11.133
                         Elapsed time (sec):     3687.686
  
                   Maximum memory used (kb):      729572.
                   Average memory used (kb):           0.
  
                          Minor page faults:       585269
                          Major page faults:         5720
                 Voluntary context switches:         7094
