 vasp.5.4.4.18Apr17-6-g9f103f2a35 (build Oct 30 2023 17:49:44) complex          
  
 executed on             LinuxIFC date 2024.12.05  03:25:52
 running on  256 total cores
 distrk:  each k-point on  256 cores,    1 groups
 distr:  one band on NCORES_PER_BAND=   1 cores,  256 groups


--------------------------------------------------------------------------------------------------------


 INCAR:
 POTCAR:    PAW_PBE S 06Sep2000                   
 POTCAR:     PAW_PBE Cu_pv 06Sep2000              
 POTCAR:     PAW_PBE Fe_pv 02Aug2007              

 ----------------------------------------------------------------------------- 
|                                                                             |
|           W    W    AA    RRRRR   N    N  II  N    N   GGGG   !!!           |
|           W    W   A  A   R    R  NN   N  II  NN   N  G    G  !!!           |
|           W    W  A    A  R    R  N N  N  II  N N  N  G       !!!           |
|           W WW W  AAAAAA  RRRRR   N  N N  II  N  N N  G  GGG   !            |
|           WW  WW  A    A  R   R   N   NN  II  N   NN  G    G                |
|           W    W  A    A  R    R  N    N  II  N    N   GGGG   !!!           |
|                                                                             |
|      For optimal performance we recommend to set                            |
|        NCORE= 4 - approx SQRT( number of cores)                             |
|      NCORE specifies how many cores store one orbital (NPAR=cpu/NCORE).     |
|      This setting can  greatly improve the performance of VASP for DFT.     |
|      The default,   NCORE=1            might be grossly inefficient         |
|      on modern multi-core architectures or massively parallel machines.     |
|      Do your own testing !!!!                                               |
|      Unfortunately you need to use the default for GW and RPA calculations. |
|      (for HF NCORE is supported but not extensively tested yet)             |
|                                                                             |
 ----------------------------------------------------------------------------- 

 POTCAR:    PAW_PBE S 06Sep2000                   
   SHA256 =  0fc7481fb0695f01bdc6462160264c5c84044ae9ec85a907d398b887a2bc3132 S/
   COPYR  = (c) Copyright 06Sep2000 Georg Kresse                                
   COPYR  = This file is part of the software VASP. Any use, copying, and all ot
   COPYR  = If you do not have a valid VASP license, you may not use, copy or di
   VRHFIN =S : s2p4                                                             
   LEXCH  = PE                                                                  
   EATOM  =   276.8230 eV,   20.3459 Ry                                         
                                                                                
   TITEL  = PAW_PBE S 06Sep2000                                                 
   LULTRA =        F    use ultrasoft PP ?                                      
   IUNSCR =        1    unscreen: 0-lin 1-nonlin 2-no                           
   RPACOR =    1.500    partial core radius                                     
   POMASS =   32.066; ZVAL   =    6.000    mass and valenz                      
   RCORE  =    1.900    outmost cutoff radius                                   
   RWIGS  =    2.200; RWIGS  =    1.164    wigner-seitz radius (au A)           
   ENMAX  =  258.689; ENMIN  =  194.016 eV                                      
   ICORE  =        2    local potential                                         
   LCOR   =        T    correct aug charges                                     
   LPAW   =        T    paw PP                                                  
   EAUG   =  335.092                                                            
   DEXC   =    0.000                                                            
   RMAX   =    1.942    core radius for proj-oper                               
   RAUG   =    1.300    factor for augmentation sphere                          
   RDEP   =    1.954    radius for radial grids                                 
   RDEPT  =    1.744    core radius for aug-charge                              
                                                                                
   Atomic configuration                                                         
    6 entries                                                                   
     n  l   j            E        occ.                                          
     1  0  0.50     -2405.8406   2.0000                                         
     2  0  0.50      -211.7007   2.0000                                         
     2  1  1.50      -156.4958   6.0000                                         
     3  0  0.50       -17.2562   2.0000                                         
     3  1  0.50        -7.0085   4.0000                                         
     3  2  1.50        -6.8029   0.0000                                         
   Description                                                                  
     l       E           TYP  RCUT    TYP  RCUT                                 
     0    -17.2561641     23  1.900                                             
     0    -15.8743224     23  1.900                                             
     1     -7.0085400     23  1.900                                             
     1     -2.7779785     23  1.900                                             
     2     -6.8029130     23  1.900                                             
  local pseudopotential read in
  partial core-charges read in
  partial kinetic energy density read in
  atomic valenz-charges read in
  non local Contribution for L=           0  read in
    real space projection operators read in
  non local Contribution for L=           0  read in
    real space projection operators read in
  non local Contribution for L=           1  read in
    real space projection operators read in
  non local Contribution for L=           1  read in
    real space projection operators read in
    PAW grid and wavefunctions read in
 
   number of l-projection  operators is LMAX  =           4
   number of lm-projection operators is LMMAX =           8
 
 POTCAR:     PAW_PBE Cu_pv 06Sep2000              
   SHA256 =  cb7b504e2ea725fe1f25c85a9ac77d4012ce94cd394135b722c4e25ec297f1cb Cu
   COPYR  = (c) Copyright 06Sep2000 Georg Kresse                                
   COPYR  = This file is part of the software VASP. Any use, copying, and all ot
   COPYR  = If you do not have a valid VASP license, you may not use, copy or di
   VRHFIN =Cu: d10 p1                                                           
   LEXCH  = PE                                                                  
   EATOM  =  4120.1201 eV,  302.8203 Ry                                         
                                                                                
   TITEL  = PAW_PBE Cu_pv 06Sep2000                                             
   LULTRA =        F    use ultrasoft PP ?                                      
   IUNSCR =        1    unscreen: 0-lin 1-nonlin 2-no                           
   RPACOR =    1.500    partial core radius                                     
   POMASS =   63.546; ZVAL   =   17.000    mass and valenz                      
   RCORE  =    2.000    outmost cutoff radius                                   
   RWIGS  =    2.000; RWIGS  =    1.058    wigner-seitz radius (au A)           
   ENMAX  =  368.648; ENMIN  =  276.486 eV                                      
   RCLOC  =    1.304    cutoff for local pot                                    
   LCOR   =        T    correct aug charges                                     
   LPAW   =        T    paw PP                                                  
   EAUG   =  758.233                                                            
   DEXC   =    0.000                                                            
   RMAX   =    2.046    core radius for proj-oper                               
   RAUG   =    1.300    factor for augmentation sphere                          
   RDEP   =    2.025    radius for radial grids                                 
   RDEPT  =    1.558    core radius for aug-charge                              
                                                                                
   Atomic configuration                                                         
    8 entries                                                                   
     n  l   j            E        occ.                                          
     1  0  0.50     -8850.2467   2.0000                                         
     2  0  0.50     -1062.3498   2.0000                                         
     2  1  1.50      -916.8226   6.0000                                         
     3  0  0.50      -114.6929   2.0000                                         
     3  1  1.50       -72.1325   6.0000                                         
     3  2  2.50        -5.0394  10.0000                                         
     4  0  0.50        -4.6097   1.0000                                         
     4  3  2.50        -1.3606   0.0000                                         
   Description                                                                  
     l       E           TYP  RCUT    TYP  RCUT                                 
     1    -72.1324777     23  1.700                                             
     1     -1.3605826     23  1.700                                             
     2     -5.0393776     23  2.000                                             
     2     -6.3999602     23  2.000                                             
     0     -4.6097062     23  1.800                                             
     0     14.1620818     23  1.800                                             
  local pseudopotential read in
  partial core-charges read in
  partial kinetic energy density read in
  atomic valenz-charges read in
  non local Contribution for L=           1  read in
    real space projection operators read in
  non local Contribution for L=           1  read in
    real space projection operators read in
  non local Contribution for L=           2  read in
    real space projection operators read in
  non local Contribution for L=           2  read in
    real space projection operators read in
  non local Contribution for L=           0  read in
    real space projection operators read in
  non local Contribution for L=           0  read in
    real space projection operators read in
    PAW grid and wavefunctions read in
 
   number of l-projection  operators is LMAX  =           6
   number of lm-projection operators is LMMAX =          18
 
 POTCAR:     PAW_PBE Fe_pv 02Aug2007              
   SHA256 =  5d22e414b1f82158bf2c7ecb8b97b28fd0923e48cadc1c3bf74d524558f5dd32 Fe
   COPYR  = (c) Copyright 02Aug2007 Georg Kresse                                
   COPYR  = This file is part of the software VASP. Any use, copying, and all ot
   COPYR  = If you do not have a valid VASP license, you may not use, copy or di
   VRHFIN =Fe:  3pd7s1                                                          
   LEXCH  = PE                                                                  
   EATOM  =  2457.4239 eV,  180.6156 Ry                                         
                                                                                
   TITEL  = PAW_PBE Fe_pv 02Aug2007                                             
   LULTRA =        F    use ultrasoft PP ?                                      
   IUNSCR =        1    unscreen: 0-lin 1-nonlin 2-no                           
   RPACOR =    1.750    partial core radius                                     
   POMASS =   55.847; ZVAL   =   14.000    mass and valenz                      
   RCORE  =    2.200    outmost cutoff radius                                   
   RWIGS  =    2.200; RWIGS  =    1.164    wigner-seitz radius (au A)           
   ENMAX  =  293.238; ENMIN  =  219.928 eV                                      
   ICORE  =        3    local potential                                         
   LCOR   =        T    correct aug charges                                     
   LPAW   =        T    paw PP                                                  
   EAUG   =  578.342                                                            
   DEXC   =    0.000                                                            
   RMAX   =    2.249    core radius for proj-oper                               
   RAUG   =    1.300    factor for augmentation sphere                          
   RDEP   =    2.296    radius for radial grids                                 
   RDEPT  =    1.766    core radius for aug-charge                              
                                                                                
   Atomic configuration                                                         
    8 entries                                                                   
     n  l   j            E        occ.                                          
     1  0  0.50     -6993.8440   2.0000                                         
     2  0  0.50      -814.6047   2.0000                                         
     2  1  1.50      -693.3689   6.0000                                         
     3  0  0.50       -89.4732   2.0000                                         
     3  1  1.50       -55.6373   6.0000                                         
     3  2  2.50        -3.8151   7.0000                                         
     4  0  0.50        -4.2551   1.0000                                         
     4  3  2.50        -1.3606   0.0000                                         
   Description                                                                  
     l       E           TYP  RCUT    TYP  RCUT                                 
     1    -55.6372668     23  2.000                                             
     1     -5.4423304     23  2.000                                             
     2     -3.8151096     23  2.200                                             
     2     -5.1756922     23  2.200                                             
     0     -4.2550951     23  2.200                                             
     0     27.2116520     23  2.200                                             
     3     -1.3605826     23  2.200                                             
  local pseudopotential read in
  partial core-charges read in
  partial kinetic energy density read in
  atomic valenz-charges read in
  non local Contribution for L=           1  read in
    real space projection operators read in
  non local Contribution for L=           1  read in
    real space projection operators read in
  non local Contribution for L=           2  read in
    real space projection operators read in
  non local Contribution for L=           2  read in
    real space projection operators read in
  non local Contribution for L=           0  read in
    real space projection operators read in
  non local Contribution for L=           0  read in
    real space projection operators read in
    PAW grid and wavefunctions read in
 
   number of l-projection  operators is LMAX  =           6
   number of lm-projection operators is LMMAX =          18
 

 ----------------------------------------------------------------------------- 
|                                                                             |
|  ADVICE TO THIS USER RUNNING 'VASP/VAMP'   (HEAR YOUR MASTER'S VOICE ...):  |
|                                                                             |
|      You enforced a specific xc-type in the INCAR file,                     |
|      a different type was found on the POTCAR file                          |
|          I HOPE YOU KNOW, WHAT YOU ARE  DOING                               |
|                                                                             |
 ----------------------------------------------------------------------------- 

  PAW_PBE S 06Sep2000                   :
 energy of atom  1       EATOM= -276.8230
 kinetic energy error for atom=    0.0007 (will be added to EATOM!!)
   PAW_PBE Cu_pv 06Sep2000              :
 energy of atom  2       EATOM=-4120.1201
 kinetic energy error for atom=    0.0094 (will be added to EATOM!!)
   PAW_PBE Fe_pv 02Aug2007              :
 energy of atom  3       EATOM=-2457.4239
 kinetic energy error for atom=    0.0025 (will be added to EATOM!!)
 
 
 POSCAR: Fe4 Cu4 S8                              
  positions in direct lattice
  velocities in cartesian coordinates
 exchange correlation table for  LEXCH =       14
   RHO(1)=    0.500       N(1)  =     2000
   RHO(2)=  100.500       N(2)  =     4000
 


--------------------------------------------------------------------------------------------------------


 ion  position               nearest neighbor table
   1  0.253  0.239  0.126-  11 2.26  16 2.26  10 2.27  13 2.29
   2  0.747  0.739  0.124-  10 2.26  13 2.26  11 2.27  16 2.29
   3  0.250  0.741  0.875-  12 2.27  11 2.27  13 2.27  14 2.27
   4  0.750  0.245  0.875-  12 2.26  11 2.26  14 2.29  13 2.29
   5  0.247  0.239  0.624-  12 2.26  15 2.26   9 2.27  14 2.29
   6  0.753  0.739  0.626-   9 2.26  14 2.26  12 2.27  15 2.29
   7  0.750  0.241  0.375-   9 2.27  10 2.27  15 2.27  16 2.27
   8  0.250  0.745  0.375-   9 2.26  10 2.26  15 2.29  16 2.29
   9  0.996  0.009  0.500-   6 2.26   8 2.26   7 2.27   5 2.27
  10  0.504  0.009  0.250-   2 2.26   8 2.26   7 2.27   1 2.27
  11  0.496  0.509  0.000-   1 2.26   4 2.26   3 2.27   2 2.27
  12  0.004  0.509  0.750-   5 2.26   4 2.26   3 2.27   6 2.27
  13  0.998  0.009  0.000-   2 2.26   3 2.27   4 2.29   1 2.29
  14  0.502  0.009  0.750-   6 2.26   3 2.27   4 2.29   5 2.29
  15  0.498  0.509  0.500-   5 2.26   7 2.27   8 2.29   6 2.29
  16  0.002  0.509  0.250-   1 2.26   7 2.27   8 2.29   2 2.29
 
  LATTYP: Found a simple monoclinic cell.
 ALAT       =    12.0520678954
 B/A-ratio  =     0.4372313358
 C/A-ratio  =     1.8162573550
 COS(beta)  =    -0.9784903833
  
  Lattice vectors:
  
 A1 = (  -5.7023530000,   0.0000000000, -10.6176980000)
 A2 = (   0.0000000000,  -5.2695417453,   0.0000000000)
 A3 = (   6.1559260000,   0.0000000000,  21.0062290000)


Analysis of symmetry for initial positions (statically):
=====================================================================
 Subroutine PRICEL returns following result:
 
  LATTYP: Found a base centered monoclinic cell.
 ALAT       =    11.2341749611
 B/A-ratio  =     0.4690635283
 C/A-ratio  =     0.9256067342
 COS(beta)  =    -0.8010964393
  
  Lattice vectors:
  
 A1 = (  -2.3976035000,  -2.6347708727,   5.0796820000)
 A2 = (  -2.3976035000,   2.6347708727,   5.0796820000)
 A3 = (  -0.4535730000,   0.0000000000, -10.3885310000)
 
   2 primitive cells build up your supercell.
 

 Routine SETGRP: Setting up the symmetry group for a 
 simple monoclinic supercell.


 Subroutine GETGRP returns: Found  2 space group operations
 (whereof  1 operations were pure point group operations)
 out of a pool of  4 trial point group operations.


The static configuration has the point symmetry C_1 .
 The point group associated with its full space group is C_2 .


Analysis of symmetry for dynamics (positions and initial velocities):
=====================================================================
 Subroutine PRICEL returns following result:
 
  LATTYP: Found a base centered monoclinic cell.
 ALAT       =    11.2341749611
 B/A-ratio  =     0.4690635283
 C/A-ratio  =     0.9256067342
 COS(beta)  =    -0.8010964393
  
  Lattice vectors:
  
 A1 = (  -2.3976035000,  -2.6347708727,   5.0796820000)
 A2 = (  -2.3976035000,   2.6347708727,   5.0796820000)
 A3 = (  -0.4535730000,   0.0000000000, -10.3885310000)
 
   2 primitive cells build up your supercell.
 

 Routine SETGRP: Setting up the symmetry group for a 
 simple monoclinic supercell.


 Subroutine GETGRP returns: Found  2 space group operations
 (whereof  1 operations were pure point group operations)
 out of a pool of  4 trial point group operations.


The dynamic configuration has the point symmetry C_1 .
 The point group associated with its full space group is C_2 .


Analysis of structural, dynamic, and magnetic symmetry:
=====================================================================
 Subroutine PRICEL returns following result:
 
  LATTYP: Found a base centered monoclinic cell.
 ALAT       =    11.2341749611
 B/A-ratio  =     0.4690635283
 C/A-ratio  =     0.9256067342
 COS(beta)  =    -0.8010964393
  
  Lattice vectors:
  
 A1 = (  -2.3976035000,  -2.6347708727,   5.0796820000)
 A2 = (  -2.3976035000,   2.6347708727,   5.0796820000)
 A3 = (  -0.4535730000,   0.0000000000, -10.3885310000)
 
   2 primitive cells build up your supercell.
 

 Routine SETGRP: Setting up the symmetry group for a 
 simple monoclinic supercell.


 Subroutine GETGRP returns: Found  2 space group operations
 (whereof  1 operations were pure point group operations)
 out of a pool of  4 trial point group operations.


The (compounded) configuration has the point symmetry C_1 .
 The point group associated with its full space group is C_2 .


 Subroutine INISYM returns: Found  2 space group operations
 (whereof  1 operations are pure point group operations),
 and found     2 'primitive' translations

 
 
 KPOINTS: Automatic mesh                          

Automatic generation of k-mesh.
Space group operators:
 irot       det(A)        alpha          n_x          n_y          n_z        tau_x        tau_y        tau_z
    1     1.000000     0.000001     1.000000     0.000000     0.000000     0.000000     0.000000     0.000000
    2     1.000000   180.000000     0.000000     1.000000     0.000000    -0.500000     0.000000    -0.250000
 
 Subroutine IBZKPT returns following result:
 ===========================================
 
 Found     60 irreducible k-points:
 
 Following reciprocal coordinates:
            Coordinates               Weight
  0.000000  0.000000  0.000000      1.000000
  0.166667  0.000000 -0.000000      2.000000
  0.333333  0.000000 -0.000000      2.000000
  0.500000  0.000000  0.000000      1.000000
  0.000000  0.166667  0.000000      1.000000
  0.166667  0.166667 -0.000000      2.000000
  0.333333  0.166667 -0.000000      2.000000
  0.500000  0.166667  0.000000      1.000000
  0.000000  0.333333  0.000000      1.000000
  0.166667  0.333333 -0.000000      2.000000
  0.333333  0.333333 -0.000000      2.000000
  0.500000  0.333333  0.000000      1.000000
  0.000000  0.500000  0.000000      1.000000
  0.166667  0.500000 -0.000000      2.000000
  0.333333  0.500000 -0.000000      2.000000
  0.500000  0.500000  0.000000      1.000000
  0.000000 -0.333333  0.000000      1.000000
  0.166667 -0.333333 -0.000000      2.000000
  0.333333 -0.333333 -0.000000      2.000000
  0.500000 -0.333333  0.000000      1.000000
  0.000000 -0.166667  0.000000      1.000000
  0.166667 -0.166667 -0.000000      2.000000
  0.333333 -0.166667 -0.000000      2.000000
  0.500000 -0.166667  0.000000      1.000000
  0.000000  0.000000  0.333333      2.000000
  0.166667  0.000000  0.333333      2.000000
  0.333333  0.000000  0.333333      2.000000
  0.500000  0.000000  0.333333      2.000000
 -0.333333  0.000000  0.333333      2.000000
 -0.166667  0.000000  0.333333      2.000000
  0.000000  0.166667  0.333333      2.000000
  0.166667  0.166667  0.333333      2.000000
  0.333333  0.166667  0.333333      2.000000
  0.500000  0.166667  0.333333      2.000000
 -0.333333  0.166667  0.333333      2.000000
 -0.166667  0.166667  0.333333      2.000000
  0.000000  0.333333  0.333333      2.000000
  0.166667  0.333333  0.333333      2.000000
  0.333333  0.333333  0.333333      2.000000
  0.500000  0.333333  0.333333      2.000000
 -0.333333  0.333333  0.333333      2.000000
 -0.166667  0.333333  0.333333      2.000000
  0.000000  0.500000  0.333333      2.000000
  0.166667  0.500000  0.333333      2.000000
  0.333333  0.500000  0.333333      2.000000
  0.500000  0.500000  0.333333      2.000000
 -0.333333  0.500000  0.333333      2.000000
 -0.166667  0.500000  0.333333      2.000000
  0.000000 -0.333333  0.333333      2.000000
  0.166667 -0.333333  0.333333      2.000000
  0.333333 -0.333333  0.333333      2.000000
  0.500000 -0.333333  0.333333      2.000000
 -0.333333 -0.333333  0.333333      2.000000
 -0.166667 -0.333333  0.333333      2.000000
  0.000000 -0.166667  0.333333      2.000000
  0.166667 -0.166667  0.333333      2.000000
  0.333333 -0.166667  0.333333      2.000000
  0.500000 -0.166667  0.333333      2.000000
 -0.333333 -0.166667  0.333333      2.000000
 -0.166667 -0.166667  0.333333      2.000000
 
 Following cartesian coordinates:
            Coordinates               Weight
  0.000000  0.000000  0.000000      1.000000
  0.031814  0.000000 -0.001389      2.000000
  0.063628  0.000000 -0.002778      2.000000
  0.095442  0.000000 -0.004167      1.000000
  0.000000  0.031628  0.000000      1.000000
  0.031814  0.031628 -0.001389      2.000000
  0.063628  0.031628 -0.002778      2.000000
  0.095442  0.031628 -0.004167      1.000000
  0.000000  0.063257  0.000000      1.000000
  0.031814  0.063257 -0.001389      2.000000
  0.063628  0.063257 -0.002778      2.000000
  0.095442  0.063257 -0.004167      1.000000
  0.000000  0.094885  0.000000      1.000000
  0.031814  0.094885 -0.001389      2.000000
  0.063628  0.094885 -0.002778      2.000000
  0.095442  0.094885 -0.004167      1.000000
  0.000000 -0.063257  0.000000      1.000000
  0.031814 -0.063257 -0.001389      2.000000
  0.063628 -0.063257 -0.002778      2.000000
  0.095442 -0.063257 -0.004167      1.000000
  0.000000 -0.031628  0.000000      1.000000
  0.031814 -0.031628 -0.001389      2.000000
  0.063628 -0.031628 -0.002778      2.000000
  0.095442 -0.031628 -0.004167      1.000000
 -0.001404  0.000000  0.032148      2.000000
  0.030410  0.000000  0.030759      2.000000
  0.062225  0.000000  0.029370      2.000000
  0.094039  0.000000  0.027981      2.000000
 -0.065032  0.000000  0.034926      2.000000
 -0.033218  0.000000  0.033537      2.000000
 -0.001404  0.031628  0.032148      2.000000
  0.030410  0.031628  0.030759      2.000000
  0.062225  0.031628  0.029370      2.000000
  0.094039  0.031628  0.027981      2.000000
 -0.065032  0.031628  0.034926      2.000000
 -0.033218  0.031628  0.033537      2.000000
 -0.001404  0.063257  0.032148      2.000000
  0.030410  0.063257  0.030759      2.000000
  0.062225  0.063257  0.029370      2.000000
  0.094039  0.063257  0.027981      2.000000
 -0.065032  0.063257  0.034926      2.000000
 -0.033218  0.063257  0.033537      2.000000
 -0.001404  0.094885  0.032148      2.000000
  0.030410  0.094885  0.030759      2.000000
  0.062225  0.094885  0.029370      2.000000
  0.094039  0.094885  0.027981      2.000000
 -0.065032  0.094885  0.034926      2.000000
 -0.033218  0.094885  0.033537      2.000000
 -0.001404 -0.063257  0.032148      2.000000
  0.030410 -0.063257  0.030759      2.000000
  0.062225 -0.063257  0.029370      2.000000
  0.094039 -0.063257  0.027981      2.000000
 -0.065032 -0.063257  0.034926      2.000000
 -0.033218 -0.063257  0.033537      2.000000
 -0.001404 -0.031628  0.032148      2.000000
  0.030410 -0.031628  0.030759      2.000000
  0.062225 -0.031628  0.029370      2.000000
  0.094039 -0.031628  0.027981      2.000000
 -0.065032 -0.031628  0.034926      2.000000
 -0.033218 -0.031628  0.033537      2.000000
 
 TETIRR: Found    648 inequivalent tetrahedra from      648
 
 Subroutine IBZKPT_HF returns following result:
 ==============================================
 
 Found    108 k-points in 1st BZ
 the following    108 k-points will be used (e.g. in the exchange kernel)
 Following reciprocal coordinates:   # in IRBZ
  0.000000  0.000000  0.000000    0.00925926   1 t-inv F
  0.166667  0.000000 -0.000000    0.00925926   2 t-inv F
  0.333333  0.000000 -0.000000    0.00925926   3 t-inv F
  0.500000  0.000000  0.000000    0.00925926   4 t-inv F
  0.000000  0.166667  0.000000    0.00925926   5 t-inv F
  0.166667  0.166667 -0.000000    0.00925926   6 t-inv F
  0.333333  0.166667 -0.000000    0.00925926   7 t-inv F
  0.500000  0.166667  0.000000    0.00925926   8 t-inv F
  0.000000  0.333333  0.000000    0.00925926   9 t-inv F
  0.166667  0.333333 -0.000000    0.00925926  10 t-inv F
  0.333333  0.333333 -0.000000    0.00925926  11 t-inv F
  0.500000  0.333333  0.000000    0.00925926  12 t-inv F
  0.000000  0.500000  0.000000    0.00925926  13 t-inv F
  0.166667  0.500000 -0.000000    0.00925926  14 t-inv F
  0.333333  0.500000 -0.000000    0.00925926  15 t-inv F
  0.500000  0.500000  0.000000    0.00925926  16 t-inv F
  0.000000 -0.333333  0.000000    0.00925926  17 t-inv F
  0.166667 -0.333333 -0.000000    0.00925926  18 t-inv F
  0.333333 -0.333333 -0.000000    0.00925926  19 t-inv F
  0.500000 -0.333333  0.000000    0.00925926  20 t-inv F
  0.000000 -0.166667  0.000000    0.00925926  21 t-inv F
  0.166667 -0.166667 -0.000000    0.00925926  22 t-inv F
  0.333333 -0.166667 -0.000000    0.00925926  23 t-inv F
  0.500000 -0.166667  0.000000    0.00925926  24 t-inv F
  0.000000  0.000000  0.333333    0.00925926  25 t-inv F
  0.166667  0.000000  0.333333    0.00925926  26 t-inv F
  0.333333  0.000000  0.333333    0.00925926  27 t-inv F
  0.500000  0.000000  0.333333    0.00925926  28 t-inv F
 -0.333333  0.000000  0.333333    0.00925926  29 t-inv F
 -0.166667  0.000000  0.333333    0.00925926  30 t-inv F
  0.000000  0.166667  0.333333    0.00925926  31 t-inv F
  0.166667  0.166667  0.333333    0.00925926  32 t-inv F
  0.333333  0.166667  0.333333    0.00925926  33 t-inv F
  0.500000  0.166667  0.333333    0.00925926  34 t-inv F
 -0.333333  0.166667  0.333333    0.00925926  35 t-inv F
 -0.166667  0.166667  0.333333    0.00925926  36 t-inv F
  0.000000  0.333333  0.333333    0.00925926  37 t-inv F
  0.166667  0.333333  0.333333    0.00925926  38 t-inv F
  0.333333  0.333333  0.333333    0.00925926  39 t-inv F
  0.500000  0.333333  0.333333    0.00925926  40 t-inv F
 -0.333333  0.333333  0.333333    0.00925926  41 t-inv F
 -0.166667  0.333333  0.333333    0.00925926  42 t-inv F
  0.000000  0.500000  0.333333    0.00925926  43 t-inv F
  0.166667  0.500000  0.333333    0.00925926  44 t-inv F
  0.333333  0.500000  0.333333    0.00925926  45 t-inv F
  0.500000  0.500000  0.333333    0.00925926  46 t-inv F
 -0.333333  0.500000  0.333333    0.00925926  47 t-inv F
 -0.166667  0.500000  0.333333    0.00925926  48 t-inv F
  0.000000 -0.333333  0.333333    0.00925926  49 t-inv F
  0.166667 -0.333333  0.333333    0.00925926  50 t-inv F
  0.333333 -0.333333  0.333333    0.00925926  51 t-inv F
  0.500000 -0.333333  0.333333    0.00925926  52 t-inv F
 -0.333333 -0.333333  0.333333    0.00925926  53 t-inv F
 -0.166667 -0.333333  0.333333    0.00925926  54 t-inv F
  0.000000 -0.166667  0.333333    0.00925926  55 t-inv F
  0.166667 -0.166667  0.333333    0.00925926  56 t-inv F
  0.333333 -0.166667  0.333333    0.00925926  57 t-inv F
  0.500000 -0.166667  0.333333    0.00925926  58 t-inv F
 -0.333333 -0.166667  0.333333    0.00925926  59 t-inv F
 -0.166667 -0.166667  0.333333    0.00925926  60 t-inv F
 -0.166667  0.000000  0.000000    0.00925926   2 t-inv F
 -0.333333  0.000000  0.000000    0.00925926   3 t-inv F
 -0.166667  0.166667  0.000000    0.00925926   6 t-inv F
 -0.333333  0.166667  0.000000    0.00925926   7 t-inv F
 -0.166667  0.333333  0.000000    0.00925926  10 t-inv F
 -0.333333  0.333333  0.000000    0.00925926  11 t-inv F
 -0.166667  0.500000  0.000000    0.00925926  14 t-inv F
 -0.333333  0.500000  0.000000    0.00925926  15 t-inv F
 -0.166667 -0.333333  0.000000    0.00925926  18 t-inv F
 -0.333333 -0.333333  0.000000    0.00925926  19 t-inv F
 -0.166667 -0.166667  0.000000    0.00925926  22 t-inv F
 -0.333333 -0.166667  0.000000    0.00925926  23 t-inv F
  0.000000  0.000000 -0.333333    0.00925926  25 t-inv F
 -0.166667  0.000000 -0.333333    0.00925926  26 t-inv F
 -0.333333  0.000000 -0.333333    0.00925926  27 t-inv F
 -0.500000  0.000000 -0.333333    0.00925926  28 t-inv F
  0.333333  0.000000 -0.333333    0.00925926  29 t-inv F
  0.166667  0.000000 -0.333333    0.00925926  30 t-inv F
  0.000000  0.166667 -0.333333    0.00925926  31 t-inv F
 -0.166667  0.166667 -0.333333    0.00925926  32 t-inv F
 -0.333333  0.166667 -0.333333    0.00925926  33 t-inv F
 -0.500000  0.166667 -0.333333    0.00925926  34 t-inv F
  0.333333  0.166667 -0.333333    0.00925926  35 t-inv F
  0.166667  0.166667 -0.333333    0.00925926  36 t-inv F
  0.000000  0.333333 -0.333333    0.00925926  37 t-inv F
 -0.166667  0.333333 -0.333333    0.00925926  38 t-inv F
 -0.333333  0.333333 -0.333333    0.00925926  39 t-inv F
 -0.500000  0.333333 -0.333333    0.00925926  40 t-inv F
  0.333333  0.333333 -0.333333    0.00925926  41 t-inv F
  0.166667  0.333333 -0.333333    0.00925926  42 t-inv F
  0.000000  0.500000 -0.333333    0.00925926  43 t-inv F
 -0.166667  0.500000 -0.333333    0.00925926  44 t-inv F
 -0.333333  0.500000 -0.333333    0.00925926  45 t-inv F
 -0.500000  0.500000 -0.333333    0.00925926  46 t-inv F
  0.333333  0.500000 -0.333333    0.00925926  47 t-inv F
  0.166667  0.500000 -0.333333    0.00925926  48 t-inv F
  0.000000 -0.333333 -0.333333    0.00925926  49 t-inv F
 -0.166667 -0.333333 -0.333333    0.00925926  50 t-inv F
 -0.333333 -0.333333 -0.333333    0.00925926  51 t-inv F
 -0.500000 -0.333333 -0.333333    0.00925926  52 t-inv F
  0.333333 -0.333333 -0.333333    0.00925926  53 t-inv F
  0.166667 -0.333333 -0.333333    0.00925926  54 t-inv F
  0.000000 -0.166667 -0.333333    0.00925926  55 t-inv F
 -0.166667 -0.166667 -0.333333    0.00925926  56 t-inv F
 -0.333333 -0.166667 -0.333333    0.00925926  57 t-inv F
 -0.500000 -0.166667 -0.333333    0.00925926  58 t-inv F
  0.333333 -0.166667 -0.333333    0.00925926  59 t-inv F
  0.166667 -0.166667 -0.333333    0.00925926  60 t-inv F


--------------------------------------------------------------------------------------------------------




 Dimension of arrays:
   k-points           NKPTS =     60   k-points in BZ     NKDIM =     60   number of bands    NBANDS=    256
   number of dos      NEDOS =    301   number of ions     NIONS =     16
   non local maximal  LDIM  =      6   non local SUM 2l+1 LMDIM =     18
   total plane-waves  NPLWV = 207360
   max r-space proj   IRMAX =      1   max aug-charges    IRDMAX=  22976
   dimension x,y,z NGX =    48 NGY =   48 NGZ =   90
   dimension x,y,z NGXF=    96 NGYF=   96 NGZF=  180
   support grid    NGXF=    96 NGYF=   96 NGZF=  180
   ions per type =               8   4   4
   NGX,Y,Z   is equivalent  to a cutoff of  15.19, 15.14, 14.39 a.u.
   NGXF,Y,Z  is equivalent  to a cutoff of  30.38, 30.29, 28.78 a.u.

 SYSTEM =  CuFeS2                                  
 POSCAR =  Fe4 Cu4 S8                              

 Startparameter for this run:
   NWRITE =      2    write-flag & timer
   PREC   = accura    normal or accurate (medium, high low for compatibility)
   ISTART =      1    job   : 0-new  1-cont  2-samecut
   ICHARG =      1    charge: 1-file 2-atom 10-const
   ISPIN  =      1    spin polarized calculation?
   LNONCOLLINEAR =      T non collinear calculations
   LSORBIT =      T    spin-orbit coupling
   INIWAV =      1    electr: 0-lowe 1-rand  2-diag
   LASPH  =      T    aspherical Exc in radial PAW
   METAGGA=      F    non-selfconsistent MetaGGA calc.

 Electronic Relaxation 1
   ENCUT  =  700.0 eV  51.45 Ry    7.17 a.u.  11.33 11.37 22.43*2*pi/ulx,y,z
   ENINI  =  700.0     initial cutoff
   ENAUG  =  758.2 eV  augmentation charge cutoff
   NELM   =    200;   NELMIN=  2; NELMDL=  0     # of ELM steps 
   EDIFF  = 0.1E-07   stopping-criterion for ELM
   LREAL  =      F    real-space projection
   NLSPLINE    = F    spline interpolate recip. space projectors
   LCOMPAT=      F    compatible to vasp.4.4
   GGA_COMPAT  = T    GGA compatible to vasp.4.4-vasp.4.6
   LMAXPAW     = -100 max onsite density
   LMAXMIX     =    4 max onsite mixed and CHGCAR
   VOSKOWN=      0    Vosko Wilk Nusair interpolation
   ROPT   =    0.00000   0.00000   0.00000
 Ionic relaxation
   EDIFFG = -.1E-04   stopping-criterion for IOM
   NSW    =      0    number of steps for IOM
   NBLOCK =      1;   KBLOCK =      1    inner block; outer block 
   IBRION =     -1    ionic relax: 0-MD 1-quasi-New 2-CG
   NFREE  =      0    steps in history (QN), initial steepest desc. (CG)
   ISIF   =      2    stress and relaxation
   IWAVPR =     10    prediction:  0-non 1-charg 2-wave 3-comb
   ISYM   =      2    0-nonsym 1-usesym 2-fastsym
   LCORR  =      T    Harris-Foulkes like correction to forces

   POTIM  = 0.5000    time-step for ionic-motion
   TEIN   =    0.0    initial temperature
   TEBEG  =    0.0;   TEEND  =   0.0 temperature during run
   SMASS  =  -3.00    Nose mass-parameter (am)
   estimated Nose-frequenzy (Omega)   =  0.10E-29 period in steps =****** mass=  -0.631E-27a.u.
   SCALEE = 1.0000    scale energy and forces
   NPACO  =    256;   APACO  = 16.0  distance and # of slots for P.C.
   PSTRESS=    0.0 pullay stress

  Mass of Ions in am
   POMASS =  32.07 63.55 55.85
  Ionic Valenz
   ZVAL   =   6.00 17.00 14.00
  Atomic Wigner-Seitz radii
   RWIGS  =  -1.00 -1.00 -1.00
  virtual crystal weights 
   VCA    =   1.00  1.00  1.00
   NELECT =     172.0000    total number of electrons
   NUPDOWN=      -1.0000    fix difference up-down

 DOS related values:
   EMIN   =  10.00;   EMAX   =-10.00  energy-range for DOS
   EFERMI =   0.00
   ISMEAR =    -5;   SIGMA  =   0.03  broadening in eV -4-tet -1-fermi 0-gaus

 Electronic relaxation 2 (details)
   IALGO  =     38    algorithm
   LDIAG  =      T    sub-space diagonalisation (order eigenvalues)
   LSUBROT=      F    optimize rotation matrix (better conditioning)
   TURBO    =      0    0=normal 1=particle mesh
   IRESTART =      0    0=no restart 2=restart with 2 vectors
   NREBOOT  =      0    no. of reboots
   NMIN     =      0    reboot dimension
   EREF     =   0.00    reference energy to select bands
   IMIX   =      4    mixing-type and parameters
     AMIX     =   0.40;   BMIX     =  1.00
     AMIX_MAG =   1.60;   BMIX_MAG =  1.00
     AMIN     =   0.10
     WC   =   100.;   INIMIX=   1;  MIXPRE=   1;  MAXMIX= -45

 Intra band minimization:
   WEIMIN = 0.0000     energy-eigenvalue tresh-hold
   EBREAK =  0.98E-11  absolut break condition
   DEPER  =   0.30     relativ break condition  

   TIME   =   0.40     timestep for ELM

  volume/ion in A,a.u.               =      17.92       120.96
  Fermi-wavevector in a.u.,A,eV,Ry     =   1.380592  2.608941 25.933179  1.906035
  Thomas-Fermi vector in A             =   2.505455
 
 Write flags
   LWAVE        =      T    write WAVECAR
   LDOWNSAMPLE  =      F    k-point downsampling of WAVECAR
   LCHARG       =      T    write CHGCAR
   LVTOT        =      F    write LOCPOT, total local potential
   LVHAR        =      F    write LOCPOT, Hartree potential only
   LELF         =      F    write electronic localiz. function (ELF)
   LORBIT       =     11    0 simple, 1 ext, 2 COOP (PROOUT), +10 PAW based schemes


 Dipole corrections
   LMONO  =      F    monopole corrections only (constant potential shift)
   LDIPOL =      F    correct potential (dipole corrections)
   IDIPOL =      0    1-x, 2-y, 3-z, 4-all directions 
   EPSILON=  1.0000000 bulk dielectric constant

 LDA+U is selected, type is set to LDAUTYPE =  2
   angular momentum for each species LDAUL =     2    2    2
   U (eV)           for each species LDAUU =   0.0  0.1  4.7
   J (eV)           for each species LDAUJ =   0.0  0.0  0.0
 Exchange correlation treatment:
   GGA     =    PS    GGA type
   LEXCH   =    14    internal setting for exchange type
   VOSKOWN=      0    Vosko Wilk Nusair interpolation
   LHFCALC =     F    Hartree Fock is set to
   LHFONE  =     F    Hartree Fock one center treatment
   AEXX    =    0.0000 exact exchange contribution

 Linear response parameters
   LEPSILON=     F    determine dielectric tensor
   LRPA    =     F    only Hartree local field effects (RPA)
   LNABLA  =     F    use nabla operator in PAW spheres
   LVEL    =     F    velocity operator in full k-point grid
   LINTERFAST=   F  fast interpolation
   KINTER  =     0    interpolate to denser k-point grid
   CSHIFT  =0.1000    complex shift for real part using Kramers Kronig
   OMEGAMAX=  -1.0    maximum frequency
   DEG_THRESHOLD= 0.2000000E-02 threshold for treating states as degnerate
   RTIME   =   -0.100 relaxation time in fs
  (WPLASMAI=    0.000 imaginary part of plasma frequency in eV, 0.658/RTIME)
   DFIELD  = 0.0000000 0.0000000 0.0000000 field for delta impulse in time
 
 Orbital magnetization related:
   ORBITALMAG=     F  switch on orbital magnetization
   LCHIMAG   =     F  perturbation theory with respect to B field
   DQ        =  0.001000  dq finite difference perturbation B field
   LLRAUG    =     F  two centre corrections for induced B field

 PEAD related settings:
   LPEAD      =     T    switch on PEAD
   IPEAD      =     4    finite difference order for dpsi/dk
   LCALCPOL   =     T    calculate macroscopic polarization
   LCALCEPS   =     F    calculate dielectric tensor
   EFIELD_PEAD=    0.0000    0.0000    0.0000
   SKIP_EDOTP =     F
   LRPA       =     F
   SKIP_SCF   =     F


--------------------------------------------------------------------------------------------------------


 Static calculation
 charge density and potential will be updated during run
 non collinear spin polarized calculation
 Variant of blocked Davidson
 Davidson routine will perform the subspace rotation
 perform sub-space diagonalisation
    after iterative eigenvector-optimisation
 modified Broyden-mixing scheme, WC =      100.0
 initial mixing is a Kerker type mixing with AMIX =  0.4000 and BMIX =      1.0000
 Hartree-type preconditioning will be used
 using additional bands          170
 reciprocal scheme for non local part
 use partial core corrections
 calculate Harris-corrections to forces 
   (improved forces if not selfconsistent)
 use gradient corrections 
 use of overlap-Matrix (Vanderbilt PP)
 Fermi weights with tetrahedron method with Bloechl corrections


--------------------------------------------------------------------------------------------------------


  energy-cutoff  :      700.00
  volume of cell :      286.79
      direct lattice vectors                 reciprocal lattice vectors
     5.248780000  0.000000000  0.229167000     0.190884343  0.000000000 -0.008334189
     0.000000000  5.269541745  0.000000000     0.000000000  0.189769822  0.000000000
     0.453573000  0.000000000 10.388531000    -0.004210835  0.000000000  0.096443850

  length of vectors
     5.253780449  5.269541745 10.398427997     0.191066196  0.189769822  0.096535730


 
 old parameters found on file WAVECAR:
  energy-cutoff  :      700.00
  volume of cell :      286.20
      direct lattice vectors                 reciprocal lattice vectors
     5.248780000  0.000000000  0.229167000     0.190884343  0.000000000 -0.008334189
     0.000000000  5.258786000  0.000000000     0.000000000  0.190157957  0.000000000
     0.453573000  0.000000000 10.388531000    -0.004210835  0.000000000  0.096443850

  length of vectors

 
 k-points in units of 2pi/SCALE and weight: Automatic mesh                          
   0.00000000  0.00000000  0.00000000       0.009
   0.03181406  0.00000000 -0.00138903       0.019
   0.06362811  0.00000000 -0.00277806       0.019
   0.09544217  0.00000000 -0.00416709       0.009
   0.00000000  0.03162830  0.00000000       0.009
   0.03181406  0.03162830 -0.00138903       0.019
   0.06362811  0.03162830 -0.00277806       0.019
   0.09544217  0.03162830 -0.00416709       0.009
   0.00000000  0.06325661  0.00000000       0.009
   0.03181406  0.06325661 -0.00138903       0.019
   0.06362811  0.06325661 -0.00277806       0.019
   0.09544217  0.06325661 -0.00416709       0.009
   0.00000000  0.09488491  0.00000000       0.009
   0.03181406  0.09488491 -0.00138903       0.019
   0.06362811  0.09488491 -0.00277806       0.019
   0.09544217  0.09488491 -0.00416709       0.009
   0.00000000 -0.06325661  0.00000000       0.009
   0.03181406 -0.06325661 -0.00138903       0.019
   0.06362811 -0.06325661 -0.00277806       0.019
   0.09544217 -0.06325661 -0.00416709       0.009
   0.00000000 -0.03162830  0.00000000       0.009
   0.03181406 -0.03162830 -0.00138903       0.019
   0.06362811 -0.03162830 -0.00277806       0.019
   0.09544217 -0.03162830 -0.00416709       0.009
  -0.00140361  0.00000000  0.03214795       0.019
   0.03041045  0.00000000  0.03075892       0.019
   0.06222450  0.00000000  0.02936989       0.019
   0.09403856  0.00000000  0.02798086       0.019
  -0.06503173  0.00000000  0.03492601       0.019
  -0.03321767  0.00000000  0.03353698       0.019
  -0.00140361  0.03162830  0.03214795       0.019
   0.03041045  0.03162830  0.03075892       0.019
   0.06222450  0.03162830  0.02936989       0.019
   0.09403856  0.03162830  0.02798086       0.019
  -0.06503173  0.03162830  0.03492601       0.019
  -0.03321767  0.03162830  0.03353698       0.019
  -0.00140361  0.06325661  0.03214795       0.019
   0.03041045  0.06325661  0.03075892       0.019
   0.06222450  0.06325661  0.02936989       0.019
   0.09403856  0.06325661  0.02798086       0.019
  -0.06503173  0.06325661  0.03492601       0.019
  -0.03321767  0.06325661  0.03353698       0.019
  -0.00140361  0.09488491  0.03214795       0.019
   0.03041045  0.09488491  0.03075892       0.019
   0.06222450  0.09488491  0.02936989       0.019
   0.09403856  0.09488491  0.02798086       0.019
  -0.06503173  0.09488491  0.03492601       0.019
  -0.03321767  0.09488491  0.03353698       0.019
  -0.00140361 -0.06325661  0.03214795       0.019
   0.03041045 -0.06325661  0.03075892       0.019
   0.06222450 -0.06325661  0.02936989       0.019
   0.09403856 -0.06325661  0.02798086       0.019
  -0.06503173 -0.06325661  0.03492601       0.019
  -0.03321767 -0.06325661  0.03353698       0.019
  -0.00140361 -0.03162830  0.03214795       0.019
   0.03041045 -0.03162830  0.03075892       0.019
   0.06222450 -0.03162830  0.02936989       0.019
   0.09403856 -0.03162830  0.02798086       0.019
  -0.06503173 -0.03162830  0.03492601       0.019
  -0.03321767 -0.03162830  0.03353698       0.019
 
 k-points in reciprocal lattice and weights: Automatic mesh                          
   0.00000000  0.00000000  0.00000000       0.009
   0.16666667  0.00000000 -0.00000000       0.019
   0.33333333  0.00000000 -0.00000000       0.019
   0.50000000  0.00000000  0.00000000       0.009
   0.00000000  0.16666667  0.00000000       0.009
   0.16666667  0.16666667 -0.00000000       0.019
   0.33333333  0.16666667 -0.00000000       0.019
   0.50000000  0.16666667  0.00000000       0.009
   0.00000000  0.33333333  0.00000000       0.009
   0.16666667  0.33333333 -0.00000000       0.019
   0.33333333  0.33333333 -0.00000000       0.019
   0.50000000  0.33333333  0.00000000       0.009
   0.00000000  0.50000000  0.00000000       0.009
   0.16666667  0.50000000 -0.00000000       0.019
   0.33333333  0.50000000 -0.00000000       0.019
   0.50000000  0.50000000  0.00000000       0.009
   0.00000000 -0.33333333  0.00000000       0.009
   0.16666667 -0.33333333 -0.00000000       0.019
   0.33333333 -0.33333333 -0.00000000       0.019
   0.50000000 -0.33333333  0.00000000       0.009
   0.00000000 -0.16666667  0.00000000       0.009
   0.16666667 -0.16666667 -0.00000000       0.019
   0.33333333 -0.16666667 -0.00000000       0.019
   0.50000000 -0.16666667  0.00000000       0.009
   0.00000000  0.00000000  0.33333333       0.019
   0.16666667  0.00000000  0.33333333       0.019
   0.33333333  0.00000000  0.33333333       0.019
   0.50000000  0.00000000  0.33333333       0.019
  -0.33333333  0.00000000  0.33333333       0.019
  -0.16666667  0.00000000  0.33333333       0.019
   0.00000000  0.16666667  0.33333333       0.019
   0.16666667  0.16666667  0.33333333       0.019
   0.33333333  0.16666667  0.33333333       0.019
   0.50000000  0.16666667  0.33333333       0.019
  -0.33333333  0.16666667  0.33333333       0.019
  -0.16666667  0.16666667  0.33333333       0.019
   0.00000000  0.33333333  0.33333333       0.019
   0.16666667  0.33333333  0.33333333       0.019
   0.33333333  0.33333333  0.33333333       0.019
   0.50000000  0.33333333  0.33333333       0.019
  -0.33333333  0.33333333  0.33333333       0.019
  -0.16666667  0.33333333  0.33333333       0.019
   0.00000000  0.50000000  0.33333333       0.019
   0.16666667  0.50000000  0.33333333       0.019
   0.33333333  0.50000000  0.33333333       0.019
   0.50000000  0.50000000  0.33333333       0.019
  -0.33333333  0.50000000  0.33333333       0.019
  -0.16666667  0.50000000  0.33333333       0.019
   0.00000000 -0.33333333  0.33333333       0.019
   0.16666667 -0.33333333  0.33333333       0.019
   0.33333333 -0.33333333  0.33333333       0.019
   0.50000000 -0.33333333  0.33333333       0.019
  -0.33333333 -0.33333333  0.33333333       0.019
  -0.16666667 -0.33333333  0.33333333       0.019
   0.00000000 -0.16666667  0.33333333       0.019
   0.16666667 -0.16666667  0.33333333       0.019
   0.33333333 -0.16666667  0.33333333       0.019
   0.50000000 -0.16666667  0.33333333       0.019
  -0.33333333 -0.16666667  0.33333333       0.019
  -0.16666667 -0.16666667  0.33333333       0.019
 
 position of ions in fractional coordinates (direct lattice) 
   0.25276659  0.23889125  0.12591605
   0.74723341  0.73889125  0.12408395
   0.25000000  0.74070451  0.87500000
   0.75000000  0.24466103  0.87500000
   0.24723341  0.23889125  0.62408395
   0.75276659  0.73889125  0.62591605
   0.75000000  0.24070451  0.37500000
   0.25000000  0.74466103  0.37500000
   0.99610049  0.00933237  0.50003316
   0.50389951  0.00933237  0.24996684
   0.49610049  0.50933237  0.00003316
   0.00389951  0.50933237  0.74996684
   0.99796409  0.00909361  0.00045100
   0.50203591  0.00909361  0.74954900
   0.49796409  0.50909361  0.50045100
   0.00203591  0.50909361  0.24954900
 
 position of ions in cartesian coordinates  (Angst):
   1.38382834  1.25884741  1.36600851
   3.97834491  3.89361829  1.46029124
   1.70907137  3.90317333  9.14725637
   4.33346137  1.28925153  9.26183987
   1.58074141  1.25884741  6.53997324
   4.23500484  3.89361829  6.67485751
   4.10667488  1.26840246  4.06757438
   1.48228487  3.92402240  3.95299088
   5.45511387  0.04917729  5.42288338
   2.75823588  0.04917729  2.71226537
   2.60393737  2.68394816  0.11403438
   0.36063238  2.68394816  7.79194737
   5.23829851  0.04791917  0.23338562
   2.97505124  0.04791917  7.90176313
   2.84069501  2.68269005  5.31306762
   0.12387474  2.68269005  2.59291413
 
 Euler angles ALPHA=     0.0000000  BETA=     0.0000000

 transformation matrix from SAXIS to cartesian coordinates
 ---------------------------------------------------------
     1.0000000 m_x     0.0000000 m_y     0.0000000 m_z
     0.0000000 m_x     1.0000000 m_y     0.0000000 m_z
     0.0000000 m_x     0.0000000 m_y     1.0000000 m_z

 transformation matrix from cartesian coordinates to SAXIS
 ---------------------------------------------------------
     1.0000000 m_x     0.0000000 m_y     0.0000000 m_z
     0.0000000 m_x     1.0000000 m_y     0.0000000 m_z
     0.0000000 m_x     0.0000000 m_y     1.0000000 m_z




--------------------------------------------------------------------------------------------------------


 k-point  1 :   0.0000 0.0000 0.0000  plane waves:   24130
 k-point  2 :   0.1667 0.0000-0.0000  plane waves:   24172
 k-point  3 :   0.3333 0.0000-0.0000  plane waves:   24114
 k-point  4 :   0.5000 0.0000 0.0000  plane waves:   24156
 k-point  5 :   0.0000 0.1667 0.0000  plane waves:   24146
 k-point  6 :   0.1667 0.1667-0.0000  plane waves:   24132
 k-point  7 :   0.3333 0.1667-0.0000  plane waves:   24130
 k-point  8 :   0.5000 0.1667 0.0000  plane waves:   24164
 k-point  9 :   0.0000 0.3333 0.0000  plane waves:   24122
 k-point 10 :   0.1667 0.3333-0.0000  plane waves:   24112
 k-point 11 :   0.3333 0.3333-0.0000  plane waves:   24122
 k-point 12 :   0.5000 0.3333 0.0000  plane waves:   24120
 k-point 13 :   0.0000 0.5000 0.0000  plane waves:   24148
 k-point 14 :   0.1667 0.5000-0.0000  plane waves:   24176
 k-point 15 :   0.3333 0.5000-0.0000  plane waves:   24084
 k-point 16 :   0.5000 0.5000 0.0000  plane waves:   24056
 k-point 17 :   0.0000-0.3333 0.0000  plane waves:   24122
 k-point 18 :   0.1667-0.3333-0.0000  plane waves:   24112
 k-point 19 :   0.3333-0.3333-0.0000  plane waves:   24122
 k-point 20 :   0.5000-0.3333 0.0000  plane waves:   24120
 k-point 21 :   0.0000-0.1667 0.0000  plane waves:   24146
 k-point 22 :   0.1667-0.1667-0.0000  plane waves:   24132
 k-point 23 :   0.3333-0.1667-0.0000  plane waves:   24130
 k-point 24 :   0.5000-0.1667 0.0000  plane waves:   24164
 k-point 25 :   0.0000 0.0000 0.3333  plane waves:   24116
 k-point 26 :   0.1667 0.0000 0.3333  plane waves:   24110
 k-point 27 :   0.3333 0.0000 0.3333  plane waves:   24150
 k-point 28 :   0.5000 0.0000 0.3333  plane waves:   24152
 k-point 29 :  -0.3333 0.0000 0.3333  plane waves:   24138
 k-point 30 :  -0.1667 0.0000 0.3333  plane waves:   24140
 k-point 31 :   0.0000 0.1667 0.3333  plane waves:   24144
 k-point 32 :   0.1667 0.1667 0.3333  plane waves:   24142
 k-point 33 :   0.3333 0.1667 0.3333  plane waves:   24108
 k-point 34 :   0.5000 0.1667 0.3333  plane waves:   24130
 k-point 35 :  -0.3333 0.1667 0.3333  plane waves:   24132
 k-point 36 :  -0.1667 0.1667 0.3333  plane waves:   24088
 k-point 37 :   0.0000 0.3333 0.3333  plane waves:   24122
 k-point 38 :   0.1667 0.3333 0.3333  plane waves:   24152
 k-point 39 :   0.3333 0.3333 0.3333  plane waves:   24094
 k-point 40 :   0.5000 0.3333 0.3333  plane waves:   24066
 k-point 41 :  -0.3333 0.3333 0.3333  plane waves:   24070
 k-point 42 :  -0.1667 0.3333 0.3333  plane waves:   24120
 k-point 43 :   0.0000 0.5000 0.3333  plane waves:   24144
 k-point 44 :   0.1667 0.5000 0.3333  plane waves:   24120
 k-point 45 :   0.3333 0.5000 0.3333  plane waves:   24096
 k-point 46 :   0.5000 0.5000 0.3333  plane waves:   24060
 k-point 47 :  -0.3333 0.5000 0.3333  plane waves:   24024
 k-point 48 :  -0.1667 0.5000 0.3333  plane waves:   24140
 k-point 49 :   0.0000-0.3333 0.3333  plane waves:   24122
 k-point 50 :   0.1667-0.3333 0.3333  plane waves:   24152
 k-point 51 :   0.3333-0.3333 0.3333  plane waves:   24094
 k-point 52 :   0.5000-0.3333 0.3333  plane waves:   24066
 k-point 53 :  -0.3333-0.3333 0.3333  plane waves:   24070
 k-point 54 :  -0.1667-0.3333 0.3333  plane waves:   24120
 k-point 55 :   0.0000-0.1667 0.3333  plane waves:   24144
 k-point 56 :   0.1667-0.1667 0.3333  plane waves:   24142
 k-point 57 :   0.3333-0.1667 0.3333  plane waves:   24108
 k-point 58 :   0.5000-0.1667 0.3333  plane waves:   24130
 k-point 59 :  -0.3333-0.1667 0.3333  plane waves:   24132
 k-point 60 :  -0.1667-0.1667 0.3333  plane waves:   24088

 maximum and minimum number of plane-waves per node :     24176    24024

 maximum number of plane-waves:     24176
 maximum index in each direction: 
   IXMAX=   11   IYMAX=   11   IZMAX=   22
   IXMIN=  -11   IYMIN=  -11   IZMIN=  -22


 serial   3D FFT for wavefunctions
 parallel 3D FFT for charge:
    minimum data exchange during FFTs selected (reduces bandwidth)


 total amount of memory used by VASP MPI-rank0   410429. kBytes
=======================================================================

   base      :      30000. kBytes
   nonl-proj :     321650. kBytes
   fftplans  :       2735. kBytes
   grid      :      30965. kBytes
   one-center:        995. kBytes
   wavefun   :      24084. kBytes
 
     INWAV:  cpu time   15.6521: real time   15.8209
 Broyden mixing: mesh for mixing (old mesh)
   NGX = 23   NGY = 23   NGZ = 45
  (NGX  = 96   NGY  = 96   NGZ  =180)
  gives a total of  23805 points

 initial charge density was supplied:
 number of electron     172.0000021 magnetization       0.0000000      0.0000080      0.0000000
 keeping initial charge density in first step


--------------------------------------------------------------------------------------------------------


 Maximum index for augmentation-charges          897 (set IRDMAX)


--------------------------------------------------------------------------------------------------------


 First call to EWALD:  gamma=   0.269
 Maximum number of real-space cells 3x 3x 2
 Maximum number of reciprocal cells 2x 2x 4

    FEWALD:  cpu time    0.0015: real time    0.0015


--------------------------------------- Iteration      1(   1)  ---------------------------------------


    POTLOK:  cpu time    0.2902: real time    0.3041
    SETDIJ:  cpu time    0.5921: real time    0.5940
     EDDAV:  cpu time   77.2054: real time   77.7691
 BZINTS: Fermi energy:  4.913933;172.000000 electrons
         Band energy:***********;  BLOECHL correction:  0.000000
       DOS:  cpu time    0.0405: real time    0.0407
    CHARGE:  cpu time    1.4715: real time    1.4831
    MIXING:  cpu time    0.0030: real time    0.0030
    --------------------------------------------
      LOOP:  cpu time   79.6027: real time   80.1940

 eigenvalue-minimisations  : 30720
 total energy-change (2. order) :-0.8205681E+02  (-0.1935763E+00)
 number of electron     172.0000021 magnetization       0.0000000      0.0004194      0.0000000
 augmentation part       70.5602275 magnetization       0.0000000     -0.0004521      0.0000000

 Broyden mixing:
  rms(total) = 0.79093E-01    rms(broyden)= 0.79093E-01
  rms(prec ) = 0.79153E-01
  weight for this iteration     100.00

 Free energy of the ion-electron system (eV)
  ---------------------------------------------------
  alpha Z        PSCENC =       590.84963136
  Ewald energy   TEWEN  =    -15640.61295655
  -Hartree energ DENC   =    -10724.44901281
  -exchange      EXHF   =         0.00000000
  -V(xc)+E(xc)   XCENC  =       821.63393021
  PAW double counting   =     28054.14320377   -28977.29728747
  entropy T*S    EENTRO =         0.00000000
  eigenvalues    EBANDS =     -2711.34059243
  atomic energy  EATOM  =     28505.01627691
  Solvation  Ediel_sol  =         0.00000000
  ---------------------------------------------------
  free energy    TOTEN  =       -82.05680701 eV

  energy without entropy =      -82.05680701  energy(sigma->0) =      -82.05680701


--------------------------------------------------------------------------------------------------------




--------------------------------------- Iteration      1(   2)  ---------------------------------------


    POTLOK:  cpu time    0.1277: real time    0.1320
    SETDIJ:  cpu time    0.5897: real time    0.5915
     EDDAV:  cpu time   79.1018: real time   79.5164
 BZINTS: Fermi energy:  4.981284;172.000000 electrons
         Band energy:***********;  BLOECHL correction:  0.000000
       DOS:  cpu time    0.0403: real time    0.0405
    CHARGE:  cpu time    1.4633: real time    1.4749
    MIXING:  cpu time    0.0020: real time    0.0020
    --------------------------------------------
      LOOP:  cpu time   81.3248: real time   81.7574

 eigenvalue-minimisations  : 30720
 total energy-change (2. order) :-0.9023588E-02  (-0.6614104E-02)
 number of electron     172.0000021 magnetization       0.0000000      0.0005065      0.0000000
 augmentation part       70.5610019 magnetization       0.0000000     -0.0005294      0.0000000

 Broyden mixing:
  rms(total) = 0.47301E-01    rms(broyden)= 0.47301E-01
  rms(prec ) = 0.47591E-01
  weight for this iteration     100.00

 eigenvalues of (default mixing * dielectric matrix)
  average eigenvalue GAMMA=   0.6356
  0.6356

 Free energy of the ion-electron system (eV)
  ---------------------------------------------------
  alpha Z        PSCENC =       590.84963136
  Ewald energy   TEWEN  =    -15640.61295655
  -Hartree energ DENC   =    -10724.17444492
  -exchange      EXHF   =         0.00000000
  -V(xc)+E(xc)   XCENC  =       821.62033711
  PAW double counting   =     28054.94253499   -28978.07143990
  entropy T*S    EENTRO =         0.00000000
  eigenvalues    EBANDS =     -2711.63576959
  atomic energy  EATOM  =     28505.01627691
  Solvation  Ediel_sol  =         0.00000000
  ---------------------------------------------------
  free energy    TOTEN  =       -82.06583060 eV

  energy without entropy =      -82.06583060  energy(sigma->0) =      -82.06583060


--------------------------------------------------------------------------------------------------------




--------------------------------------- Iteration      1(   3)  ---------------------------------------


    POTLOK:  cpu time    0.1310: real time    0.1330
    SETDIJ:  cpu time    0.5901: real time    0.5919
     EDDAV:  cpu time  331.0466: real time  332.6062
 BZINTS: Fermi energy:  5.112297;172.000000 electrons
         Band energy:***********;  BLOECHL correction:  0.000000
       DOS:  cpu time    0.0412: real time    0.0414
    CHARGE:  cpu time    1.4686: real time    1.4805
    MIXING:  cpu time    0.0016: real time    0.0016
    --------------------------------------------
      LOOP:  cpu time  333.2794: real time  334.8547

 eigenvalue-minimisations  : 57600
 total energy-change (2. order) :-0.1171308E-02  (-0.1702365E-02)
 number of electron     172.0000021 magnetization       0.0000000      0.0005471      0.0000000
 augmentation part       70.5620794 magnetization       0.0000000     -0.0004323      0.0000000

 Broyden mixing:
  rms(total) = 0.14181E-01    rms(broyden)= 0.14181E-01
  rms(prec ) = 0.15212E-01
  weight for this iteration     100.00

 eigenvalues of (default mixing * dielectric matrix)
  average eigenvalue GAMMA=   0.5900
  0.6662  0.5138

 Free energy of the ion-electron system (eV)
  ---------------------------------------------------
  alpha Z        PSCENC =       590.84963136
  Ewald energy   TEWEN  =    -15640.61295655
  -Hartree energ DENC   =    -10724.34466001
  -exchange      EXHF   =         0.00000000
  -V(xc)+E(xc)   XCENC  =       821.62871987
  PAW double counting   =     28055.69250459   -28978.84059110
  entropy T*S    EENTRO =         0.00000000
  eigenvalues    EBANDS =     -2711.45592697
  atomic energy  EATOM  =     28505.01627691
  Solvation  Ediel_sol  =         0.00000000
  ---------------------------------------------------
  free energy    TOTEN  =       -82.06700191 eV

  energy without entropy =      -82.06700191  energy(sigma->0) =      -82.06700191


--------------------------------------------------------------------------------------------------------




--------------------------------------- Iteration      1(   4)  ---------------------------------------


    POTLOK:  cpu time    0.1312: real time    0.1322
    SETDIJ:  cpu time    0.5897: real time    0.5915
     EDDAV:  cpu time   83.6111: real time   84.0516
 BZINTS: Fermi energy:  5.098777;172.000000 electrons
         Band energy:***********;  BLOECHL correction:  0.000000
       DOS:  cpu time    0.0414: real time    0.0415
    CHARGE:  cpu time    1.4664: real time    1.4784
    MIXING:  cpu time    0.0018: real time    0.0018
    --------------------------------------------
      LOOP:  cpu time   85.8413: real time   86.2968

 eigenvalue-minimisations  : 31232
 total energy-change (2. order) :-0.4635864E-04  (-0.2811140E-02)
 number of electron     172.0000021 magnetization       0.0000000      0.0001733      0.0000000
 augmentation part       70.5610029 magnetization       0.0000000      0.0001240      0.0000000

 Broyden mixing:
  rms(total) = 0.14159E-01    rms(broyden)= 0.14159E-01
  rms(prec ) = 0.14754E-01
  weight for this iteration     100.00

 eigenvalues of (default mixing * dielectric matrix)
  average eigenvalue GAMMA=   0.7567
  1.3583  0.6268  0.2849

 Free energy of the ion-electron system (eV)
  ---------------------------------------------------
  alpha Z        PSCENC =       590.84963136
  Ewald energy   TEWEN  =    -15640.61295655
  -Hartree energ DENC   =    -10724.18462271
  -exchange      EXHF   =         0.00000000
  -V(xc)+E(xc)   XCENC  =       821.61818935
  PAW double counting   =     28056.20291028   -28979.35693324
  entropy T*S    EENTRO =         0.00000000
  eigenvalues    EBANDS =     -2711.59954366
  atomic energy  EATOM  =     28505.01627691
  Solvation  Ediel_sol  =         0.00000000
  ---------------------------------------------------
  free energy    TOTEN  =       -82.06704827 eV

  energy without entropy =      -82.06704827  energy(sigma->0) =      -82.06704827


--------------------------------------------------------------------------------------------------------




--------------------------------------- Iteration      1(   5)  ---------------------------------------


    POTLOK:  cpu time    0.1323: real time    0.1332
    SETDIJ:  cpu time    0.5898: real time    0.5917
     EDDAV:  cpu time  361.7289: real time  363.4603
 BZINTS: Fermi energy:  5.093116;172.000000 electrons
         Band energy:***********;  BLOECHL correction:  0.000000
       DOS:  cpu time    0.0414: real time    0.0416
 


 total charge     
 
# of ion       s       p       d       tot
------------------------------------------
    1        1.315   2.407   0.000   3.722
    2        1.315   2.407   0.000   3.722
    3        1.316   2.403   0.000   3.719
    4        1.313   2.412   0.000   3.725
    5        1.315   2.407   0.000   3.722
    6        1.315   2.407   0.000   3.722
    7        1.316   2.403   0.000   3.719
    8        1.313   2.412   0.000   3.725
    9        0.259   6.202   8.917  15.378
   10        0.259   6.202   8.917  15.378
   11        0.259   6.202   8.917  15.378
   12        0.259   6.202   8.917  15.378
   13        0.348   6.349   5.824  12.521
   14        0.348   6.349   5.824  12.521
   15        0.348   6.349   5.824  12.521
   16        0.348   6.349   5.824  12.521
--------------------------------------------------
tot         12.943  69.461  58.963 141.367
 


 magnetization (x)
 
# of ion       s       p       d       tot
------------------------------------------
    1       -0.000  -0.000   0.000  -0.000
    2        0.000  -0.000   0.000   0.000
    3       -0.000  -0.000   0.000  -0.000
    4       -0.000  -0.000   0.000  -0.000
    5        0.000  -0.000   0.000   0.000
    6       -0.000  -0.000   0.000  -0.000
    7       -0.000  -0.000   0.000  -0.000
    8       -0.000  -0.000   0.000  -0.000
    9        0.000  -0.000   0.000   0.000
   10        0.000   0.000  -0.000  -0.000
   11        0.000  -0.000   0.000   0.000
   12        0.000   0.000  -0.000  -0.000
   13       -0.000  -0.000   0.000   0.000
   14       -0.000   0.000  -0.000  -0.000
   15       -0.000  -0.000   0.000   0.000
   16       -0.000   0.000  -0.000  -0.000
--------------------------------------------------
tot         -0.000  -0.000  -0.000  -0.001
 


 magnetization (y)
 
# of ion       s       p       d       tot
------------------------------------------
    1       -0.000  -0.000   0.000  -0.000
    2       -0.000  -0.000   0.000  -0.000
    3       -0.000  -0.000   0.000  -0.000
    4        0.000   0.000   0.000   0.000
    5       -0.000  -0.000   0.000  -0.000
    6       -0.000  -0.000   0.000  -0.000
    7       -0.000  -0.000   0.000  -0.000
    8        0.000   0.000   0.000   0.000
    9       -0.000   0.000  -0.000  -0.000
   10       -0.000   0.000  -0.000  -0.000
   11       -0.000   0.000  -0.000  -0.000
   12       -0.000   0.000  -0.000  -0.000
   13        0.000   0.000  -0.000  -0.000
   14        0.000   0.000  -0.000  -0.000
   15        0.000   0.000  -0.000  -0.000
   16        0.000   0.000  -0.000  -0.000
--------------------------------------------------
tot         -0.000  -0.000  -0.002  -0.002
 


 magnetization (z)
 
# of ion       s       p       d       tot
------------------------------------------
    1       -0.000  -0.022   0.000  -0.022
    2        0.000   0.022   0.000   0.022
    3        0.000   0.000   0.000   0.000
    4       -0.000  -0.000   0.000  -0.000
    5        0.000   0.022   0.000   0.022
    6       -0.000  -0.022   0.000  -0.022
    7        0.000   0.000   0.000   0.000
    8       -0.000  -0.000   0.000  -0.000
    9        0.000   0.001  -0.003  -0.002
   10       -0.000  -0.001   0.003   0.002
   11        0.000   0.001  -0.003  -0.002
   12       -0.000  -0.001   0.003   0.002
   13        0.020   0.054   3.661   3.736
   14       -0.020  -0.054  -3.661  -3.736
   15        0.020   0.054   3.661   3.736
   16       -0.020  -0.054  -3.661  -3.736
--------------------------------------------------
tot         -0.000  -0.000   0.000   0.000
 
    CHARGE:  cpu time    1.6616: real time    1.6744
    MIXING:  cpu time    0.0018: real time    0.0018
    --------------------------------------------
      LOOP:  cpu time  364.1558: real time  365.9030

 eigenvalue-minimisations  : 59648
 total energy-change (2. order) :-0.3354525E-03  (-0.2425912E-02)
 number of electron     172.0000021 magnetization       0.0000000      0.0001295      0.0000000
 augmentation part       70.5617471 magnetization       0.0000000     -0.0015113      0.0000000

 Broyden mixing:
  rms(total) = 0.75551E-02    rms(broyden)= 0.75550E-02
  rms(prec ) = 0.78452E-02
  weight for this iteration     100.00

 eigenvalues of (default mixing * dielectric matrix)
  average eigenvalue GAMMA=   0.7197
  1.5794  0.6309  0.3833  0.2853

 Free energy of the ion-electron system (eV)
  ---------------------------------------------------
  alpha Z        PSCENC =       590.84963136
  Ewald energy   TEWEN  =    -15640.61295655
  -Hartree energ DENC   =    -10724.21090315
  -exchange      EXHF   =         0.00000000
  -V(xc)+E(xc)   XCENC  =       821.61637958
  PAW double counting   =     28057.44332449   -28980.60709291
  entropy T*S    EENTRO =         0.00000000
  eigenvalues    EBANDS =     -2711.56204345
  atomic energy  EATOM  =     28505.01627691
  Solvation  Ediel_sol  =         0.00000000
  ---------------------------------------------------
  free energy    TOTEN  =       -82.06738372 eV

  energy without entropy =      -82.06738372  energy(sigma->0) =      -82.06738372


--------------------------------------------------------------------------------------------------------




--------------------------------------- Iteration      1(   6)  ---------------------------------------


    POTLOK:  cpu time    0.1343: real time    0.1353
    SETDIJ:  cpu time    0.5877: real time    0.5895
     EDDAV:  cpu time   79.7192: real time   80.1466
 BZINTS: Fermi energy:  5.093933;172.000000 electrons
         Band energy:***********;  BLOECHL correction:  0.000000
       DOS:  cpu time    0.0415: real time    0.0416
    CHARGE:  cpu time    1.4758: real time    1.4876
    MIXING:  cpu time    0.0020: real time    0.0020
    --------------------------------------------
      LOOP:  cpu time   81.9605: real time   82.4026

 eigenvalue-minimisations  : 30720
 total energy-change (2. order) : 0.1528878E-03  (-0.1801765E-02)
 number of electron     172.0000021 magnetization       0.0000000     -0.0004703      0.0000000
 augmentation part       70.5616334 magnetization       0.0000000      0.0009707      0.0000000

 Broyden mixing:
  rms(total) = 0.55604E-02    rms(broyden)= 0.55603E-02
  rms(prec ) = 0.55672E-02
  weight for this iteration     100.00

 eigenvalues of (default mixing * dielectric matrix)
  average eigenvalue GAMMA=   0.7663
  1.8767  0.8064  0.6211  0.3079  0.2196

 Free energy of the ion-electron system (eV)
  ---------------------------------------------------
  alpha Z        PSCENC =       590.84963136
  Ewald energy   TEWEN  =    -15640.61295655
  -Hartree energ DENC   =    -10724.26599753
  -exchange      EXHF   =         0.00000000
  -V(xc)+E(xc)   XCENC  =       821.61927107
  PAW double counting   =     28057.81390474   -28980.98152349
  entropy T*S    EENTRO =         0.00000000
  eigenvalues    EBANDS =     -2711.50583734
  atomic energy  EATOM  =     28505.01627691
  Solvation  Ediel_sol  =         0.00000000
  ---------------------------------------------------
  free energy    TOTEN  =       -82.06723083 eV

  energy without entropy =      -82.06723083  energy(sigma->0) =      -82.06723083


--------------------------------------------------------------------------------------------------------




--------------------------------------- Iteration      1(   7)  ---------------------------------------


    POTLOK:  cpu time    0.1318: real time    0.1326
    SETDIJ:  cpu time    0.5895: real time    0.5913
     EDDAV:  cpu time  196.5357: real time  197.5106
 BZINTS: Fermi energy:  5.093417;172.000000 electrons
         Band energy:***********;  BLOECHL correction:  0.000000
       DOS:  cpu time    0.0415: real time    0.0416
    CHARGE:  cpu time    1.5724: real time    1.5843
    MIXING:  cpu time    0.0021: real time    0.0021
    --------------------------------------------
      LOOP:  cpu time  198.8731: real time  199.8626

 eigenvalue-minimisations  : 42752
 total energy-change (2. order) :-0.1788763E-04  (-0.8458391E-03)
 number of electron     172.0000021 magnetization       0.0000000     -0.0006052      0.0000000
 augmentation part       70.5612222 magnetization       0.0000000     -0.0019248      0.0000000

 Broyden mixing:
  rms(total) = 0.29757E-02    rms(broyden)= 0.29757E-02
  rms(prec ) = 0.30020E-02
  weight for this iteration     100.00

 eigenvalues of (default mixing * dielectric matrix)
  average eigenvalue GAMMA=   0.7173
  1.9516  0.9114  0.6223  0.3046  0.2969  0.2171

 Free energy of the ion-electron system (eV)
  ---------------------------------------------------
  alpha Z        PSCENC =       590.84963136
  Ewald energy   TEWEN  =    -15640.61295655
  -Hartree energ DENC   =    -10724.28365445
  -exchange      EXHF   =         0.00000000
  -V(xc)+E(xc)   XCENC  =       821.61960685
  PAW double counting   =     28058.07919926   -28981.24847054
  entropy T*S    EENTRO =         0.00000000
  eigenvalues    EBANDS =     -2711.48688155
  atomic energy  EATOM  =     28505.01627691
  Solvation  Ediel_sol  =         0.00000000
  ---------------------------------------------------
  free energy    TOTEN  =       -82.06724872 eV

  energy without entropy =      -82.06724872  energy(sigma->0) =      -82.06724872


--------------------------------------------------------------------------------------------------------




--------------------------------------- Iteration      1(   8)  ---------------------------------------


    POTLOK:  cpu time    0.1418: real time    0.1426
    SETDIJ:  cpu time    0.5901: real time    0.5919
     EDDAV:  cpu time   85.0445: real time   85.4960
 BZINTS: Fermi energy:  5.093288;172.000000 electrons
         Band energy:***********;  BLOECHL correction:  0.000000
       DOS:  cpu time    0.0416: real time    0.0417
    CHARGE:  cpu time    1.4726: real time    1.4841
    MIXING:  cpu time    0.0022: real time    0.0022
    --------------------------------------------
      LOOP:  cpu time   87.2927: real time   87.7585

 eigenvalue-minimisations  : 31232
 total energy-change (2. order) :-0.1105058E-03  (-0.5890085E-03)
 number of electron     172.0000021 magnetization       0.0000000     -0.0009502      0.0000000
 augmentation part       70.5613519 magnetization       0.0000000      0.0003604      0.0000000

 Broyden mixing:
  rms(total) = 0.26954E-02    rms(broyden)= 0.26954E-02
  rms(prec ) = 0.26978E-02
  weight for this iteration     100.00

 eigenvalues of (default mixing * dielectric matrix)
  average eigenvalue GAMMA=   0.7065
  2.0571  1.0708  0.6214  0.5014  0.3066  0.2211  0.1670

 Free energy of the ion-electron system (eV)
  ---------------------------------------------------
  alpha Z        PSCENC =       590.84963136
  Ewald energy   TEWEN  =    -15640.61295655
  -Hartree energ DENC   =    -10724.27096939
  -exchange      EXHF   =         0.00000000
  -V(xc)+E(xc)   XCENC  =       821.61891864
  PAW double counting   =     28058.08550877   -28981.25326312
  entropy T*S    EENTRO =         0.00000000
  eigenvalues    EBANDS =     -2711.50050584
  atomic energy  EATOM  =     28505.01627691
  Solvation  Ediel_sol  =         0.00000000
  ---------------------------------------------------
  free energy    TOTEN  =       -82.06735923 eV

  energy without entropy =      -82.06735923  energy(sigma->0) =      -82.06735923


--------------------------------------------------------------------------------------------------------




--------------------------------------- Iteration      1(   9)  ---------------------------------------


    POTLOK:  cpu time    0.1307: real time    0.1331
    SETDIJ:  cpu time    0.5882: real time    0.5901
     EDDAV:  cpu time  189.8135: real time  190.7566
 BZINTS: Fermi energy:  5.093219;172.000000 electrons
         Band energy:***********;  BLOECHL correction:  0.000000
       DOS:  cpu time    0.0415: real time    0.0417
    CHARGE:  cpu time    1.4691: real time    1.4806
    MIXING:  cpu time    0.0024: real time    0.0024
    --------------------------------------------
      LOOP:  cpu time  192.0455: real time  193.0044

 eigenvalue-minimisations  : 41984
 total energy-change (2. order) : 0.5509570E-04  (-0.2538666E-03)
 number of electron     172.0000021 magnetization       0.0000000     -0.0012306      0.0000000
 augmentation part       70.5614942 magnetization       0.0000000     -0.0011898      0.0000000

 Broyden mixing:
  rms(total) = 0.13192E-02    rms(broyden)= 0.13192E-02
  rms(prec ) = 0.13351E-02
  weight for this iteration     100.00

 eigenvalues of (default mixing * dielectric matrix)
  average eigenvalue GAMMA=   0.6916
  2.1634  1.1825  0.6112  0.6112  0.2898  0.2898  0.2313  0.1535

 Free energy of the ion-electron system (eV)
  ---------------------------------------------------
  alpha Z        PSCENC =       590.84963136
  Ewald energy   TEWEN  =    -15640.61295655
  -Hartree energ DENC   =    -10724.26202084
  -exchange      EXHF   =         0.00000000
  -V(xc)+E(xc)   XCENC  =       821.61850791
  PAW double counting   =     28058.07194638   -28981.23851576
  entropy T*S    EENTRO =         0.00000000
  eigenvalues    EBANDS =     -2711.51017353
  atomic energy  EATOM  =     28505.01627691
  Solvation  Ediel_sol  =         0.00000000
  ---------------------------------------------------
  free energy    TOTEN  =       -82.06730413 eV

  energy without entropy =      -82.06730413  energy(sigma->0) =      -82.06730413


--------------------------------------------------------------------------------------------------------




--------------------------------------- Iteration      1(  10)  ---------------------------------------


    POTLOK:  cpu time    0.1318: real time    0.1328
    SETDIJ:  cpu time    0.5882: real time    0.5900
     EDDAV:  cpu time  106.7353: real time  107.2913
 BZINTS: Fermi energy:  5.093394;172.000000 electrons
         Band energy:***********;  BLOECHL correction:  0.000000
       DOS:  cpu time    0.0414: real time    0.0416
 


 total charge     
 
# of ion       s       p       d       tot
------------------------------------------
    1        1.315   2.407   0.000   3.722
    2        1.314   2.407   0.000   3.722
    3        1.316   2.402   0.000   3.718
    4        1.313   2.412   0.000   3.725
    5        1.314   2.407   0.000   3.722
    6        1.315   2.407   0.000   3.722
    7        1.316   2.402   0.000   3.718
    8        1.313   2.412   0.000   3.725
    9        0.259   6.202   8.916  15.377
   10        0.259   6.202   8.916  15.377
[...]
     0.0000000     0.0000000     0.0000000     0.0000000     0.0000000     0.0000000     0.0000000

 Ion:    5  E_soc:     -0.0017412
 l=   1
     0.0000000    -0.0002491    -0.0003667
    -0.0002491     0.0000000    -0.0002548
    -0.0003667    -0.0002548     0.0000000
 l=   2
     0.0000000     0.0000000     0.0000000     0.0000000     0.0000000
     0.0000000     0.0000000     0.0000000     0.0000000     0.0000000
     0.0000000     0.0000000     0.0000000     0.0000000     0.0000000
     0.0000000     0.0000000     0.0000000     0.0000000     0.0000000
     0.0000000     0.0000000     0.0000000     0.0000000     0.0000000
 l=   3
     0.0000000     0.0000000     0.0000000     0.0000000     0.0000000     0.0000000     0.0000000
     0.0000000     0.0000000     0.0000000     0.0000000     0.0000000     0.0000000     0.0000000
     0.0000000     0.0000000     0.0000000     0.0000000     0.0000000     0.0000000     0.0000000
     0.0000000     0.0000000     0.0000000     0.0000000     0.0000000     0.0000000     0.0000000
     0.0000000     0.0000000     0.0000000     0.0000000     0.0000000     0.0000000     0.0000000
     0.0000000     0.0000000     0.0000000     0.0000000     0.0000000     0.0000000     0.0000000
     0.0000000     0.0000000     0.0000000     0.0000000     0.0000000     0.0000000     0.0000000

 Ion:    6  E_soc:     -0.0017412
 l=   1
     0.0000000    -0.0002491    -0.0003667
    -0.0002491     0.0000000    -0.0002548
    -0.0003667    -0.0002548     0.0000000
 l=   2
     0.0000000     0.0000000     0.0000000     0.0000000     0.0000000
     0.0000000     0.0000000     0.0000000     0.0000000     0.0000000
     0.0000000     0.0000000     0.0000000     0.0000000     0.0000000
     0.0000000     0.0000000     0.0000000     0.0000000     0.0000000
     0.0000000     0.0000000     0.0000000     0.0000000     0.0000000
 l=   3
     0.0000000     0.0000000     0.0000000     0.0000000     0.0000000     0.0000000     0.0000000
     0.0000000     0.0000000     0.0000000     0.0000000     0.0000000     0.0000000     0.0000000
     0.0000000     0.0000000     0.0000000     0.0000000     0.0000000     0.0000000     0.0000000
     0.0000000     0.0000000     0.0000000     0.0000000     0.0000000     0.0000000     0.0000000
     0.0000000     0.0000000     0.0000000     0.0000000     0.0000000     0.0000000     0.0000000
     0.0000000     0.0000000     0.0000000     0.0000000     0.0000000     0.0000000     0.0000000
     0.0000000     0.0000000     0.0000000     0.0000000     0.0000000     0.0000000     0.0000000

 Ion:    7  E_soc:     -0.0017806
 l=   1
     0.0000000    -0.0002536    -0.0003883
    -0.0002536     0.0000000    -0.0002484
    -0.0003883    -0.0002484     0.0000000
 l=   2
     0.0000000     0.0000000     0.0000000     0.0000000     0.0000000
     0.0000000     0.0000000     0.0000000     0.0000000     0.0000000
     0.0000000     0.0000000     0.0000000     0.0000000     0.0000000
     0.0000000     0.0000000     0.0000000     0.0000000     0.0000000
     0.0000000     0.0000000     0.0000000     0.0000000     0.0000000
 l=   3
     0.0000000     0.0000000     0.0000000     0.0000000     0.0000000     0.0000000     0.0000000
     0.0000000     0.0000000     0.0000000     0.0000000     0.0000000     0.0000000     0.0000000
     0.0000000     0.0000000     0.0000000     0.0000000     0.0000000     0.0000000     0.0000000
     0.0000000     0.0000000     0.0000000     0.0000000     0.0000000     0.0000000     0.0000000
     0.0000000     0.0000000     0.0000000     0.0000000     0.0000000     0.0000000     0.0000000
     0.0000000     0.0000000     0.0000000     0.0000000     0.0000000     0.0000000     0.0000000
     0.0000000     0.0000000     0.0000000     0.0000000     0.0000000     0.0000000     0.0000000

 Ion:    8  E_soc:     -0.0016912
 l=   1
     0.0000000    -0.0002539    -0.0003428
    -0.0002539     0.0000000    -0.0002489
    -0.0003428    -0.0002489     0.0000000
 l=   2
     0.0000000     0.0000000     0.0000000     0.0000000     0.0000000
     0.0000000     0.0000000     0.0000000     0.0000000     0.0000000
     0.0000000     0.0000000     0.0000000     0.0000000     0.0000000
     0.0000000     0.0000000     0.0000000     0.0000000     0.0000000
     0.0000000     0.0000000     0.0000000     0.0000000     0.0000000
 l=   3
     0.0000000     0.0000000     0.0000000     0.0000000     0.0000000     0.0000000     0.0000000
     0.0000000     0.0000000     0.0000000     0.0000000     0.0000000     0.0000000     0.0000000
     0.0000000     0.0000000     0.0000000     0.0000000     0.0000000     0.0000000     0.0000000
     0.0000000     0.0000000     0.0000000     0.0000000     0.0000000     0.0000000     0.0000000
     0.0000000     0.0000000     0.0000000     0.0000000     0.0000000     0.0000000     0.0000000
     0.0000000     0.0000000     0.0000000     0.0000000     0.0000000     0.0000000     0.0000000
     0.0000000     0.0000000     0.0000000     0.0000000     0.0000000     0.0000000     0.0000000

 Ion:    9  E_soc:     -0.0618537
 l=   1
     0.0000000    -0.0085628    -0.0085528
    -0.0085628     0.0000000    -0.0085629
    -0.0085528    -0.0085629     0.0000000
 l=   2
     0.0000000    -0.0004016     0.0000000    -0.0003986    -0.0013551
    -0.0004016     0.0000000    -0.0010672    -0.0002961    -0.0003395
     0.0000000    -0.0010672     0.0000000    -0.0010548     0.0000000
    -0.0003986    -0.0002961    -0.0010548     0.0000000    -0.0003355
    -0.0013551    -0.0003395     0.0000000    -0.0003355     0.0000000
 l=   3
     0.0000000     0.0000000     0.0000000     0.0000000     0.0000000     0.0000000     0.0000000
     0.0000000     0.0000000     0.0000000     0.0000000     0.0000000     0.0000000     0.0000000
     0.0000000     0.0000000     0.0000000     0.0000000     0.0000000     0.0000000     0.0000000
     0.0000000     0.0000000     0.0000000     0.0000000     0.0000000     0.0000000     0.0000000
     0.0000000     0.0000000     0.0000000     0.0000000     0.0000000     0.0000000     0.0000000
     0.0000000     0.0000000     0.0000000     0.0000000     0.0000000     0.0000000     0.0000000
     0.0000000     0.0000000     0.0000000     0.0000000     0.0000000     0.0000000     0.0000000

 Ion:   10  E_soc:     -0.0618537
 l=   1
     0.0000000    -0.0085628    -0.0085528
    -0.0085628     0.0000000    -0.0085629
    -0.0085528    -0.0085629     0.0000000
 l=   2
     0.0000000    -0.0004016     0.0000000    -0.0003986    -0.0013551
    -0.0004016     0.0000000    -0.0010672    -0.0002961    -0.0003395
     0.0000000    -0.0010672     0.0000000    -0.0010548     0.0000000
    -0.0003986    -0.0002961    -0.0010548     0.0000000    -0.0003355
    -0.0013551    -0.0003395     0.0000000    -0.0003355     0.0000000
 l=   3
     0.0000000     0.0000000     0.0000000     0.0000000     0.0000000     0.0000000     0.0000000
     0.0000000     0.0000000     0.0000000     0.0000000     0.0000000     0.0000000     0.0000000
     0.0000000     0.0000000     0.0000000     0.0000000     0.0000000     0.0000000     0.0000000
     0.0000000     0.0000000     0.0000000     0.0000000     0.0000000     0.0000000     0.0000000
     0.0000000     0.0000000     0.0000000     0.0000000     0.0000000     0.0000000     0.0000000
     0.0000000     0.0000000     0.0000000     0.0000000     0.0000000     0.0000000     0.0000000
     0.0000000     0.0000000     0.0000000     0.0000000     0.0000000     0.0000000     0.0000000

 Ion:   11  E_soc:     -0.0618537
 l=   1
     0.0000000    -0.0085628    -0.0085528
    -0.0085628     0.0000000    -0.0085629
    -0.0085528    -0.0085629     0.0000000
 l=   2
     0.0000000    -0.0004016     0.0000000    -0.0003986    -0.0013551
    -0.0004016     0.0000000    -0.0010672    -0.0002961    -0.0003395
     0.0000000    -0.0010672     0.0000000    -0.0010548     0.0000000
    -0.0003986    -0.0002961    -0.0010548     0.0000000    -0.0003355
    -0.0013551    -0.0003395     0.0000000    -0.0003355     0.0000000
 l=   3
     0.0000000     0.0000000     0.0000000     0.0000000     0.0000000     0.0000000     0.0000000
     0.0000000     0.0000000     0.0000000     0.0000000     0.0000000     0.0000000     0.0000000
     0.0000000     0.0000000     0.0000000     0.0000000     0.0000000     0.0000000     0.0000000
     0.0000000     0.0000000     0.0000000     0.0000000     0.0000000     0.0000000     0.0000000
     0.0000000     0.0000000     0.0000000     0.0000000     0.0000000     0.0000000     0.0000000
     0.0000000     0.0000000     0.0000000     0.0000000     0.0000000     0.0000000     0.0000000
     0.0000000     0.0000000     0.0000000     0.0000000     0.0000000     0.0000000     0.0000000

 Ion:   12  E_soc:     -0.0618537
 l=   1
     0.0000000    -0.0085628    -0.0085528
    -0.0085628     0.0000000    -0.0085629
    -0.0085528    -0.0085629     0.0000000
 l=   2
     0.0000000    -0.0004016     0.0000000    -0.0003986    -0.0013551
    -0.0004016     0.0000000    -0.0010672    -0.0002961    -0.0003395
     0.0000000    -0.0010672     0.0000000    -0.0010548     0.0000000
    -0.0003986    -0.0002961    -0.0010548     0.0000000    -0.0003355
    -0.0013551    -0.0003395     0.0000000    -0.0003355     0.0000000
 l=   3
     0.0000000     0.0000000     0.0000000     0.0000000     0.0000000     0.0000000     0.0000000
     0.0000000     0.0000000     0.0000000     0.0000000     0.0000000     0.0000000     0.0000000
     0.0000000     0.0000000     0.0000000     0.0000000     0.0000000     0.0000000     0.0000000
     0.0000000     0.0000000     0.0000000     0.0000000     0.0000000     0.0000000     0.0000000
     0.0000000     0.0000000     0.0000000     0.0000000     0.0000000     0.0000000     0.0000000
     0.0000000     0.0000000     0.0000000     0.0000000     0.0000000     0.0000000     0.0000000
     0.0000000     0.0000000     0.0000000     0.0000000     0.0000000     0.0000000     0.0000000

 Ion:   13  E_soc:     -0.0364589
 l=   1
     0.0000000    -0.0042807    -0.0043111
    -0.0042807     0.0000000    -0.0042794
    -0.0043111    -0.0042794     0.0000000
 l=   2
     0.0000000    -0.0003502     0.0000000    -0.0003520    -0.0008909
    -0.0003502     0.0000000    -0.0013041    -0.0002926    -0.0004263
     0.0000000    -0.0013041     0.0000000    -0.0013117     0.0000000
    -0.0003520    -0.0002926    -0.0013117     0.0000000    -0.0004305
    -0.0008909    -0.0004263     0.0000000    -0.0004305     0.0000000
 l=   3
     0.0000000     0.0000000     0.0000000     0.0000000     0.0000000     0.0000000     0.0000000
     0.0000000     0.0000000     0.0000000     0.0000000     0.0000000     0.0000000     0.0000000
     0.0000000     0.0000000     0.0000000     0.0000000     0.0000000     0.0000000     0.0000000
     0.0000000     0.0000000     0.0000000     0.0000000     0.0000000     0.0000000     0.0000000
     0.0000000     0.0000000     0.0000000     0.0000000     0.0000000     0.0000000     0.0000000
     0.0000000     0.0000000     0.0000000     0.0000000     0.0000000     0.0000000     0.0000000
     0.0000000     0.0000000     0.0000000     0.0000000     0.0000000     0.0000000     0.0000000

 Ion:   14  E_soc:     -0.0364589
 l=   1
     0.0000000    -0.0042807    -0.0043111
    -0.0042807     0.0000000    -0.0042794
    -0.0043111    -0.0042794     0.0000000
 l=   2
     0.0000000    -0.0003502     0.0000000    -0.0003520    -0.0008909
    -0.0003502     0.0000000    -0.0013041    -0.0002926    -0.0004263
     0.0000000    -0.0013041     0.0000000    -0.0013117     0.0000000
    -0.0003520    -0.0002926    -0.0013117     0.0000000    -0.0004305
    -0.0008909    -0.0004263     0.0000000    -0.0004305     0.0000000
 l=   3
     0.0000000     0.0000000     0.0000000     0.0000000     0.0000000     0.0000000     0.0000000
     0.0000000     0.0000000     0.0000000     0.0000000     0.0000000     0.0000000     0.0000000
     0.0000000     0.0000000     0.0000000     0.0000000     0.0000000     0.0000000     0.0000000
     0.0000000     0.0000000     0.0000000     0.0000000     0.0000000     0.0000000     0.0000000
     0.0000000     0.0000000     0.0000000     0.0000000     0.0000000     0.0000000     0.0000000
     0.0000000     0.0000000     0.0000000     0.0000000     0.0000000     0.0000000     0.0000000
     0.0000000     0.0000000     0.0000000     0.0000000     0.0000000     0.0000000     0.0000000

 Ion:   15  E_soc:     -0.0364589
 l=   1
     0.0000000    -0.0042807    -0.0043111
    -0.0042807     0.0000000    -0.0042794
    -0.0043111    -0.0042794     0.0000000
 l=   2
     0.0000000    -0.0003502     0.0000000    -0.0003520    -0.0008909
    -0.0003502     0.0000000    -0.0013041    -0.0002926    -0.0004263
     0.0000000    -0.0013041     0.0000000    -0.0013117     0.0000000
    -0.0003520    -0.0002926    -0.0013117     0.0000000    -0.0004305
    -0.0008909    -0.0004263     0.0000000    -0.0004305     0.0000000
 l=   3
     0.0000000     0.0000000     0.0000000     0.0000000     0.0000000     0.0000000     0.0000000
     0.0000000     0.0000000     0.0000000     0.0000000     0.0000000     0.0000000     0.0000000
     0.0000000     0.0000000     0.0000000     0.0000000     0.0000000     0.0000000     0.0000000
     0.0000000     0.0000000     0.0000000     0.0000000     0.0000000     0.0000000     0.0000000
     0.0000000     0.0000000     0.0000000     0.0000000     0.0000000     0.0000000     0.0000000
     0.0000000     0.0000000     0.0000000     0.0000000     0.0000000     0.0000000     0.0000000
     0.0000000     0.0000000     0.0000000     0.0000000     0.0000000     0.0000000     0.0000000

 Ion:   16  E_soc:     -0.0364589
 l=   1
     0.0000000    -0.0042807    -0.0043111
    -0.0042807     0.0000000    -0.0042794
    -0.0043111    -0.0042794     0.0000000
 l=   2
     0.0000000    -0.0003502     0.0000000    -0.0003520    -0.0008909
    -0.0003502     0.0000000    -0.0013041    -0.0002926    -0.0004263
     0.0000000    -0.0013041     0.0000000    -0.0013117     0.0000000
    -0.0003520    -0.0002926    -0.0013117     0.0000000    -0.0004305
    -0.0008909    -0.0004263     0.0000000    -0.0004305     0.0000000
 l=   3
     0.0000000     0.0000000     0.0000000     0.0000000     0.0000000     0.0000000     0.0000000
     0.0000000     0.0000000     0.0000000     0.0000000     0.0000000     0.0000000     0.0000000
     0.0000000     0.0000000     0.0000000     0.0000000     0.0000000     0.0000000     0.0000000
     0.0000000     0.0000000     0.0000000     0.0000000     0.0000000     0.0000000     0.0000000
     0.0000000     0.0000000     0.0000000     0.0000000     0.0000000     0.0000000     0.0000000
     0.0000000     0.0000000     0.0000000     0.0000000     0.0000000     0.0000000     0.0000000
     0.0000000     0.0000000     0.0000000     0.0000000     0.0000000     0.0000000     0.0000000
 


 total charge     
 
# of ion       s       p       d       tot
------------------------------------------
    1        1.315   2.407   0.000   3.722
    2        1.314   2.407   0.000   3.722
    3        1.316   2.402   0.000   3.718
    4        1.313   2.412   0.000   3.725
    5        1.314   2.407   0.000   3.722
    6        1.315   2.407   0.000   3.722
    7        1.316   2.402   0.000   3.718
    8        1.313   2.412   0.000   3.725
    9        0.259   6.202   8.916  15.377
   10        0.259   6.202   8.916  15.377
   11        0.259   6.202   8.916  15.377
   12        0.259   6.202   8.916  15.377
   13        0.348   6.349   5.825  12.521
   14        0.348   6.349   5.825  12.521
   15        0.348   6.349   5.825  12.521
   16        0.348   6.349   5.825  12.521
--------------------------------------------------
tot         12.943  69.460  58.963 141.367
 


 magnetization (x)
 
# of ion       s       p       d       tot
------------------------------------------
    1       -0.000   0.000   0.000  -0.000
    2        0.000  -0.000   0.000  -0.000
    3       -0.000  -0.000   0.000  -0.000
    4       -0.000  -0.000   0.000  -0.000
    5        0.000  -0.000   0.000  -0.000
    6       -0.000   0.000   0.000  -0.000
    7       -0.000  -0.000   0.000  -0.000
    8       -0.000  -0.000   0.000  -0.000
    9       -0.000  -0.000  -0.000  -0.000
   10        0.000   0.000  -0.000  -0.000
   11       -0.000  -0.000  -0.000  -0.000
   12        0.000   0.000  -0.000  -0.000
   13        0.000   0.000   0.007   0.007
   14       -0.000  -0.000  -0.007  -0.007
   15        0.000   0.000   0.007   0.007
   16       -0.000  -0.000  -0.007  -0.007
--------------------------------------------------
tot         -0.000  -0.000  -0.001  -0.001
 


 magnetization (y)
 
# of ion       s       p       d       tot
------------------------------------------
    1       -0.000  -0.000   0.000  -0.000
    2        0.000  -0.000   0.000  -0.000
    3       -0.000   0.000   0.000   0.000
    4        0.000   0.000   0.000   0.000
    5        0.000  -0.000   0.000  -0.000
    6       -0.000  -0.000   0.000  -0.000
    7       -0.000   0.000   0.000   0.000
    8        0.000   0.000   0.000   0.000
    9       -0.000   0.000  -0.000  -0.000
   10       -0.000   0.000   0.000   0.000
   11       -0.000   0.000  -0.000  -0.000
   12       -0.000   0.000   0.000   0.000
   13       -0.000  -0.000  -0.002  -0.002
   14       -0.000  -0.000  -0.002  -0.002
   15       -0.000  -0.000  -0.002  -0.002
   16       -0.000  -0.000  -0.002  -0.002
--------------------------------------------------
tot         -0.000  -0.000  -0.009  -0.009
 


 magnetization (z)
 
# of ion       s       p       d       tot
------------------------------------------
    1       -0.000  -0.022   0.000  -0.022
    2        0.000   0.022   0.000   0.022
    3        0.000   0.000   0.000   0.000
    4       -0.000  -0.000   0.000  -0.000
    5        0.000   0.022   0.000   0.022
    6       -0.000  -0.022   0.000  -0.022
    7        0.000   0.000   0.000   0.000
    8       -0.000  -0.000   0.000  -0.000
    9        0.000   0.001  -0.003  -0.002
   10       -0.000  -0.001   0.003   0.002
   11        0.000   0.001  -0.003  -0.002
   12       -0.000  -0.001   0.003   0.002
   13        0.020   0.054   3.661   3.735
   14       -0.020  -0.054  -3.661  -3.735
   15        0.020   0.054   3.661   3.735
   16       -0.020  -0.054  -3.661  -3.735
--------------------------------------------------
tot         -0.000  -0.000   0.000   0.000
 
 BZINTS: Fermi energy:  5.093292;172.000000 electrons
         Band energy:***********;  BLOECHL correction:  0.000000
 BZINTS: Fermi energy:  5.093292;172.000000 electrons
         Band energy:***********;  BLOECHL correction:  0.000000
 BZINTS: Fermi energy:  5.093292;172.000000 electrons
         Band energy:***********;  BLOECHL correction:  0.000000
 BZINTS: Fermi energy:  5.093292;172.000000 electrons
         Band energy:***********;  BLOECHL correction:  0.000000

 total amount of memory used by VASP MPI-rank0   410429. kBytes
=======================================================================

   base      :      30000. kBytes
   nonl-proj :     321650. kBytes
   fftplans  :       2735. kBytes
   grid      :      30965. kBytes
   one-center:        995. kBytes
   wavefun   :      24084. kBytes
 
  
  
 General timing and accounting informations for this job:
 ========================================================
  
                  Total CPU time used (sec):     9971.818
                            User time (sec):     9960.346
                          System time (sec):       11.473
                         Elapsed time (sec):    10189.796
  
                   Maximum memory used (kb):      867944.
                   Average memory used (kb):           0.
  
                          Minor page faults:       807937
                          Major page faults:         5502
                 Voluntary context switches:         7080
