       N       E                     dE             d eps       ncg     rms          rms(c)
DAV:   1     0.605888803578E+04    0.60589E+04   -0.51608E+05 16384   0.196E+03
DAV:   2    -0.845537220703E+02   -0.61434E+04   -0.60334E+04 18688   0.445E+02
DAV:   3    -0.326001125356E+03   -0.24145E+03   -0.24069E+03 22272   0.962E+01
DAV:   4    -0.329350504448E+03   -0.33494E+01   -0.33492E+01 20480   0.114E+01
DAV:   5    -0.329454569526E+03   -0.10407E+00   -0.10406E+00 20992   0.196E+00    0.882E+00
DAV:   6    -0.328423741056E+03    0.10308E+01   -0.78784E-01 26624   0.284E+00    0.463E+00
DAV:   7    -0.328102405966E+03    0.32134E+00   -0.68324E-01 23296   0.194E+00    0.241E+00
DAV:   8    -0.328089136792E+03    0.13269E-01   -0.13600E-01 24320   0.864E-01    0.103E+00
DAV:   9    -0.328090216737E+03   -0.10799E-02   -0.30527E-02 21504   0.420E-01    0.715E-01
DAV:  10    -0.328091167184E+03   -0.95045E-03   -0.35343E-02 22528   0.522E-01    0.666E-01
DAV:  11    -0.328091006399E+03    0.16079E-03   -0.15123E-02 20480   0.341E-01    0.221E-01
DAV:  12    -0.328091655602E+03   -0.64920E-03   -0.25419E-03 24064   0.104E-01    0.779E-02
DAV:  13    -0.328091737429E+03   -0.81826E-04   -0.25651E-04 19968   0.413E-02    0.536E-02
DAV:  14    -0.328091808176E+03   -0.70747E-04   -0.25402E-04 24832   0.243E-02    0.279E-02
DAV:  15    -0.328091831796E+03   -0.23620E-04   -0.75286E-05 22784   0.122E-02    0.157E-02
DAV:  16    -0.328091841919E+03   -0.10123E-04   -0.25377E-05 22528   0.605E-03    0.102E-02
DAV:  17    -0.328091848966E+03   -0.70474E-05   -0.31625E-05 22016   0.607E-03    0.647E-03
DAV:  18    -0.328091850547E+03   -0.15810E-05   -0.10162E-05 19456   0.376E-03    0.293E-03
DAV:  19    -0.328091850760E+03   -0.21311E-06   -0.13692E-06 21504   0.145E-03    0.184E-03
DAV:  20    -0.328091850776E+03   -0.15207E-07   -0.40430E-07 20480   0.770E-04    0.891E-04
DAV:  21    -0.328091850778E+03   -0.27649E-08   -0.56928E-08 20480   0.347E-04
   1 F= -.32809185E+03 E0= -.32809185E+03  d E =0.000000E+00  mag=     0.0000
