 vasp.5.4.4.18Apr17-6-g9f103f2a35 (build Oct 30 2023 17:30:16) complex          
  
 executed on             LinuxIFC date 2024.06.30  18:48:50
 running on  256 total cores
 distrk:  each k-point on  256 cores,    1 groups
 distr:  one band on NCORES_PER_BAND=   1 cores,  256 groups


--------------------------------------------------------------------------------------------------------


 INCAR:
 POTCAR:    PAW_PBE S 06Sep2000                   
 POTCAR:     PAW_PBE Cu_pv 06Sep2000              
 POTCAR:     PAW_PBE Fe_pv 02Aug2007              

 ----------------------------------------------------------------------------- 
|                                                                             |
|           W    W    AA    RRRRR   N    N  II  N    N   GGGG   !!!           |
|           W    W   A  A   R    R  NN   N  II  NN   N  G    G  !!!           |
|           W    W  A    A  R    R  N N  N  II  N N  N  G       !!!           |
|           W WW W  AAAAAA  RRRRR   N  N N  II  N  N N  G  GGG   !            |
|           WW  WW  A    A  R   R   N   NN  II  N   NN  G    G                |
|           W    W  A    A  R    R  N    N  II  N    N   GGGG   !!!           |
|                                                                             |
|      For optimal performance we recommend to set                            |
|        NCORE= 4 - approx SQRT( number of cores)                             |
|      NCORE specifies how many cores store one orbital (NPAR=cpu/NCORE).     |
|      This setting can  greatly improve the performance of VASP for DFT.     |
|      The default,   NCORE=1            might be grossly inefficient         |
|      on modern multi-core architectures or massively parallel machines.     |
|      Do your own testing !!!!                                               |
|      Unfortunately you need to use the default for GW and RPA calculations. |
|      (for HF NCORE is supported but not extensively tested yet)             |
|                                                                             |
 ----------------------------------------------------------------------------- 

 POTCAR:    PAW_PBE S 06Sep2000                   
   SHA256 =  0fc7481fb0695f01bdc6462160264c5c84044ae9ec85a907d398b887a2bc3132 S/
   COPYR  = (c) Copyright 06Sep2000 Georg Kresse                                
   COPYR  = This file is part of the software VASP. Any use, copying, and all ot
   COPYR  = If you do not have a valid VASP license, you may not use, copy or di
   VRHFIN =S : s2p4                                                             
   LEXCH  = PE                                                                  
   EATOM  =   276.8230 eV,   20.3459 Ry                                         
                                                                                
   TITEL  = PAW_PBE S 06Sep2000                                                 
   LULTRA =        F    use ultrasoft PP ?                                      
   IUNSCR =        1    unscreen: 0-lin 1-nonlin 2-no                           
   RPACOR =    1.500    partial core radius                                     
   POMASS =   32.066; ZVAL   =    6.000    mass and valenz                      
   RCORE  =    1.900    outmost cutoff radius                                   
   RWIGS  =    2.200; RWIGS  =    1.164    wigner-seitz radius (au A)           
   ENMAX  =  258.689; ENMIN  =  194.016 eV                                      
   ICORE  =        2    local potential                                         
   LCOR   =        T    correct aug charges                                     
   LPAW   =        T    paw PP                                                  
   EAUG   =  335.092                                                            
   DEXC   =    0.000                                                            
   RMAX   =    1.942    core radius for proj-oper                               
   RAUG   =    1.300    factor for augmentation sphere                          
   RDEP   =    1.954    radius for radial grids                                 
   RDEPT  =    1.744    core radius for aug-charge                              
                                                                                
   Atomic configuration                                                         
    6 entries                                                                   
     n  l   j            E        occ.                                          
     1  0  0.50     -2405.8406   2.0000                                         
     2  0  0.50      -211.7007   2.0000                                         
     2  1  1.50      -156.4958   6.0000                                         
     3  0  0.50       -17.2562   2.0000                                         
     3  1  0.50        -7.0085   4.0000                                         
     3  2  1.50        -6.8029   0.0000                                         
   Description                                                                  
     l       E           TYP  RCUT    TYP  RCUT                                 
     0    -17.2561641     23  1.900                                             
     0    -15.8743224     23  1.900                                             
     1     -7.0085400     23  1.900                                             
     1     -2.7779785     23  1.900                                             
     2     -6.8029130     23  1.900                                             
  local pseudopotential read in
  partial core-charges read in
  partial kinetic energy density read in
  atomic valenz-charges read in
  non local Contribution for L=           0  read in
    real space projection operators read in
  non local Contribution for L=           0  read in
    real space projection operators read in
  non local Contribution for L=           1  read in
    real space projection operators read in
  non local Contribution for L=           1  read in
    real space projection operators read in
    PAW grid and wavefunctions read in
 
   number of l-projection  operators is LMAX  =           4
   number of lm-projection operators is LMMAX =           8
 
 POTCAR:     PAW_PBE Cu_pv 06Sep2000              
   SHA256 =  cb7b504e2ea725fe1f25c85a9ac77d4012ce94cd394135b722c4e25ec297f1cb Cu
   COPYR  = (c) Copyright 06Sep2000 Georg Kresse                                
   COPYR  = This file is part of the software VASP. Any use, copying, and all ot
   COPYR  = If you do not have a valid VASP license, you may not use, copy or di
   VRHFIN =Cu: d10 p1                                                           
   LEXCH  = PE                                                                  
   EATOM  =  4120.1201 eV,  302.8203 Ry                                         
                                                                                
   TITEL  = PAW_PBE Cu_pv 06Sep2000                                             
   LULTRA =        F    use ultrasoft PP ?                                      
   IUNSCR =        1    unscreen: 0-lin 1-nonlin 2-no                           
   RPACOR =    1.500    partial core radius                                     
   POMASS =   63.546; ZVAL   =   17.000    mass and valenz                      
   RCORE  =    2.000    outmost cutoff radius                                   
   RWIGS  =    2.000; RWIGS  =    1.058    wigner-seitz radius (au A)           
   ENMAX  =  368.648; ENMIN  =  276.486 eV                                      
   RCLOC  =    1.304    cutoff for local pot                                    
   LCOR   =        T    correct aug charges                                     
   LPAW   =        T    paw PP                                                  
   EAUG   =  758.233                                                            
   DEXC   =    0.000                                                            
   RMAX   =    2.046    core radius for proj-oper                               
   RAUG   =    1.300    factor for augmentation sphere                          
   RDEP   =    2.025    radius for radial grids                                 
   RDEPT  =    1.558    core radius for aug-charge                              
                                                                                
   Atomic configuration                                                         
    8 entries                                                                   
     n  l   j            E        occ.                                          
     1  0  0.50     -8850.2467   2.0000                                         
     2  0  0.50     -1062.3498   2.0000                                         
     2  1  1.50      -916.8226   6.0000                                         
     3  0  0.50      -114.6929   2.0000                                         
     3  1  1.50       -72.1325   6.0000                                         
     3  2  2.50        -5.0394  10.0000                                         
     4  0  0.50        -4.6097   1.0000                                         
     4  3  2.50        -1.3606   0.0000                                         
   Description                                                                  
     l       E           TYP  RCUT    TYP  RCUT                                 
     1    -72.1324777     23  1.700                                             
     1     -1.3605826     23  1.700                                             
     2     -5.0393776     23  2.000                                             
     2     -6.3999602     23  2.000                                             
     0     -4.6097062     23  1.800                                             
     0     14.1620818     23  1.800                                             
  local pseudopotential read in
  partial core-charges read in
  partial kinetic energy density read in
  atomic valenz-charges read in
  non local Contribution for L=           1  read in
    real space projection operators read in
  non local Contribution for L=           1  read in
    real space projection operators read in
  non local Contribution for L=           2  read in
    real space projection operators read in
  non local Contribution for L=           2  read in
    real space projection operators read in
  non local Contribution for L=           0  read in
    real space projection operators read in
  non local Contribution for L=           0  read in
    real space projection operators read in
    PAW grid and wavefunctions read in
 
   number of l-projection  operators is LMAX  =           6
   number of lm-projection operators is LMMAX =          18
 
 POTCAR:     PAW_PBE Fe_pv 02Aug2007              
   SHA256 =  5d22e414b1f82158bf2c7ecb8b97b28fd0923e48cadc1c3bf74d524558f5dd32 Fe
   COPYR  = (c) Copyright 02Aug2007 Georg Kresse                                
   COPYR  = This file is part of the software VASP. Any use, copying, and all ot
   COPYR  = If you do not have a valid VASP license, you may not use, copy or di
   VRHFIN =Fe:  3pd7s1                                                          
   LEXCH  = PE                                                                  
   EATOM  =  2457.4239 eV,  180.6156 Ry                                         
                                                                                
   TITEL  = PAW_PBE Fe_pv 02Aug2007                                             
   LULTRA =        F    use ultrasoft PP ?                                      
   IUNSCR =        1    unscreen: 0-lin 1-nonlin 2-no                           
   RPACOR =    1.750    partial core radius                                     
   POMASS =   55.847; ZVAL   =   14.000    mass and valenz                      
   RCORE  =    2.200    outmost cutoff radius                                   
   RWIGS  =    2.200; RWIGS  =    1.164    wigner-seitz radius (au A)           
   ENMAX  =  293.238; ENMIN  =  219.928 eV                                      
   ICORE  =        3    local potential                                         
   LCOR   =        T    correct aug charges                                     
   LPAW   =        T    paw PP                                                  
   EAUG   =  578.342                                                            
   DEXC   =    0.000                                                            
   RMAX   =    2.249    core radius for proj-oper                               
   RAUG   =    1.300    factor for augmentation sphere                          
   RDEP   =    2.296    radius for radial grids                                 
   RDEPT  =    1.766    core radius for aug-charge                              
                                                                                
   Atomic configuration                                                         
    8 entries                                                                   
     n  l   j            E        occ.                                          
     1  0  0.50     -6993.8440   2.0000                                         
     2  0  0.50      -814.6047   2.0000                                         
     2  1  1.50      -693.3689   6.0000                                         
     3  0  0.50       -89.4732   2.0000                                         
     3  1  1.50       -55.6373   6.0000                                         
     3  2  2.50        -3.8151   7.0000                                         
     4  0  0.50        -4.2551   1.0000                                         
     4  3  2.50        -1.3606   0.0000                                         
   Description                                                                  
     l       E           TYP  RCUT    TYP  RCUT                                 
     1    -55.6372668     23  2.000                                             
     1     -5.4423304     23  2.000                                             
     2     -3.8151096     23  2.200                                             
     2     -5.1756922     23  2.200                                             
     0     -4.2550951     23  2.200                                             
     0     27.2116520     23  2.200                                             
     3     -1.3605826     23  2.200                                             
  local pseudopotential read in
  partial core-charges read in
  partial kinetic energy density read in
  atomic valenz-charges read in
  non local Contribution for L=           1  read in
    real space projection operators read in
  non local Contribution for L=           1  read in
    real space projection operators read in
  non local Contribution for L=           2  read in
    real space projection operators read in
  non local Contribution for L=           2  read in
    real space projection operators read in
  non local Contribution for L=           0  read in
    real space projection operators read in
  non local Contribution for L=           0  read in
    real space projection operators read in
    PAW grid and wavefunctions read in
 
   number of l-projection  operators is LMAX  =           6
   number of lm-projection operators is LMMAX =          18
 

 ----------------------------------------------------------------------------- 
|                                                                             |
|  ADVICE TO THIS USER RUNNING 'VASP/VAMP'   (HEAR YOUR MASTER'S VOICE ...):  |
|                                                                             |
|      You have a (more or less) 'large supercell' and for larger cells       |
|      it might be more efficient to use real space projection opertators     |
|      So try LREAL= Auto  in the INCAR   file.                               |
|      Mind:          For very  accurate calculation you might also keep the  |
|      reciprocal projection scheme          (i.e. LREAL=.FALSE.)             |
|                                                                             |
 ----------------------------------------------------------------------------- 


 ----------------------------------------------------------------------------- 
|                                                                             |
|  ADVICE TO THIS USER RUNNING 'VASP/VAMP'   (HEAR YOUR MASTER'S VOICE ...):  |
|                                                                             |
|      You enforced a specific xc-type in the INCAR file,                     |
|      a different type was found on the POTCAR file                          |
|          I HOPE YOU KNOW, WHAT YOU ARE  DOING                               |
|                                                                             |
 ----------------------------------------------------------------------------- 

  PAW_PBE S 06Sep2000                   :
 energy of atom  1       EATOM= -276.8230
 kinetic energy error for atom=    0.0007 (will be added to EATOM!!)
   PAW_PBE Cu_pv 06Sep2000              :
 energy of atom  2       EATOM=-4120.1201
 kinetic energy error for atom=    0.0094 (will be added to EATOM!!)
   PAW_PBE Fe_pv 02Aug2007              :
 energy of atom  3       EATOM=-2457.4239
 kinetic energy error for atom=    0.0025 (will be added to EATOM!!)
 
 
 POSCAR: Fe16 Cu16 S32                           
  positions in direct lattice
  No initial velocities read in
 exchange correlation table for  LEXCH =       14
   RHO(1)=    0.500       N(1)  =     2000
   RHO(2)=  100.500       N(2)  =     4000
 


--------------------------------------------------------------------------------------------------------


 ion  position               nearest neighbor table
   1  0.126  0.124  0.125-  41 2.26  37 2.26  61 2.27  49 2.28
   2  0.626  0.124  0.125-  42 2.26  38 2.26  62 2.27  50 2.28
   3  0.126  0.624  0.125-  43 2.26  39 2.26  63 2.27  51 2.28
   4  0.626  0.624  0.125-  44 2.26  40 2.26  64 2.27  52 2.28
   5  0.374  0.374  0.125-  39 2.26  41 2.26  52 2.27  62 2.28
   6  0.874  0.374  0.125-  40 2.26  42 2.26  51 2.27  61 2.28
   7  0.374  0.874  0.125-  37 2.26  43 2.26  50 2.27  64 2.28
   8  0.874  0.874  0.125-  38 2.26  44 2.26  49 2.27  63 2.28
   9  0.125  0.373  0.875-  41 2.26  45 2.26  51 2.27  55 2.27
  10  0.625  0.373  0.875-  42 2.26  46 2.26  52 2.27  56 2.27
  11  0.125  0.873  0.875-  43 2.26  47 2.26  49 2.27  53 2.27
  12  0.625  0.873  0.875-  44 2.26  48 2.26  50 2.27  54 2.27
  13  0.375  0.125  0.875-  41 2.26  46 2.26  50 2.28  53 2.28
  14  0.875  0.125  0.875-  42 2.26  45 2.26  49 2.28  54 2.28
  15  0.375  0.625  0.875-  43 2.26  48 2.26  52 2.28  55 2.28
  16  0.875  0.625  0.875-  44 2.26  47 2.26  51 2.28  56 2.28
  17  0.124  0.124  0.625-  45 2.26  33 2.26  57 2.27  53 2.28
  18  0.624  0.124  0.625-  46 2.26  34 2.26  58 2.27  54 2.28
  19  0.124  0.624  0.625-  47 2.26  35 2.26  59 2.27  55 2.28
  20  0.624  0.624  0.625-  48 2.26  36 2.26  60 2.27  56 2.28
  21  0.376  0.374  0.625-  36 2.26  46 2.26  55 2.27  57 2.28
  22  0.876  0.374  0.625-  35 2.26  45 2.26  56 2.27  58 2.28
  23  0.376  0.874  0.625-  34 2.26  48 2.26  53 2.27  59 2.28
  24  0.876  0.874  0.625-  33 2.26  47 2.26  54 2.27  60 2.28
  25  0.375  0.123  0.375-  34 2.26  37 2.26  57 2.27  62 2.27
  26  0.875  0.123  0.375-  33 2.26  38 2.26  58 2.27  61 2.27
  27  0.375  0.623  0.375-  36 2.26  39 2.26  59 2.27  64 2.27
  28  0.875  0.623  0.375-  35 2.26  40 2.26  60 2.27  63 2.27
  29  0.125  0.375  0.375-  35 2.26  39 2.26  57 2.28  61 2.28
  30  0.625  0.375  0.375-  36 2.26  40 2.26  58 2.28  62 2.28
  31  0.125  0.875  0.375-  33 2.26  37 2.26  59 2.28  63 2.28
  32  0.625  0.875  0.375-  34 2.26  38 2.26  60 2.28  64 2.28
  33  1.000  0.001  0.500-  24 2.26  31 2.26  26 2.26  17 2.26
  34  0.500  0.001  0.500-  23 2.26  32 2.26  25 2.26  18 2.26
  35  1.000  0.501  0.500-  22 2.26  29 2.26  28 2.26  19 2.26
  36  0.500  0.501  0.500-  21 2.26  30 2.26  27 2.26  20 2.26
  37  0.250  0.001  0.250-   7 2.26  31 2.26  25 2.26   1 2.26
  38  0.750  0.001  0.250-   8 2.26  32 2.26  26 2.26   2 2.26
  39  0.250  0.501  0.250-   5 2.26  29 2.26  27 2.26   3 2.26
  40  0.750  0.501  0.250-   6 2.26  30 2.26  28 2.26   4 2.26
  41  0.250  0.251  0.000-   1 2.26  13 2.26   9 2.26   5 2.26
  42  0.750  0.251  0.000-   2 2.26  14 2.26  10 2.26   6 2.26
  43  0.250  0.751  0.000-   3 2.26  15 2.26  11 2.26   7 2.26
  44  0.750  0.751  0.000-   4 2.26  16 2.26  12 2.26   8 2.26
  45  0.000  0.251  0.750-  17 2.26  14 2.26   9 2.26  22 2.26
  46  0.500  0.251  0.750-  18 2.26  13 2.26  10 2.26  21 2.26
  47  0.000  0.751  0.750-  19 2.26  16 2.26  11 2.26  24 2.26
  48  0.500  0.751  0.750-  20 2.26  15 2.26  12 2.26  23 2.26
  49  1.000  0.001  0.000-   8 2.27  11 2.27  14 2.28   1 2.28
  50  0.500  0.001  0.000-   7 2.27  12 2.27  13 2.28   2 2.28
  51  1.000  0.501  0.000-   6 2.27   9 2.27  16 2.28   3 2.28
  52  0.500  0.501  0.000-   5 2.27  10 2.27  15 2.28   4 2.28
  53  0.250  0.001  0.750-  23 2.27  11 2.27  13 2.28  17 2.28
  54  0.750  0.001  0.750-  24 2.27  12 2.27  14 2.28  18 2.28
  55  0.250  0.501  0.750-  21 2.27   9 2.27  15 2.28  19 2.28
  56  0.750  0.501  0.750-  22 2.27  10 2.27  16 2.28  20 2.28
  57  0.250  0.251  0.500-  17 2.27  25 2.27  29 2.28  21 2.28
  58  0.750  0.251  0.500-  18 2.27  26 2.27  30 2.28  22 2.28
  59  0.250  0.751  0.500-  19 2.27  27 2.27  31 2.28  23 2.28
  60  0.750  0.751  0.500-  20 2.27  28 2.27  32 2.28  24 2.28
  61  0.000  0.251  0.250-   1 2.27  26 2.27  29 2.28   6 2.28
  62  0.500  0.251  0.250-   2 2.27  25 2.27  30 2.28   5 2.28
  63  0.000  0.751  0.250-   3 2.27  28 2.27  31 2.28   8 2.28
  64  0.500  0.751  0.250-   4 2.27  27 2.27  32 2.28   7 2.28
 
  LATTYP: Found a simple monoclinic cell.
 ALAT       =    14.9256516398
 B/A-ratio  =     0.7045919504
 C/A-ratio  =     1.5737276077
 COS(beta)  =    -0.9500150346
  
  Lattice vectors:
  
 A1 = ( -10.6059790000,   0.0000000000, -10.5018230000)
 A2 = (   0.0000000000, -10.5164940000,   0.0000000000)
 A3 = (  10.6968260000,   0.0000000000,  20.9118820000)


Analysis of symmetry for initial positions (statically):
=====================================================================
 Subroutine PRICEL returns following result:
 
  LATTYP: Found a base centered monoclinic cell.
 ALAT       =    11.5806368613
 B/A-ratio  =     0.4540550803
 C/A-ratio  =     0.8989536172
 COS(beta)  =    -0.8113136533
  
  Lattice vectors:
  
 A1 = (  -2.5833595000,  -2.6291235000,   5.1820885000)
 A2 = (  -2.5833595000,   2.6291235000,   5.1820885000)
 A3 = (  -0.0908470000,   0.0000000000, -10.4100590000)
 
   8 primitive cells build up your supercell.
 

 Routine SETGRP: Setting up the symmetry group for a 
 simple monoclinic supercell.


 Subroutine GETGRP returns: Found  2 space group operations
 (whereof  1 operations were pure point group operations)
 out of a pool of  4 trial point group operations.


The static configuration has the point symmetry C_1 .
 The point group associated with its full space group is C_2 .


Analysis of symmetry for dynamics (positions and initial velocities):
=====================================================================
 Subroutine PRICEL returns following result:
 
  LATTYP: Found a base centered monoclinic cell.
 ALAT       =    11.5806368613
 B/A-ratio  =     0.4540550803
 C/A-ratio  =     0.8989536172
 COS(beta)  =    -0.8113136533
  
  Lattice vectors:
  
 A1 = (  -2.5833595000,  -2.6291235000,   5.1820885000)
 A2 = (  -2.5833595000,   2.6291235000,   5.1820885000)
 A3 = (  -0.0908470000,   0.0000000000, -10.4100590000)
 
   8 primitive cells build up your supercell.
 

 Routine SETGRP: Setting up the symmetry group for a 
 simple monoclinic supercell.


 Subroutine GETGRP returns: Found  2 space group operations
 (whereof  1 operations were pure point group operations)
 out of a pool of  4 trial point group operations.


The dynamic configuration has the point symmetry C_1 .
 The point group associated with its full space group is C_2 .


Analysis of structural, dynamic, and magnetic symmetry:
=====================================================================
 Subroutine PRICEL returns following result:
 
  LATTYP: Found a base centered monoclinic cell.
 ALAT       =    11.5806368613
 B/A-ratio  =     0.4540550803
 C/A-ratio  =     0.8989536172
 COS(beta)  =    -0.8113136533
  
  Lattice vectors:
  
 A1 = (  -2.5833595000,  -2.6291235000,   5.1820885000)
 A2 = (  -2.5833595000,   2.6291235000,   5.1820885000)
 A3 = (  -0.0908470000,   0.0000000000, -10.4100590000)
 
   8 primitive cells build up your supercell.
 

 Routine SETGRP: Setting up the symmetry group for a 
 simple monoclinic supercell.


 Subroutine GETGRP returns: Found  2 space group operations
 (whereof  1 operations were pure point group operations)
 out of a pool of  4 trial point group operations.


The magnetic configuration has the point symmetry C_1 .
 The point group associated with its full space group is C_2 .


 Subroutine INISYM returns: Found  2 space group operations
 (whereof  1 operations are pure point group operations),
 and found     8 'primitive' translations

 
 
 KPOINTS: Automatic mesh                          

Automatic generation of k-mesh.
Space group operators:
 irot       det(A)        alpha          n_x          n_y          n_z        tau_x        tau_y        tau_z
    1     1.000000     0.000001     1.000000     0.000000     0.000000     0.000000     0.000000     0.000000
    2     1.000000   180.000000     0.000000     1.000000     0.000000    -0.250000    -0.000000    -0.250000
 
 Subroutine IBZKPT returns following result:
 ===========================================
 
 Found      8 irreducible k-points:
 
 Following reciprocal coordinates:
            Coordinates               Weight
  0.000000  0.000000  0.000000      1.000000
  0.500000  0.000000  0.000000      1.000000
  0.000000  0.500000  0.000000      1.000000
  0.500000  0.500000  0.000000      1.000000
  0.000000  0.000000  0.500000      1.000000
  0.500000  0.000000  0.500000      1.000000
  0.000000  0.500000  0.500000      1.000000
  0.500000  0.500000  0.500000      1.000000
 
 Following cartesian coordinates:
            Coordinates               Weight
  0.000000  0.000000  0.000000      1.000000
  0.047554  0.000000 -0.000415      1.000000
  0.000000  0.047544  0.000000      1.000000
  0.047554  0.047544 -0.000415      1.000000
 -0.000419  0.000000  0.048034      1.000000
  0.047135  0.000000  0.047619      1.000000
 -0.000419  0.047544  0.048034      1.000000
  0.047135  0.047544  0.047619      1.000000
 
 TETIRR: Found     24 inequivalent tetrahedra from       48
 
 Subroutine IBZKPT_HF returns following result:
 ==============================================
 
 Found      8 k-points in 1st BZ
 the following      8 k-points will be used (e.g. in the exchange kernel)
 Following reciprocal coordinates:   # in IRBZ
  0.000000  0.000000  0.000000    0.12500000   1 t-inv F
  0.500000  0.000000  0.000000    0.12500000   2 t-inv F
  0.000000  0.500000  0.000000    0.12500000   3 t-inv F
  0.500000  0.500000  0.000000    0.12500000   4 t-inv F
  0.000000  0.000000  0.500000    0.12500000   5 t-inv F
  0.500000  0.000000  0.500000    0.12500000   6 t-inv F
  0.000000  0.500000  0.500000    0.12500000   7 t-inv F
  0.500000  0.500000  0.500000    0.12500000   8 t-inv F


--------------------------------------------------------------------------------------------------------




 Dimension of arrays:
   k-points           NKPTS =      8   k-points in BZ     NKDIM =      8   number of bands    NBANDS=    512
   number of dos      NEDOS =    301   number of ions     NIONS =     64
   non local maximal  LDIM  =      6   non local SUM 2l+1 LMDIM =     18
   total plane-waves  NPLWV = 829440
   max r-space proj   IRMAX =      1   max aug-charges    IRDMAX=  22899
   dimension x,y,z NGX =    96 NGY =   96 NGZ =   90
   dimension x,y,z NGXF=   192 NGYF=  192 NGZF=  180
   support grid    NGXF=   192 NGYF=  192 NGZF=  180
   ions per type =              32  16  16
   NGX,Y,Z   is equivalent  to a cutoff of  15.18, 15.18, 14.37 a.u.
   NGXF,Y,Z  is equivalent  to a cutoff of  30.35, 30.35, 28.74 a.u.

 SYSTEM =  CuFeS2                                  
 POSCAR =  Fe16 Cu16 S32                           

 Startparameter for this run:
   NWRITE =      2    write-flag & timer
   PREC   = accura    normal or accurate (medium, high low for compatibility)
   ISTART =      0    job   : 0-new  1-cont  2-samecut
   ICHARG =      1    charge: 1-file 2-atom 10-const
   ISPIN  =      2    spin polarized calculation?
   LNONCOLLINEAR =      F non collinear calculations
   LSORBIT =      F    spin-orbit coupling
   INIWAV =      1    electr: 0-lowe 1-rand  2-diag
   LASPH  =      F    aspherical Exc in radial PAW
   METAGGA=      F    non-selfconsistent MetaGGA calc.

 Electronic Relaxation 1
   ENCUT  =  700.0 eV  51.45 Ry    7.17 a.u.  22.68 22.69 22.46*2*pi/ulx,y,z
   ENINI  =  700.0     initial cutoff
   ENAUG  =  758.2 eV  augmentation charge cutoff
   NELM   =    500;   NELMIN=  2; NELMDL= -5     # of ELM steps 
   EDIFF  = 0.1E-07   stopping-criterion for ELM
   LREAL  =      F    real-space projection
   NLSPLINE    = F    spline interpolate recip. space projectors
   LCOMPAT=      F    compatible to vasp.4.4
   GGA_COMPAT  = T    GGA compatible to vasp.4.4-vasp.4.6
   LMAXPAW     = -100 max onsite density
   LMAXMIX     =    4 max onsite mixed and CHGCAR
   VOSKOWN=      0    Vosko Wilk Nusair interpolation
   ROPT   =    0.00000   0.00000   0.00000
 Ionic relaxation
   EDIFFG = -.1E-04   stopping-criterion for IOM
   NSW    =      0    number of steps for IOM
   NBLOCK =      1;   KBLOCK =      1    inner block; outer block 
   IBRION =     -1    ionic relax: 0-MD 1-quasi-New 2-CG
   NFREE  =      0    steps in history (QN), initial steepest desc. (CG)
   ISIF   =      2    stress and relaxation
   IWAVPR =     10    prediction:  0-non 1-charg 2-wave 3-comb
   ISYM   =      2    0-nonsym 1-usesym 2-fastsym
   LCORR  =      T    Harris-Foulkes like correction to forces

   POTIM  = 0.5000    time-step for ionic-motion
   TEIN   =    0.0    initial temperature
   TEBEG  =    0.0;   TEEND  =   0.0 temperature during run
   SMASS  =  -3.00    Nose mass-parameter (am)
   estimated Nose-frequenzy (Omega)   =  0.10E-29 period in steps =****** mass=  -0.253E-26a.u.
   SCALEE = 1.0000    scale energy and forces
   NPACO  =    256;   APACO  = 16.0  distance and # of slots for P.C.
   PSTRESS=    0.0 pullay stress

  Mass of Ions in am
   POMASS =  32.07 63.55 55.85
  Ionic Valenz
   ZVAL   =   6.00 17.00 14.00
  Atomic Wigner-Seitz radii
   RWIGS  =  -1.00 -1.00 -1.00
  virtual crystal weights 
   VCA    =   1.00  1.00  1.00
   NELECT =     688.0000    total number of electrons
   NUPDOWN=      -1.0000    fix difference up-down

 DOS related values:
   EMIN   =  10.00;   EMAX   =-10.00  energy-range for DOS
   EFERMI =   0.00
   ISMEAR =    -5;   SIGMA  =   0.03  broadening in eV -4-tet -1-fermi 0-gaus

 Electronic relaxation 2 (details)
   IALGO  =     38    algorithm
   LDIAG  =      T    sub-space diagonalisation (order eigenvalues)
   LSUBROT=      F    optimize rotation matrix (better conditioning)
   TURBO    =      0    0=normal 1=particle mesh
   IRESTART =      0    0=no restart 2=restart with 2 vectors
   NREBOOT  =      0    no. of reboots
   NMIN     =      0    reboot dimension
   EREF     =   0.00    reference energy to select bands
   IMIX   =      4    mixing-type and parameters
     AMIX     =   0.40;   BMIX     =  1.00
     AMIX_MAG =   1.60;   BMIX_MAG =  1.00
     AMIN     =   0.10
     WC   =   100.;   INIMIX=   1;  MIXPRE=   1;  MAXMIX= -45

 Intra band minimization:
   WEIMIN = 0.0000     energy-eigenvalue tresh-hold
   EBREAK =  0.49E-11  absolut break condition
   DEPER  =   0.30     relativ break condition  

   TIME   =   0.40     timestep for ELM

  volume/ion in A,a.u.               =      17.99       121.37
  Fermi-wavevector in a.u.,A,eV,Ry     =   1.379015  2.605961 25.873965  1.901683
  Thomas-Fermi vector in A             =   2.504024
 
 Write flags
   LWAVE        =      T    write WAVECAR
   LDOWNSAMPLE  =      F    k-point downsampling of WAVECAR
   LCHARG       =      T    write CHGCAR
   LVTOT        =      F    write LOCPOT, total local potential
   LVHAR        =      F    write LOCPOT, Hartree potential only
   LELF         =      F    write electronic localiz. function (ELF)
   LORBIT       =     11    0 simple, 1 ext, 2 COOP (PROOUT), +10 PAW based schemes


 Dipole corrections
   LMONO  =      F    monopole corrections only (constant potential shift)
   LDIPOL =      F    correct potential (dipole corrections)
   IDIPOL =      0    1-x, 2-y, 3-z, 4-all directions 
   EPSILON=  1.0000000 bulk dielectric constant

 LDA+U is selected, type is set to LDAUTYPE =  2
   angular momentum for each species LDAUL =     2    2    2
   U (eV)           for each species LDAUU =   0.0  0.1  4.7
   J (eV)           for each species LDAUJ =   0.0  0.0  0.0
 Exchange correlation treatment:
   GGA     =    PS    GGA type
   LEXCH   =    14    internal setting for exchange type
   VOSKOWN=      0    Vosko Wilk Nusair interpolation
   LHFCALC =     F    Hartree Fock is set to
   LHFONE  =     F    Hartree Fock one center treatment
   AEXX    =    0.0000 exact exchange contribution

 Linear response parameters
   LEPSILON=     F    determine dielectric tensor
   LRPA    =     F    only Hartree local field effects (RPA)
   LNABLA  =     F    use nabla operator in PAW spheres
   LVEL    =     F    velocity operator in full k-point grid
   LINTERFAST=   F  fast interpolation
   KINTER  =     0    interpolate to denser k-point grid
   CSHIFT  =0.1000    complex shift for real part using Kramers Kronig
   OMEGAMAX=  -1.0    maximum frequency
   DEG_THRESHOLD= 0.2000000E-02 threshold for treating states as degnerate
   RTIME   =   -0.100 relaxation time in fs
  (WPLASMAI=    0.000 imaginary part of plasma frequency in eV, 0.658/RTIME)
   DFIELD  = 0.0000000 0.0000000 0.0000000 field for delta impulse in time
 
 Orbital magnetization related:
   ORBITALMAG=     F  switch on orbital magnetization
   LCHIMAG   =     F  perturbation theory with respect to B field
   DQ        =  0.001000  dq finite difference perturbation B field
   LLRAUG    =     F  two centre corrections for induced B field

 PEAD related settings:
   LPEAD      =     T    switch on PEAD
   IPEAD      =     4    finite difference order for dpsi/dk
   LCALCPOL   =     T    calculate macroscopic polarization
   LCALCEPS   =     F    calculate dielectric tensor
   EFIELD_PEAD=    0.0000    0.0000    0.0000
   SKIP_EDOTP =     F
   LRPA       =     F
   SKIP_SCF   =     F


--------------------------------------------------------------------------------------------------------


 Static calculation
 charge density and potential will be updated during run
 spin polarized calculation
 Variant of blocked Davidson
 Davidson routine will perform the subspace rotation
 perform sub-space diagonalisation
    after iterative eigenvector-optimisation
 modified Broyden-mixing scheme, WC =      100.0
 initial mixing is a Kerker type mixing with AMIX =  0.4000 and BMIX =      1.0000
 Hartree-type preconditioning will be used
 using additional bands          168
 reciprocal scheme for non local part
 use partial core corrections
 calculate Harris-corrections to forces 
   (improved forces if not selfconsistent)
 use gradient corrections 
 use of overlap-Matrix (Vanderbilt PP)
 Fermi weights with tetrahedron method with Bloechl corrections


--------------------------------------------------------------------------------------------------------


  energy-cutoff  :      700.00
  volume of cell :     1151.08
      direct lattice vectors                 reciprocal lattice vectors
    10.515132000  0.000000000  0.091764000     0.095108284  0.000000000 -0.000829996
     0.000000000 10.516494000  0.000000000     0.000000000  0.095088724  0.000000000
     0.090847000  0.000000000 10.410059000    -0.000838373  0.000000000  0.096068251

  length of vectors
    10.515532398 10.516494000 10.410455396     0.095111906  0.095088724  0.096071909


 
 k-points in units of 2pi/SCALE and weight: Automatic mesh                          
   0.00000000  0.00000000  0.00000000       0.125
   0.04755414  0.00000000 -0.00041500       0.125
   0.00000000  0.04754436  0.00000000       0.125
   0.04755414  0.04754436 -0.00041500       0.125
  -0.00041919  0.00000000  0.04803413       0.125
   0.04713496  0.00000000  0.04761913       0.125
  -0.00041919  0.04754436  0.04803413       0.125
   0.04713496  0.04754436  0.04761913       0.125
 
 k-points in reciprocal lattice and weights: Automatic mesh                          
   0.00000000  0.00000000  0.00000000       0.125
   0.50000000  0.00000000  0.00000000       0.125
   0.00000000  0.50000000  0.00000000       0.125
   0.50000000  0.50000000  0.00000000       0.125
   0.00000000  0.00000000  0.50000000       0.125
   0.50000000  0.00000000  0.50000000       0.125
   0.00000000  0.50000000  0.50000000       0.125
   0.50000000  0.50000000  0.50000000       0.125
 
 position of ions in fractional coordinates (direct lattice) 
   0.12616800  0.12391800  0.12517500
   0.62616800  0.12391800  0.12517500
   0.12616800  0.62391800  0.12517500
   0.62616800  0.62391800  0.12517500
   0.37383200  0.37391800  0.12482500
   0.87383200  0.37391800  0.12482500
   0.37383200  0.87391800  0.12482500
   0.87383200  0.87391800  0.12482500
   0.12500000  0.37308200  0.87500000
   0.62500000  0.37308200  0.87500000
   0.12500000  0.87308200  0.87500000
   0.62500000  0.87308200  0.87500000
   0.37500000  0.12536300  0.87500000
   0.87500000  0.12536300  0.87500000
   0.37500000  0.62536300  0.87500000
   0.87500000  0.62536300  0.87500000
   0.12383200  0.12391800  0.62482500
   0.62383200  0.12391800  0.62482500
   0.12383200  0.62391800  0.62482500
   0.62383200  0.62391800  0.62482500
   0.37616800  0.37391800  0.62517500
   0.87616800  0.37391800  0.62517500
   0.37616800  0.87391800  0.62517500
   0.87616800  0.87391800  0.62517500
   0.37500000  0.12308200  0.37500000
   0.87500000  0.12308200  0.37500000
   0.37500000  0.62308200  0.37500000
   0.87500000  0.62308200  0.37500000
   0.12500000  0.37536300  0.37500000
   0.62500000  0.37536300  0.37500000
   0.12500000  0.87536300  0.37500000
   0.62500000  0.87536300  0.37500000
   0.99968500  0.00094900  0.50000200
   0.49968500  0.00094900  0.50000200
   0.99968500  0.50094900  0.50000200
   0.49968500  0.50094900  0.50000200
   0.25031500  0.00094900  0.24999800
   0.75031500  0.00094900  0.24999800
   0.25031500  0.50094900  0.24999800
   0.75031500  0.50094900  0.24999800
   0.24968500  0.25094900  0.00000200
   0.74968500  0.25094900  0.00000200
   0.24968500  0.75094900  0.00000200
   0.74968500  0.75094900  0.00000200
   0.00031500  0.25094900  0.74999800
   0.50031500  0.25094900  0.74999800
   0.00031500  0.75094900  0.74999800
   0.50031500  0.75094900  0.74999800
   0.99984400  0.00091000  0.00002900
   0.49984400  0.00091000  0.00002900
   0.99984400  0.50091000  0.00002900
   0.49984400  0.50091000  0.00002900
   0.25015600  0.00091000  0.74997100
   0.75015600  0.00091000  0.74997100
   0.25015600  0.50091000  0.74997100
   0.75015600  0.50091000  0.74997100
   0.24984400  0.25091000  0.50002900
   0.74984400  0.25091000  0.50002900
   0.24984400  0.75091000  0.50002900
   0.74984400  0.75091000  0.50002900
   0.00015600  0.25091000  0.24997100
   0.50015600  0.25091000  0.24997100
   0.00015600  0.75091000  0.24997100
   0.50015600  0.75091000  0.24997100
 
 position of ions in cartesian coordinates  (Angst):
   1.33804495  1.30318290  1.31465682
   6.59561095  1.30318290  1.36053882
   1.33804495  6.56142990  1.31465682
   6.59561095  6.56142990  1.36053882
   3.94223280  3.93230640  1.33373993
   9.19979880  3.93230640  1.37962193
   3.94223280  9.19055340  1.33373993
   9.19979880  9.19055340  1.37962193
   1.39388262  3.92351461  9.12027212
   6.65144862  3.92351461  9.16615413
   1.39388262  9.18176161  9.12027212
   6.65144862  9.18176161  9.16615413
   4.02266562  1.31837924  9.14321312
   9.28023163  1.31837924  9.18909512
   4.02266562  6.57662624  9.14321312
   9.28023163  6.57662624  9.18909512
   1.35887330  1.30318290  6.51582843
   6.61643930  1.30318290  6.56171043
   1.35887330  6.56142990  6.51582843
   6.61643930  6.56142990  6.56171043
   4.01225145  3.93230640  6.54262732
   9.26981745  3.93230640  6.58850932
   4.01225145  9.19055340  6.54262732
   9.26981745  9.19055340  6.58850932
   3.97724212  1.29439111  3.93818363
   9.23480813  1.29439111  3.98406562
   3.97724212  6.55263811  3.93818363
   9.23480813  6.55263811  3.98406562
   1.34845912  3.94750274  3.91524263
   6.60602512  3.94750274  3.96112463
   1.34845912  9.20574974  3.91524263
   6.60602512  9.20574974  3.96112463
  10.55724342  0.00998015  5.29678541
   5.29967742  0.00998015  5.25090341
  10.55724342  5.26822715  5.29678541
   5.29967742  5.26822715  5.25090341
   2.65480683  0.00998015  2.62546384
   7.91237283  0.00998015  2.67134584
   2.65480683  5.26822715  2.62546384
   7.91237283  5.26822715  2.67134584
   2.62547092  2.63910365  0.02293291
   7.88303692  2.63910365  0.06881491
   2.62547092  7.89735065  0.02293291
   7.88303692  7.89735065  0.06881491
   0.07144733  2.63910365  7.80755234
   5.32901333  2.63910365  7.85343434
   0.07144733  7.89735065  7.80755234
   5.32901333  7.89735065  7.85343434
  10.51349427  0.00957001  0.09205158
   5.25592827  0.00957001  0.04616958
  10.51349427  5.26781701  0.09205158
   5.25592827  5.26781701  0.04616958
   2.69855598  0.00957001  7.83019767
   7.95612198  0.00957001  7.87607967
   2.69855598  5.26781701  7.83019767
   7.95612198  5.26781701  7.87607967
   2.67256877  2.63869351  5.22825808
   7.93013477  2.63869351  5.27414008
   2.67256877  7.89694051  5.22825808
   7.93013477  7.89694051  5.27414008
   0.02434948  2.63869351  2.60222717
   5.28191548  2.63869351  2.64810917
   0.02434948  7.89694051  2.60222717
   5.28191548  7.89694051  2.64810917
 


--------------------------------------------------------------------------------------------------------


 k-point  1 :   0.0000 0.0000 0.0000  plane waves:   48447
 k-point  2 :   0.5000 0.0000 0.0000  plane waves:   48444
 k-point  3 :   0.0000 0.5000 0.0000  plane waves:   48454
 k-point  4 :   0.5000 0.5000 0.0000  plane waves:   48392
 k-point  5 :   0.0000 0.0000 0.5000  plane waves:   48390
 k-point  6 :   0.5000 0.0000 0.5000  plane waves:   48410
 k-point  7 :   0.0000 0.5000 0.5000  plane waves:   48388
 k-point  8 :   0.5000 0.5000 0.5000  plane waves:   48360

 maximum and minimum number of plane-waves per node :     48454    48360

 maximum number of plane-waves:     48454
 maximum index in each direction: 
   IXMAX=   22   IYMAX=   22   IZMAX=   22
   IXMIN=  -23   IYMIN=  -23   IZMIN=  -22


 serial   3D FFT for wavefunctions
 parallel 3D FFT for charge:
    minimum data exchange during FFTs selected (reduces bandwidth)


 total amount of memory used by VASP MPI-rank0   349631. kBytes
=======================================================================

   base      :      30000. kBytes
   nonl-proj :     217907. kBytes
   fftplans  :       4588. kBytes
   grid      :      69719. kBytes
   one-center:       1990. kBytes
   wavefun   :      25427. kBytes
 
     INWAV:  cpu time    0.0000: real time    0.0000
 Broyden mixing: mesh for mixing (old mesh)
   NGX = 45   NGY = 45   NGZ = 45
  (NGX  =192   NGY  =192   NGZ  =180)
  gives a total of  91125 points

 initial charge density was supplied:
 number of electron     688.0000287 magnetization       0.0000000
 keeping initial charge density in first step


--------------------------------------------------------------------------------------------------------


 Maximum index for augmentation-charges          895 (set IRDMAX)


--------------------------------------------------------------------------------------------------------


 First call to EWALD:  gamma=   0.169
 Maximum number of real-space cells 3x 3x 3
 Maximum number of reciprocal cells 3x 3x 3

    FEWALD:  cpu time    0.0026: real time    0.0030


--------------------------------------- Iteration      1(   1)  ---------------------------------------


    POTLOK:  cpu time    0.3428: real time    0.3808
    SETDIJ:  cpu time    0.0146: real time    0.0147
     EDDAV:  cpu time   84.6956: real time   85.3808
 BZINTS: Fermi energy: 14.945638;688.000000 electrons
         Band energy:***********;  BLOECHL correction: -0.015781
       DOS:  cpu time    0.0410: real time    0.0412
    --------------------------------------------
      LOOP:  cpu time   85.0941: real time   85.8176

 eigenvalue-minimisations  : 16384
 total energy-change (2. order) : 0.6058888E+04  (-0.5160756E+05)
 number of electron     688.0000287 magnetization       0.0000000
 augmentation part      688.0000287 magnetization       0.0000000

 Free energy of the ion-electron system (eV)
  ---------------------------------------------------
  alpha Z        PSCENC =      2355.30856717
  Ewald energy   TEWEN  =    -62461.04795977
  -Hartree energ DENC   =    -42947.60669404
  -exchange      EXHF   =         0.00000000
  -V(xc)+E(xc)   XCENC  =      3286.15617201
  PAW double counting   =    112259.81449706  -115953.62387450
  entropy T*S    EENTRO =         0.00000000
  eigenvalues    EBANDS =     -4500.17777978
  atomic energy  EATOM  =    114020.06510763
  Solvation  Ediel_sol  =         0.00000000
  ---------------------------------------------------
  free energy    TOTEN  =      6058.88803578 eV

  energy without entropy =     6058.88803578  energy(sigma->0) =     6058.88803578


--------------------------------------------------------------------------------------------------------




--------------------------------------- Iteration      1(   2)  ---------------------------------------


     EDDAV:  cpu time  105.1128: real time  105.8959
 BZINTS: Fermi energy:  5.522015;688.000000 electrons
         Band energy:***********;  BLOECHL correction:  0.000000
       DOS:  cpu time    0.0066: real time    0.0066
    --------------------------------------------
      LOOP:  cpu time  105.1193: real time  105.9025

 eigenvalue-minimisations  : 18688
 total energy-change (2. order) :-0.6143442E+04  (-0.6033423E+04)
 number of electron     688.0000287 magnetization       0.0000000
 augmentation part      688.0000287 magnetization       0.0000000

 Free energy of the ion-electron system (eV)
  ---------------------------------------------------
  alpha Z        PSCENC =      2355.30856717
  Ewald energy   TEWEN  =    -62461.04795977
  -Hartree energ DENC   =    -42947.60669404
  -exchange      EXHF   =         0.00000000
  -V(xc)+E(xc)   XCENC  =      3286.15617201
  PAW double counting   =    112259.81449706  -115953.62387450
  entropy T*S    EENTRO =         0.00000000
  eigenvalues    EBANDS =    -10643.61953763
  atomic energy  EATOM  =    114020.06510763
  Solvation  Ediel_sol  =         0.00000000
  ---------------------------------------------------
  free energy    TOTEN  =       -84.55372207 eV

  energy without entropy =      -84.55372207  energy(sigma->0) =      -84.55372207


--------------------------------------------------------------------------------------------------------




--------------------------------------- Iteration      1(   3)  ---------------------------------------


     EDDAV:  cpu time  148.0475: real time  149.0717
 BZINTS: Fermi energy:  4.972120;688.000000 electrons
         Band energy:***********;  BLOECHL correction:  0.000000
       DOS:  cpu time    0.0065: real time    0.0066
    --------------------------------------------
      LOOP:  cpu time  148.0540: real time  149.0783

 eigenvalue-minimisations  : 22272
 total energy-change (2. order) :-0.2414474E+03  (-0.2406904E+03)
 number of electron     688.0000287 magnetization       0.0000000
 augmentation part      688.0000287 magnetization       0.0000000

 Free energy of the ion-electron system (eV)
  ---------------------------------------------------
  alpha Z        PSCENC =      2355.30856717
  Ewald energy   TEWEN  =    -62461.04795977
  -Hartree energ DENC   =    -42947.60669404
  -exchange      EXHF   =         0.00000000
  -V(xc)+E(xc)   XCENC  =      3286.15617201
  PAW double counting   =    112259.81449706  -115953.62387450
  entropy T*S    EENTRO =         0.00000000
  eigenvalues    EBANDS =    -10885.06694091
  atomic energy  EATOM  =    114020.06510763
  Solvation  Ediel_sol  =         0.00000000
  ---------------------------------------------------
  free energy    TOTEN  =      -326.00112536 eV

  energy without entropy =     -326.00112536  energy(sigma->0) =     -326.00112536


--------------------------------------------------------------------------------------------------------




--------------------------------------- Iteration      1(   4)  ---------------------------------------


     EDDAV:  cpu time  132.1726: real time  133.1132
 BZINTS: Fermi energy:  4.851099;688.000000 electrons
         Band energy:***********;  BLOECHL correction:  0.000000
       DOS:  cpu time    0.0063: real time    0.0063
    --------------------------------------------
      LOOP:  cpu time  132.1789: real time  133.1196

 eigenvalue-minimisations  : 20480
 total energy-change (2. order) :-0.3349379E+01  (-0.3349247E+01)
 number of electron     688.0000287 magnetization       0.0000000
 augmentation part      688.0000287 magnetization       0.0000000

 Free energy of the ion-electron system (eV)
  ---------------------------------------------------
  alpha Z        PSCENC =      2355.30856717
  Ewald energy   TEWEN  =    -62461.04795977
  -Hartree energ DENC   =    -42947.60669404
  -exchange      EXHF   =         0.00000000
  -V(xc)+E(xc)   XCENC  =      3286.15617201
  PAW double counting   =    112259.81449706  -115953.62387450
  entropy T*S    EENTRO =         0.00000000
  eigenvalues    EBANDS =    -10888.41632000
  atomic energy  EATOM  =    114020.06510763
  Solvation  Ediel_sol  =         0.00000000
  ---------------------------------------------------
  free energy    TOTEN  =      -329.35050445 eV

  energy without entropy =     -329.35050445  energy(sigma->0) =     -329.35050445


--------------------------------------------------------------------------------------------------------




--------------------------------------- Iteration      1(   5)  ---------------------------------------


     EDDAV:  cpu time  137.2942: real time  138.2662
 BZINTS: Fermi energy:  4.831648;688.000000 electrons
         Band energy:***********;  BLOECHL correction:  0.000000
       DOS:  cpu time    0.0054: real time    0.0055
    CHARGE:  cpu time    1.3948: real time    1.4049
    MIXING:  cpu time    0.0045: real time    0.0045
    --------------------------------------------
      LOOP:  cpu time  138.6989: real time  139.6810

 eigenvalue-minimisations  : 20992
 total energy-change (2. order) :-0.1040651E+00  (-0.1040647E+00)
 number of electron     688.0000446 magnetization       0.0000000
 augmentation part      282.3860669 magnetization       0.0000000

 Broyden mixing:
  rms(total) = 0.88163E+00    rms(broyden)= 0.88150E+00
  rms(prec ) = 0.99065E+00
  weight for this iteration     100.00

 Free energy of the ion-electron system (eV)
  ---------------------------------------------------
  alpha Z        PSCENC =      2355.30856717
  Ewald energy   TEWEN  =    -62461.04795977
  -Hartree energ DENC   =    -42947.60669404
  -exchange      EXHF   =         0.00000000
  -V(xc)+E(xc)   XCENC  =      3286.15617201
  PAW double counting   =    112259.81449706  -115953.62387450
  entropy T*S    EENTRO =         0.00000000
  eigenvalues    EBANDS =    -10888.52038508
  atomic energy  EATOM  =    114020.06510763
  Solvation  Ediel_sol  =         0.00000000
  ---------------------------------------------------
  free energy    TOTEN  =      -329.45456953 eV

  energy without entropy =     -329.45456953  energy(sigma->0) =     -329.45456953


--------------------------------------------------------------------------------------------------------




--------------------------------------- Iteration      1(   6)  ---------------------------------------


    POTLOK:  cpu time    0.1507: real time    0.1525
    SETDIJ:  cpu time    0.0128: real time    0.0129
     EDDAV:  cpu time  194.1488: real time  195.4597
 BZINTS: Fermi energy:  4.815755;688.000000 electrons
         Band energy:***********;  BLOECHL correction:  0.000000
       DOS:  cpu time    0.0055: real time    0.0055
    CHARGE:  cpu time    1.3908: real time    1.4011
    MIXING:  cpu time    0.0026: real time    0.0120
    --------------------------------------------
      LOOP:  cpu time  195.7112: real time  197.0437

 eigenvalue-minimisations  : 26624
 total energy-change (2. order) : 0.1030828E+01  (-0.7878375E-01)
 number of electron     688.0000446 magnetization       0.0000000
 augmentation part      282.1146403 magnetization       0.0000000

 Broyden mixing:
  rms(total) = 0.46349E+00    rms(broyden)= 0.46348E+00
  rms(prec ) = 0.52090E+00
  weight for this iteration     100.00

 eigenvalues of (default mixing * dielectric matrix)
  average eigenvalue GAMMA=   0.9514
  0.9514

 Free energy of the ion-electron system (eV)
  ---------------------------------------------------
  alpha Z        PSCENC =      2355.30856717
  Ewald energy   TEWEN  =    -62461.04795977
  -Hartree energ DENC   =    -42962.97744272
  -exchange      EXHF   =         0.00000000
  -V(xc)+E(xc)   XCENC  =      3286.58050719
  PAW double counting   =    112396.25916139  -116092.07096186
  entropy T*S    EENTRO =         0.00000000
  eigenvalues    EBANDS =    -10870.54072008
  atomic energy  EATOM  =    114020.06510763
  Solvation  Ediel_sol  =         0.00000000
  ---------------------------------------------------
  free energy    TOTEN  =      -328.42374106 eV

  energy without entropy =     -328.42374106  energy(sigma->0) =     -328.42374106


--------------------------------------------------------------------------------------------------------




--------------------------------------- Iteration      1(   7)  ---------------------------------------


    POTLOK:  cpu time    0.1506: real time    0.1538
    SETDIJ:  cpu time    0.0130: real time    0.0130
     EDDAV:  cpu time  149.9574: real time  151.0200
 BZINTS: Fermi energy:  4.807036;688.000000 electrons
         Band energy:***********;  BLOECHL correction:  0.000000
       DOS:  cpu time    0.0055: real time    0.0055
    CHARGE:  cpu time    1.3965: real time    1.4068
    MIXING:  cpu time    0.0020: real time    0.0173
    --------------------------------------------
      LOOP:  cpu time  151.5249: real time  152.6164

 eigenvalue-minimisations  : 23296
 total energy-change (2. order) : 0.3213351E+00  (-0.6832433E-01)
 number of electron     688.0000447 magnetization       0.0000000
 augmentation part      282.3411130 magnetization       0.0000000

 Broyden mixing:
  rms(total) = 0.24073E+00    rms(broyden)= 0.24073E+00
  rms(prec ) = 0.25252E+00
  weight for this iteration     100.00

 eigenvalues of (default mixing * dielectric matrix)
  average eigenvalue GAMMA=   1.1733
  1.7050  0.6416

 Free energy of the ion-electron system (eV)
  ---------------------------------------------------
  alpha Z        PSCENC =      2355.30856717
  Ewald energy   TEWEN  =    -62461.04795977
  -Hartree energ DENC   =    -42949.63599711
  -exchange      EXHF   =         0.00000000
  -V(xc)+E(xc)   XCENC  =      3286.33970063
  PAW double counting   =    112358.43010781  -116051.20684816
  entropy T*S    EENTRO =         0.00000000
  eigenvalues    EBANDS =    -10886.35508416
  atomic energy  EATOM  =    114020.06510763
  Solvation  Ediel_sol  =         0.00000000
  ---------------------------------------------------
  free energy    TOTEN  =      -328.10240597 eV

  energy without entropy =     -328.10240597  energy(sigma->0) =     -328.10240597


--------------------------------------------------------------------------------------------------------




--------------------------------------- Iteration      1(   8)  ---------------------------------------


    POTLOK:  cpu time    0.1567: real time    0.1577
    SETDIJ:  cpu time    0.0134: real time    0.0135
     EDDAV:  cpu time  171.8573: real time  173.0279
 BZINTS: Fermi energy:  4.802735;688.000000 electrons
         Band energy:***********;  BLOECHL correction:  0.000000
       DOS:  cpu time    0.0054: real time    0.0055
    CHARGE:  cpu time    1.3939: real time    1.4041
    MIXING:  cpu time    0.0014: real time    0.0014
    --------------------------------------------
      LOOP:  cpu time  173.4282: real time  174.6100

 eigenvalue-minimisations  : 24320
 total energy-change (2. order) : 0.1326917E-01  (-0.1360026E-01)
 number of electron     688.0000447 magnetization       0.0000000
 augmentation part      282.2330903 magnetization       0.0000000

 Broyden mixing:
  rms(total) = 0.10278E+00    rms(broyden)= 0.10277E+00
  rms(prec ) = 0.10707E+00
  weight for this iteration     100.00

 eigenvalues of (default mixing * dielectric matrix)
  average eigenvalue GAMMA=   1.0771
  1.9158  0.7215  0.5941

 Free energy of the ion-electron system (eV)
  ---------------------------------------------------
  alpha Z        PSCENC =      2355.30856717
  Ewald energy   TEWEN  =    -62461.04795977
  -Hartree energ DENC   =    -42958.46129311
  -exchange      EXHF   =         0.00000000
  -V(xc)+E(xc)   XCENC  =      3286.54590382
  PAW double counting   =    112330.54117512  -116024.88466523
  entropy T*S    EENTRO =         0.00000000
  eigenvalues    EBANDS =    -10876.15597243
  atomic energy  EATOM  =    114020.06510763
  Solvation  Ediel_sol  =         0.00000000
  ---------------------------------------------------
  free energy    TOTEN  =      -328.08913679 eV

  energy without entropy =     -328.08913679  energy(sigma->0) =     -328.08913679


--------------------------------------------------------------------------------------------------------




--------------------------------------- Iteration      1(   9)  ---------------------------------------


    POTLOK:  cpu time    0.1501: real time    0.1512
    SETDIJ:  cpu time    0.0130: real time    0.0130
     EDDAV:  cpu time  144.2376: real time  145.2355
 BZINTS: Fermi energy:  5.006177;688.000000 electrons
         Band energy:***********;  BLOECHL correction:  0.000000
       DOS:  cpu time    0.0062: real time    0.0063
    CHARGE:  cpu time    1.3945: real time    1.4046
    MIXING:  cpu time    0.0017: real time    0.0115
    --------------------------------------------
      LOOP:  cpu time  145.8031: real time  146.8220

 eigenvalue-minimisations  : 21504
 total energy-change (2. order) :-0.1079945E-02  (-0.3052701E-02)
 number of electron     688.0000447 magnetization       0.0000000
 augmentation part      282.2004028 magnetization       0.0000000

 Broyden mixing:
  rms(total) = 0.71450E-01    rms(broyden)= 0.71450E-01
  rms(prec ) = 0.77841E-01
  weight for this iteration     100.00

 eigenvalues of (default mixing * dielectric matrix)
  average eigenvalue GAMMA=   1.0134
  1.9171  0.7682  0.6842  0.6842

 Free energy of the ion-electron system (eV)
  ---------------------------------------------------
  alpha Z        PSCENC =      2355.30856717
  Ewald energy   TEWEN  =    -62461.04795977
  -Hartree energ DENC   =    -42957.74076563
  -exchange      EXHF   =         0.00000000
  -V(xc)+E(xc)   XCENC  =      3286.45020954
  PAW double counting   =    112322.21526254  -116016.35950605
  entropy T*S    EENTRO =         0.00000000
  eigenvalues    EBANDS =    -10876.98113217
  atomic energy  EATOM  =    114020.06510763
  Solvation  Ediel_sol  =         0.00000000
  ---------------------------------------------------
  free energy    TOTEN  =      -328.09021674 eV

  energy without entropy =     -328.09021674  energy(sigma->0) =     -328.09021674


--------------------------------------------------------------------------------------------------------




--------------------------------------- Iteration      1(  10)  ---------------------------------------


    POTLOK:  cpu time    0.1531: real time    0.1540
    SETDIJ:  cpu time    0.0128: real time    0.0129
     EDDAV:  cpu time  158.7404: real time  159.8244
 BZINTS: Fermi energy:  5.001057;688.000000 electrons
         Band energy:***********;  BLOECHL correction:  0.000000
       DOS:  cpu time    0.0063: real time    0.0063
    CHARGE:  cpu time    1.3951: real time    1.4052
    MIXING:  cpu time    0.0016: real time    0.0016
    --------------------------------------------
      LOOP:  cpu time  160.3093: real time  161.4044

 eigenvalue-minimisations  : 22528
 total energy-change (2. order) :-0.9504474E-03  (-0.3534317E-02)
 number of electron     688.0000447 magnetization       0.0000000
 augmentation part      282.2232764 magnetization       0.0000000

 Broyden mixing:
  rms(total) = 0.66584E-01    rms(broyden)= 0.66583E-01
  rms(prec ) = 0.73979E-01
  weight for this iteration     100.00

 eigenvalues of (default mixing * dielectric matrix)
  average eigenvalue GAMMA=   1.0107
  1.7209  1.7209  0.7001  0.5293  0.3823

 Free energy of the ion-electron system (eV)
  ---------------------------------------------------
  alpha Z        PSCENC =      2355.30856717
  Ewald energy   TEWEN  =    -62461.04795977
  -Hartree energ DENC   =    -42958.88022077
  -exchange      EXHF   =         0.00000000
  -V(xc)+E(xc)   XCENC  =      3286.55711770
  PAW double counting   =    112309.58761103  -116003.59251124
  entropy T*S    EENTRO =         0.00000000
  eigenvalues    EBANDS =    -10876.08887894
  atomic energy  EATOM  =    114020.06510763
  Solvation  Ediel_sol  =         0.00000000
  ---------------------------------------------------
  free energy    TOTEN  =      -328.09116718 eV

  energy without entropy =     -328.09116718  energy(sigma->0) =     -328.09116718


--------------------------------------------------------------------------------------------------------




--------------------------------------- Iteration      1(  11)  ---------------------------------------


    POTLOK:  cpu time    0.1526: real time    0.1538
    SETDIJ:  cpu time    0.0129: real time    0.0130
     EDDAV:  cpu time  127.5453: real time  128.4544
 BZINTS: Fermi energy:  4.991789;688.000000 electrons
         Band energy:***********;  BLOECHL correction:  0.000000
       DOS:  cpu time    0.0064: real time    0.0064
    CHARGE:  cpu time    1.3932: real time    1.4036
    MIXING:  cpu time    0.0015: real time    0.0015
    --------------------------------------------
      LOOP:  cpu time  129.1120: real time  130.0327

 eigenvalue-minimisations  : 20480
 total energy-change (2. order) : 0.1607855E-03  (-0.1512314E-02)
 number of electron     688.0000447 magnetization       0.0000000
 augmentation part      282.2308197 magnetization       0.0000000

 Broyden mixing:
  rms(total) = 0.22102E-01    rms(broyden)= 0.22101E-01
  rms(prec ) = 0.22986E-01
  weight for this iteration     100.00

 eigenvalues of (default mixing * dielectric matrix)
  average eigenvalue GAMMA=   1.1665
  2.1966  2.1966  0.9893  0.6831  0.5941  0.3394

 Free energy of the ion-electron system (eV)
  ---------------------------------------------------
  alpha Z        PSCENC =      2355.30856717
  Ewald energy   TEWEN  =    -62461.04795977
  -Hartree energ DENC   =    -42956.98707232
  -exchange      EXHF   =         0.00000000
  -V(xc)+E(xc)   XCENC  =      3286.45731566
  PAW double counting   =    112289.92236812  -115983.77520723
  entropy T*S    EENTRO =         0.00000000
  eigenvalues    EBANDS =    -10878.03412566
  atomic energy  EATOM  =    114020.06510763
  Solvation  Ediel_sol  =         0.00000000
  ---------------------------------------------------
  free energy    TOTEN  =      -328.09100640 eV

  energy without entropy =     -328.09100640  energy(sigma->0) =     -328.09100640


--------------------------------------------------------------------------------------------------------




--------------------------------------- Iteration      1(  12)  ---------------------------------------


    POTLOK:  cpu time    0.1517: real time    0.1527
    SETDIJ:  cpu time    0.0129: real time    0.0130
     EDDAV:  cpu time  175.6152: real time  176.7936
 BZINTS: Fermi energy:  4.989787;688.000000 electrons
         Band energy:***********;  BLOECHL correction:  0.000000
       DOS:  cpu time    0.0062: real time    0.0063
    CHARGE:  cpu time    1.3920: real time    1.4020
    MIXING:  cpu time    0.0016: real time    0.0016
    --------------------------------------------
      LOOP:  cpu time  177.1796: real time  178.3691

 eigenvalue-minimisations  : 24064
 total energy-change (2. order) :-0.6492037E-03  (-0.2541934E-03)
 number of electron     688.0000447 magnetization       0.0000000
 augmentation part      282.2137517 magnetization       0.0000000

 Broyden mixing:
  rms(total) = 0.77853E-02    rms(broyden)= 0.77850E-02
  rms(prec ) = 0.83999E-02
  weight for this iteration     100.00

 eigenvalues of (default mixing * dielectric matrix)
  average eigenvalue GAMMA=   1.1214
  2.2468  2.2468  0.9055  0.8118  0.6763  0.6236  0.3387

 Free energy of the ion-electron system (eV)
  ---------------------------------------------------
  alpha Z        PSCENC =      2355.30856717
  Ewald energy   TEWEN  =    -62461.04795977
  -Hartree energ DENC   =    -42958.27592462
  -exchange      EXHF   =         0.00000000
  -V(xc)+E(xc)   XCENC  =      3286.49809783
  PAW double counting   =    112275.69854454  -115969.73570755
  entropy T*S    EENTRO =         0.00000000
  eigenvalues    EBANDS =    -10876.60238083
  atomic energy  EATOM  =    114020.06510763
  Solvation  Ediel_sol  =         0.00000000
  ---------------------------------------------------
  free energy    TOTEN  =      -328.09165560 eV

  energy without entropy =     -328.09165560  energy(sigma->0) =     -328.09165560


--------------------------------------------------------------------------------------------------------




--------------------------------------- Iteration      1(  13)  ---------------------------------------


    POTLOK:  cpu time    0.1502: real time    0.1514
    SETDIJ:  cpu time    0.0128: real time    0.0129
     EDDAV:  cpu time  130.7020: real time  131.6172
 BZINTS: Fermi energy:  4.987890;688.000000 electrons
         Band energy:***********;  BLOECHL correction:  0.000000
       DOS:  cpu time    0.0063: real time    0.0063
    CHARGE:  cpu time    1.3981: real time    1.4077
    MIXING:  cpu time    0.0017: real time    0.0017
    --------------------------------------------
      LOOP:  cpu time  132.2711: real time  133.1972

 eigenvalue-minimisations  : 19968
 total energy-change (2. order) :-0.8182637E-04  (-0.2565121E-04)
 number of electron     688.0000447 magnetization       0.0000000
 augmentation part      282.2238741 magnetization       0.0000000

 Broyden mixing:
  rms(total) = 0.53608E-02    rms(broyden)= 0.53607E-02
  rms(prec ) = 0.57058E-02
  weight for this iteration     100.00

 eigenvalues of (default mixing * dielectric matrix)
  average eigenvalue GAMMA=   1.1410
  2.2931  2.2931  1.1699  1.1699  0.3375  0.5944  0.5944  0.6760

 Free energy of the ion-electron system (eV)
  ---------------------------------------------------
  alpha Z        PSCENC =      2355.30856717
  Ewald energy   TEWEN  =    -62461.04795977
  -Hartree energ DENC   =    -42957.61854067
  -exchange      EXHF   =         0.00000000
  -V(xc)+E(xc)   XCENC  =      3286.48136517
  PAW double counting   =    112272.43366045  -115966.34655860
  entropy T*S    EENTRO =         0.00000000
  eigenvalues    EBANDS =    -10877.36737881
  atomic energy  EATOM  =    114020.06510763
  Solvation  Ediel_sol  =         0.00000000
  ---------------------------------------------------
  free energy    TOTEN  =      -328.09173743 eV

  energy without entropy =     -328.09173743  energy(sigma->0) =     -328.09173743


--------------------------------------------------------------------------------------------------------




--------------------------------------- Iteration      1(  14)  ---------------------------------------


    POTLOK:  cpu time    0.1504: real time    0.1514
    SETDIJ:  cpu time    0.0128: real time    0.0129
     EDDAV:  cpu time  183.3667: real time  184.5950
 BZINTS: Fermi energy:  4.986989;688.000000 electrons
         Band energy:***********;  BLOECHL correction:  0.000000
       DOS:  cpu time    0.0063: real time    0.0063
    CHARGE:  cpu time    1.3951: real time    1.4052
    MIXING:  cpu time    0.0018: real time    0.0018
    --------------------------------------------
      LOOP:  cpu time  184.9331: real time  186.1726

 eigenvalue-minimisations  : 24832
 total energy-change (2. order) :-0.7074732E-04  (-0.2540158E-04)
 number of electron     688.0000447 magnetization       0.0000000
 augmentation part      282.2216229 magnetization       0.0000000

 Broyden mixing:
  rms(total) = 0.27921E-02    rms(broyden)= 0.27919E-02
  rms(prec ) = 0.29871E-02
  weight for this iteration     100.00

 eigenvalues of (default mixing * dielectric matrix)
  average eigenvalue GAMMA=   1.2062
  2.4868  2.4868  1.4697  1.4697  0.3371  0.7444  0.6780  0.5916  0.5916

 Free energy of the ion-electron system (eV)
  ---------------------------------------------------
  alpha Z        PSCENC =      2355.30856717
  Ewald energy   TEWEN  =    -62461.04795977
  -Hartree energ DENC   =    -42957.85338541
  -exchange      EXHF   =         0.00000000
  -V(xc)+E(xc)   XCENC  =      3286.48708737
  PAW double counting   =    112270.85986997  -115964.82349571
  entropy T*S    EENTRO =         0.00000000
  eigenvalues    EBANDS =    -10877.08759942
  atomic energy  EATOM  =    114020.06510763
  Solvation  Ediel_sol  =         0.00000000
  ---------------------------------------------------
  free energy    TOTEN  =      -328.09180818 eV

  energy without entropy =     -328.09180818  energy(sigma->0) =     -328.09180818


--------------------------------------------------------------------------------------------------------




--------------------------------------- Iteration      1(  15)  ---------------------------------------


    POTLOK:  cpu time    0.1475: real time    0.1512
    SETDIJ:  cpu time    0.0128: real time    0.0129
     EDDAV:  cpu time  153.9707: real time  155.0214
 BZINTS: Fermi energy:  4.986514;688.000000 electrons
         Band energy:***********;  BLOECHL correction:  0.000000
       DOS:  cpu time    0.0064: real time    0.0064
    CHARGE:  cpu time    1.3991: real time    1.4094
    MIXING:  cpu time    0.0019: real time    0.0019
    --------------------------------------------
      LOOP:  cpu time  155.5384: real time  156.6033

 eigenvalue-minimisations  : 22784
 total energy-change (2. order) :-0.2362022E-04  (-0.7528610E-05)
 number of electron     688.0000447 magnetization       0.0000000
 augmentation part      282.2198281 magnetization       0.0000000

 Broyden mixing:
  rms(total) = 0.15718E-02    rms(broyden)= 0.15716E-02
  rms(prec ) = 0.16992E-02
  weight for this iteration     100.00

 eigenvalues of (default mixing * dielectric matrix)
  average eigenvalue GAMMA=   1.2092
  2.7701  2.3088  1.8538  1.1492  1.1492  0.3370  0.5967  0.5967  0.7057  0.6250

 Free energy of the ion-electron system (eV)
  ---------------------------------------------------
  alpha Z        PSCENC =      2355.30856717
  Ewald energy   TEWEN  =    -62461.04795977
  -Hartree energ DENC   =    -42957.88240328
  -exchange      EXHF   =         0.00000000
  -V(xc)+E(xc)   XCENC  =      3286.48688633
  PAW double counting   =    112270.29888151  -115964.26366288
  entropy T*S    EENTRO =         0.00000000
  eigenvalues    EBANDS =    -10877.05724850
  atomic energy  EATOM  =    114020.06510763
  Solvation  Ediel_sol  =         0.00000000
  ---------------------------------------------------
  free energy    TOTEN  =      -328.09183180 eV

  energy without entropy =     -328.09183180  energy(sigma->0) =     -328.09183180


--------------------------------------------------------------------------------------------------------




--------------------------------------- Iteration      1(  16)  ---------------------------------------


    POTLOK:  cpu time    0.1463: real time    0.1514
    SETDIJ:  cpu time    0.0131: real time    0.0132
     EDDAV:  cpu time  163.1475: real time  164.2402
 BZINTS: Fermi energy:  4.986043;688.000000 electrons
         Band energy:***********;  BLOECHL correction:  0.000000
       DOS:  cpu time    0.0063: real time    0.0063
    CHARGE:  cpu time    1.3946: real time    1.4046
    MIXING:  cpu time    0.0020: real time    0.0026
    --------------------------------------------
      LOOP:  cpu time  164.7099: real time  165.8183

 eigenvalue-minimisations  : 22528
 total energy-change (2. order) :-0.1012272E-04  (-0.2537691E-05)
 number of electron     688.0000447 magnetization       0.0000000
 augmentation part      282.2211978 magnetization       0.0000000

 Broyden mixing:
  rms(total) = 0.10214E-02    rms(broyden)= 0.10213E-02
  rms(prec ) = 0.10802E-02
  weight for this iteration     100.00

 eigenvalues of (default mixing * dielectric matrix)
  average eigenvalue GAMMA=   1.2707
  3.1220  2.1734  2.1734  1.3825  1.3825  0.9026  0.3370  0.7030  0.5955  0.5955
  0.6108

 Free energy of the ion-electron system (eV)
  ---------------------------------------------------
  alpha Z        PSCENC =      2355.30856717
  Ewald energy   TEWEN  =    -62461.04795977
  -Hartree energ DENC   =    -42957.82424083
  -exchange      EXHF   =         0.00000000
  -V(xc)+E(xc)   XCENC  =      3286.48663207
  PAW double counting   =    112269.71462389  -115963.66965385
  entropy T*S    EENTRO =         0.00000000
  eigenvalues    EBANDS =    -10877.12491823
  atomic energy  EATOM  =    114020.06510763
  Solvation  Ediel_sol  =         0.00000000
  ---------------------------------------------------
  free energy    TOTEN  =      -328.09184192 eV

  energy without entropy =     -328.09184192  energy(sigma->0) =     -328.09184192


--------------------------------------------------------------------------------------------------------




--------------------------------------- Iteration      1(  17)  ---------------------------------------


    POTLOK:  cpu time    0.1518: real time    0.1529
    SETDIJ:  cpu time    0.0129: real time    0.0130
     EDDAV:  cpu time  155.4351: real time  156.4949
 BZINTS: Fermi energy:  4.985831;688.000000 electrons
         Band energy:***********;  BLOECHL correction:  0.000000
       DOS:  cpu time    0.0063: real time    0.0064
    CHARGE:  cpu time    1.6946: real time    1.7058
    MIXING:  cpu time    0.0023: real time    0.0023
    --------------------------------------------
      LOOP:  cpu time  157.3030: real time  158.3753

 eigenvalue-minimisations  : 22016
 total energy-change (2. order) :-0.7047434E-05  (-0.3162484E-05)
 number of electron     688.0000447 magnetization       0.0000000
 augmentation part      282.2209921 magnetization       0.0000000

 Broyden mixing:
  rms(total) = 0.64734E-03    rms(broyden)= 0.64722E-03
  rms(prec ) = 0.72140E-03
  weight for this iteration     100.00

 eigenvalues of (default mixing * dielectric matrix)
  average eigenvalue GAMMA=   1.3526
  3.9335  2.3387  2.3387  1.5477  1.5477  0.9756  0.3370  0.6016  0.6016  0.7207
  0.6831  0.6055

 Free energy of the ion-electron system (eV)
  ---------------------------------------------------
  alpha Z        PSCENC =      2355.30856717
  Ewald energy   TEWEN  =    -62461.04795977
  -Hartree energ DENC   =    -42957.85457039
  -exchange      EXHF   =         0.00000000
  -V(xc)+E(xc)   XCENC  =      3286.48740736
  PAW double counting   =    112269.46990571  -115963.43057246
  entropy T*S    EENTRO =         0.00000000
  eigenvalues    EBANDS =    -10877.08973421
  atomic energy  EATOM  =    114020.06510763
  Solvation  Ediel_sol  =         0.00000000
  ---------------------------------------------------
  free energy    TOTEN  =      -328.09184897 eV

  energy without entropy =     -328.09184897  energy(sigma->0) =     -328.09184897


--------------------------------------------------------------------------------------------------------




--------------------------------------- Iteration      1(  18)  ---------------------------------------


    POTLOK:  cpu time    0.1632: real time    0.1644
    SETDIJ:  cpu time    0.0164: real time    0.0164
     EDDAV:  cpu time  128.2764: real time  129.1732
 BZINTS: Fermi energy:  4.985644;688.000000 electrons
         Band energy:***********;  BLOECHL correction:  0.000000
       DOS:  cpu time    0.0063: real time    0.0064
    CHARGE:  cpu time    1.3960: real time    1.4061
    MIXING:  cpu time    0.0022: real time    0.0022
    --------------------------------------------
      LOOP:  cpu time  129.8605: real time  130.7688

 eigenvalue-minimisations  : 19456
 total energy-change (2. order) :-0.1580978E-05  (-0.1016247E-05)
 number of electron     688.0000447 magnetization       0.0000000
 augmentation part      282.2209950 magnetization       0.0000000

 Broyden mixing:
  rms(total) = 0.29268E-03    rms(broyden)= 0.29258E-03
  rms(prec ) = 0.31328E-03
  weight for this iteration     100.00

 eigenvalues of (default mixing * dielectric matrix)
  average eigenvalue GAMMA=   1.3525
  4.2373  2.4134  2.4134  1.6929  1.1838  1.0625  1.0625  0.3370  0.5986  0.5986
  0.7192  0.6555  0.6081

 Free energy of the ion-electron system (eV)
  ---------------------------------------------------
  alpha Z        PSCENC =      2355.30856717
  Ewald energy   TEWEN  =    -62461.04795977
  -Hartree energ DENC   =    -42957.84205069
  -exchange      EXHF   =         0.00000000
  -V(xc)+E(xc)   XCENC  =      3286.48693419
  PAW double counting   =    112269.54847543  -115963.50867985
  entropy T*S    EENTRO =         0.00000000
  eigenvalues    EBANDS =    -10877.10224466
  atomic energy  EATOM  =    114020.06510763
  Solvation  Ediel_sol  =         0.00000000
  ---------------------------------------------------
  free energy    TOTEN  =      -328.09185055 eV

  energy without entropy =     -328.09185055  energy(sigma->0) =     -328.09185055


--------------------------------------------------------------------------------------------------------




--------------------------------------- Iteration      1(  19)  ---------------------------------------


    POTLOK:  cpu time    0.1492: real time    0.1509
    SETDIJ:  cpu time    0.0130: real time    0.0130
     EDDAV:  cpu time  153.5269: real time  154.5603
 BZINTS: Fermi energy:  4.985501;688.000000 electrons
         Band energy:***********;  BLOECHL correction:  0.000000
       DOS:  cpu time    0.0063: real time    0.0063
    CHARGE:  cpu time    1.4047: real time    1.4149
    MIXING:  cpu time    0.0021: real time    0.0021
    --------------------------------------------
      LOOP:  cpu time  155.1021: real time  156.1476

 eigenvalue-minimisations  : 21504
 total energy-change (2. order) :-0.2131128E-06  (-0.1369223E-06)
 number of electron     688.0000447 magnetization       0.0000000
 augmentation part      282.2209313 magnetization       0.0000000

 Broyden mixing:
[...]
   -.421E+02 0.605E+01 -.554E+00   0.430E+02 -.609E+01 0.561E+00   -.860E+00 0.395E-01 -.686E-02   0.465E-04 0.438E-05 -.102E-04
   -.421E+02 0.605E+01 -.554E+00   0.430E+02 -.609E+01 0.561E+00   -.860E+00 0.395E-01 -.686E-02   0.466E-04 0.438E-05 -.102E-04
   -.421E+02 0.605E+01 -.554E+00   0.430E+02 -.609E+01 0.561E+00   -.860E+00 0.395E-01 -.686E-02   0.465E-04 0.441E-05 -.102E-04
   -.421E+02 0.605E+01 -.554E+00   0.430E+02 -.609E+01 0.561E+00   -.860E+00 0.395E-01 -.686E-02   0.466E-04 0.441E-05 -.102E-04
   0.421E+02 0.605E+01 0.554E+00   -.430E+02 -.609E+01 -.561E+00   0.860E+00 0.395E-01 0.686E-02   -.466E-04 0.440E-05 0.102E-04
   0.421E+02 0.605E+01 0.554E+00   -.430E+02 -.609E+01 -.561E+00   0.860E+00 0.395E-01 0.686E-02   -.466E-04 0.440E-05 0.102E-04
   0.421E+02 0.605E+01 0.554E+00   -.430E+02 -.609E+01 -.561E+00   0.860E+00 0.395E-01 0.686E-02   -.466E-04 0.440E-05 0.102E-04
   0.421E+02 0.605E+01 0.554E+00   -.430E+02 -.609E+01 -.561E+00   0.860E+00 0.395E-01 0.686E-02   -.466E-04 0.440E-05 0.102E-04
   0.606E-07 -.375E+02 0.169E-06   0.355E-13 0.383E+02 -.355E-13   0.109E-22 -.823E+00 0.331E-23   -.887E-10 0.407E-04 0.441E-08
   0.606E-07 -.375E+02 0.169E-06   0.302E-13 0.383E+02 -.355E-13   -.781E-23 -.823E+00 -.414E-23   -.605E-10 0.407E-04 -.441E-08
   0.606E-07 -.375E+02 0.169E-06   0.000E+00 0.383E+02 0.711E-13   -.844E-23 -.823E+00 0.455E-23   -.888E-10 0.407E-04 0.441E-08
   0.606E-07 -.375E+02 0.169E-06   0.355E-13 0.383E+02 0.142E-13   0.182E-23 -.823E+00 -.165E-23   -.605E-10 0.407E-04 -.441E-08
   0.842E-08 0.469E+02 -.977E-07   -.533E-13 -.478E+02 -.702E-13   0.803E-24 0.900E+00 -.103E-23   -.142E-07 -.494E-04 0.111E-09
   0.842E-08 0.469E+02 -.977E-07   -.675E-13 -.478E+02 -.924E-13   -.653E-24 0.900E+00 -.827E-24   0.142E-07 -.494E-04 -.110E-09
   0.842E-08 0.469E+02 -.977E-07   -.853E-13 -.478E+02 -.924E-13   0.969E-25 0.900E+00 -.124E-23   -.142E-07 -.494E-04 0.111E-09
   0.842E-08 0.469E+02 -.977E-07   -.853E-13 -.478E+02 -.853E-13   -.352E-24 0.900E+00 -.165E-23   0.142E-07 -.494E-04 -.109E-09
   0.131E+01 -.575E+01 0.144E+00   -.129E+01 0.551E+01 -.147E+00   -.173E-01 0.232E+00 0.159E-02   0.345E-05 -.182E-04 0.320E-05
   0.131E+01 -.575E+01 0.144E+00   -.129E+01 0.551E+01 -.147E+00   -.173E-01 0.232E+00 0.159E-02   0.350E-05 -.182E-04 0.321E-05
   0.131E+01 -.575E+01 0.144E+00   -.129E+01 0.551E+01 -.147E+00   -.173E-01 0.232E+00 0.159E-02   0.345E-05 -.181E-04 0.318E-05
   0.131E+01 -.575E+01 0.144E+00   -.129E+01 0.551E+01 -.147E+00   -.173E-01 0.232E+00 0.159E-02   0.350E-05 -.181E-04 0.319E-05
   -.131E+01 -.575E+01 -.144E+00   0.129E+01 0.551E+01 0.147E+00   0.173E-01 0.232E+00 -.159E-02   -.351E-05 -.182E-04 -.320E-05
   -.131E+01 -.575E+01 -.144E+00   0.129E+01 0.551E+01 0.147E+00   0.173E-01 0.232E+00 -.159E-02   -.344E-05 -.182E-04 -.321E-05
   -.131E+01 -.575E+01 -.144E+00   0.129E+01 0.551E+01 0.147E+00   0.173E-01 0.232E+00 -.159E-02   -.352E-05 -.181E-04 -.318E-05
   -.131E+01 -.575E+01 -.144E+00   0.129E+01 0.551E+01 0.147E+00   0.173E-01 0.232E+00 -.159E-02   -.344E-05 -.181E-04 -.319E-05
   0.131E+01 -.575E+01 0.144E+00   -.129E+01 0.551E+01 -.147E+00   -.173E-01 0.232E+00 0.159E-02   0.344E-05 -.182E-04 0.319E-05
   0.131E+01 -.575E+01 0.144E+00   -.129E+01 0.551E+01 -.147E+00   -.173E-01 0.232E+00 0.159E-02   0.352E-05 -.182E-04 0.321E-05
   0.131E+01 -.575E+01 0.144E+00   -.129E+01 0.551E+01 -.147E+00   -.173E-01 0.232E+00 0.159E-02   0.344E-05 -.181E-04 0.318E-05
   0.131E+01 -.575E+01 0.144E+00   -.129E+01 0.551E+01 -.147E+00   -.173E-01 0.232E+00 0.159E-02   0.352E-05 -.181E-04 0.320E-05
   -.131E+01 -.575E+01 -.144E+00   0.129E+01 0.551E+01 0.147E+00   0.173E-01 0.232E+00 -.159E-02   -.350E-05 -.182E-04 -.319E-05
   -.131E+01 -.575E+01 -.144E+00   0.129E+01 0.551E+01 0.147E+00   0.173E-01 0.232E+00 -.159E-02   -.346E-05 -.182E-04 -.321E-05
   -.131E+01 -.575E+01 -.144E+00   0.129E+01 0.551E+01 0.147E+00   0.173E-01 0.232E+00 -.159E-02   -.350E-05 -.181E-04 -.318E-05
   -.131E+01 -.575E+01 -.144E+00   0.129E+01 0.551E+01 0.147E+00   0.173E-01 0.232E+00 -.159E-02   -.346E-05 -.181E-04 -.320E-05
   -.150E+01 -.564E+01 0.157E+00   0.146E+01 0.534E+01 -.161E+00   0.318E-01 0.308E+00 0.330E-02   -.283E-04 -.213E-04 -.492E-05
   -.150E+01 -.564E+01 0.157E+00   0.146E+01 0.534E+01 -.161E+00   0.318E-01 0.308E+00 0.330E-02   -.282E-04 -.213E-04 -.493E-05
   -.150E+01 -.564E+01 0.157E+00   0.146E+01 0.534E+01 -.161E+00   0.318E-01 0.308E+00 0.330E-02   -.283E-04 -.212E-04 -.491E-05
   -.150E+01 -.564E+01 0.157E+00   0.146E+01 0.534E+01 -.161E+00   0.318E-01 0.308E+00 0.330E-02   -.282E-04 -.212E-04 -.492E-05
   0.150E+01 -.564E+01 -.157E+00   -.146E+01 0.534E+01 0.161E+00   -.318E-01 0.308E+00 -.330E-02   0.282E-04 -.213E-04 0.492E-05
   0.150E+01 -.564E+01 -.157E+00   -.146E+01 0.534E+01 0.161E+00   -.318E-01 0.308E+00 -.330E-02   0.283E-04 -.213E-04 0.493E-05
   0.150E+01 -.564E+01 -.157E+00   -.146E+01 0.534E+01 0.161E+00   -.318E-01 0.308E+00 -.330E-02   0.282E-04 -.212E-04 0.491E-05
   0.150E+01 -.564E+01 -.157E+00   -.146E+01 0.534E+01 0.161E+00   -.318E-01 0.308E+00 -.330E-02   0.283E-04 -.212E-04 0.492E-05
   -.150E+01 -.564E+01 0.157E+00   0.146E+01 0.534E+01 -.161E+00   0.318E-01 0.308E+00 0.330E-02   -.283E-04 -.213E-04 -.492E-05
   -.150E+01 -.564E+01 0.157E+00   0.146E+01 0.534E+01 -.161E+00   0.318E-01 0.308E+00 0.330E-02   -.282E-04 -.213E-04 -.494E-05
   -.150E+01 -.564E+01 0.157E+00   0.146E+01 0.534E+01 -.161E+00   0.318E-01 0.308E+00 0.330E-02   -.283E-04 -.212E-04 -.491E-05
   -.150E+01 -.564E+01 0.157E+00   0.146E+01 0.534E+01 -.161E+00   0.318E-01 0.308E+00 0.330E-02   -.282E-04 -.212E-04 -.492E-05
   0.150E+01 -.564E+01 -.157E+00   -.146E+01 0.534E+01 0.161E+00   -.318E-01 0.308E+00 -.330E-02   0.282E-04 -.213E-04 0.492E-05
   0.150E+01 -.564E+01 -.157E+00   -.146E+01 0.534E+01 0.161E+00   -.318E-01 0.308E+00 -.330E-02   0.283E-04 -.213E-04 0.493E-05
   0.150E+01 -.564E+01 -.157E+00   -.146E+01 0.534E+01 0.161E+00   -.318E-01 0.308E+00 -.330E-02   0.282E-04 -.212E-04 0.491E-05
   0.150E+01 -.564E+01 -.157E+00   -.146E+01 0.534E+01 0.161E+00   -.318E-01 0.308E+00 -.330E-02   0.283E-04 -.212E-04 0.492E-05
 -----------------------------------------------------------------------------------------------
   -.361E-06 -.989E+01 0.302E-03   0.712E-12 -.755E-13 0.480E-13   -.112E-14 0.987E+01 -.117E-16   -.441E-10 -.630E-03 -.444E-10
 
 
 POSITION                                       TOTAL-FORCE (eV/Angst)
 -----------------------------------------------------------------------------------
      1.33804      1.30318      1.31466        -0.000330     -0.000240      0.000028
      6.59561      1.30318      1.36054        -0.000330     -0.000240      0.000028
      1.33804      6.56143      1.31466        -0.000330     -0.000240      0.000028
      6.59561      6.56143      1.36054        -0.000330     -0.000240      0.000028
      3.94223      3.93231      1.33374         0.000330     -0.000240     -0.000028
      9.19980      3.93231      1.37962         0.000330     -0.000240     -0.000028
      3.94223      9.19055      1.33374         0.000330     -0.000240     -0.000028
      9.19980      9.19055      1.37962         0.000330     -0.000240     -0.000028
      1.39388      3.92351      9.12027        -0.000000     -0.000033      0.000000
      6.65145      3.92351      9.16615        -0.000000     -0.000033      0.000000
      1.39388      9.18176      9.12027        -0.000000     -0.000033      0.000000
      6.65145      9.18176      9.16615        -0.000000     -0.000033      0.000000
      4.02267      1.31838      9.14321        -0.000000     -0.000052      0.000000
      9.28023      1.31838      9.18910        -0.000000     -0.000052      0.000000
      4.02267      6.57663      9.14321        -0.000000     -0.000052      0.000000
      9.28023      6.57663      9.18910        -0.000000     -0.000052      0.000000
      1.35887      1.30318      6.51583         0.000330     -0.000240     -0.000028
      6.61644      1.30318      6.56171         0.000330     -0.000240     -0.000028
      1.35887      6.56143      6.51583         0.000330     -0.000240     -0.000028
      6.61644      6.56143      6.56171         0.000330     -0.000240     -0.000028
      4.01225      3.93231      6.54263        -0.000330     -0.000240      0.000028
      9.26982      3.93231      6.58851        -0.000330     -0.000240      0.000028
      4.01225      9.19055      6.54263        -0.000330     -0.000240      0.000028
      9.26982      9.19055      6.58851        -0.000330     -0.000240      0.000028
      3.97724      1.29439      3.93818        -0.000000     -0.000033      0.000000
      9.23481      1.29439      3.98407        -0.000000     -0.000033      0.000000
      3.97724      6.55264      3.93818        -0.000000     -0.000033      0.000000
      9.23481      6.55264      3.98407        -0.000000     -0.000033      0.000000
      1.34846      3.94750      3.91524        -0.000000     -0.000052      0.000000
      6.60603      3.94750      3.96112        -0.000000     -0.000052      0.000000
      1.34846      9.20575      3.91524        -0.000000     -0.000052      0.000000
      6.60603      9.20575      3.96112        -0.000000     -0.000052      0.000000
     10.55724      0.00998      5.29679        -0.000358     -0.000092     -0.000723
      5.29968      0.00998      5.25090        -0.000358     -0.000092     -0.000723
     10.55724      5.26823      5.29679        -0.000358     -0.000092     -0.000723
      5.29968      5.26823      5.25090        -0.000358     -0.000092     -0.000723
      2.65481      0.00998      2.62546         0.000358     -0.000092      0.000723
      7.91237      0.00998      2.67135         0.000358     -0.000092      0.000723
      2.65481      5.26823      2.62546         0.000358     -0.000092      0.000723
      7.91237      5.26823      2.67135         0.000358     -0.000092      0.000723
      2.62547      2.63910      0.02293        -0.000358     -0.000092     -0.000723
      7.88304      2.63910      0.06881        -0.000358     -0.000092     -0.000723
      2.62547      7.89735      0.02293        -0.000358     -0.000092     -0.000723
      7.88304      7.89735      0.06881        -0.000358     -0.000092     -0.000723
      0.07145      2.63910      7.80755         0.000358     -0.000092      0.000723
      5.32901      2.63910      7.85343         0.000358     -0.000092      0.000723
      0.07145      7.89735      7.80755         0.000358     -0.000092      0.000723
      5.32901      7.89735      7.85343         0.000358     -0.000092      0.000723
     10.51349      0.00957      0.09205        -0.000224      0.000374     -0.000899
      5.25593      0.00957      0.04617        -0.000224      0.000374     -0.000899
     10.51349      5.26782      0.09205        -0.000224      0.000374     -0.000899
      5.25593      5.26782      0.04617        -0.000224      0.000374     -0.000899
      2.69856      0.00957      7.83020         0.000224      0.000374      0.000899
      7.95612      0.00957      7.87608         0.000224      0.000374      0.000899
      2.69856      5.26782      7.83020         0.000224      0.000374      0.000899
      7.95612      5.26782      7.87608         0.000224      0.000374      0.000899
      2.67257      2.63869      5.22826        -0.000224      0.000374     -0.000899
      7.93013      2.63869      5.27414        -0.000224      0.000374     -0.000899
      2.67257      7.89694      5.22826        -0.000224      0.000374     -0.000899
      7.93013      7.89694      5.27414        -0.000224      0.000374     -0.000899
      0.02435      2.63869      2.60223         0.000224      0.000374      0.000899
      5.28192      2.63869      2.64811         0.000224      0.000374      0.000899
      0.02435      7.89694      2.60223         0.000224      0.000374      0.000899
      5.28192      7.89694      2.64811         0.000224      0.000374      0.000899
 -----------------------------------------------------------------------------------
    total drift:                               -0.000000     -0.018195      0.000302


--------------------------------------------------------------------------------------------------------



  FREE ENERGIE OF THE ION-ELECTRON SYSTEM (eV)
  ---------------------------------------------------
  free  energy   TOTEN  =      -328.09185078 eV

  energy  without entropy=     -328.09185078  energy(sigma->0) =     -328.09185078
 


--------------------------------------------------------------------------------------------------------


    POTLOK:  cpu time    0.1643: real time    0.1651


--------------------------------------------------------------------------------------------------------


 writing wavefunctions
     LOOP+:  cpu time 3248.8779: real time 3271.7234
    4ORBIT:  cpu time    0.0000: real time    0.0000
 


 total charge     
 
# of ion       s       p       d       tot
------------------------------------------
    1        1.313   2.410   0.000   3.724
    2        1.313   2.410   0.000   3.724
    3        1.313   2.410   0.000   3.724
    4        1.313   2.410   0.000   3.724
    5        1.313   2.410   0.000   3.724
    6        1.313   2.410   0.000   3.724
    7        1.313   2.410   0.000   3.724
    8        1.313   2.410   0.000   3.724
    9        1.314   2.409   0.000   3.723
   10        1.314   2.409   0.000   3.723
   11        1.314   2.409   0.000   3.723
   12        1.314   2.409   0.000   3.723
   13        1.313   2.411   0.000   3.724
   14        1.313   2.411   0.000   3.724
   15        1.313   2.411   0.000   3.724
   16        1.313   2.411   0.000   3.724
   17        1.313   2.410   0.000   3.724
   18        1.313   2.410   0.000   3.724
   19        1.313   2.410   0.000   3.724
   20        1.313   2.410   0.000   3.724
   21        1.313   2.410   0.000   3.724
   22        1.313   2.410   0.000   3.724
   23        1.313   2.410   0.000   3.724
   24        1.313   2.410   0.000   3.724
   25        1.314   2.409   0.000   3.723
   26        1.314   2.409   0.000   3.723
   27        1.314   2.409   0.000   3.723
   28        1.314   2.409   0.000   3.723
   29        1.313   2.411   0.000   3.724
   30        1.313   2.411   0.000   3.724
   31        1.313   2.411   0.000   3.724
   32        1.313   2.411   0.000   3.724
   33        0.260   6.202   8.917  15.378
   34        0.260   6.202   8.917  15.378
   35        0.260   6.202   8.917  15.378
   36        0.260   6.202   8.917  15.378
   37        0.260   6.202   8.917  15.378
   38        0.260   6.202   8.917  15.378
   39        0.260   6.202   8.917  15.378
   40        0.260   6.202   8.917  15.378
   41        0.260   6.202   8.917  15.378
   42        0.260   6.202   8.917  15.378
   43        0.260   6.202   8.917  15.378
   44        0.260   6.202   8.917  15.378
   45        0.260   6.202   8.917  15.378
   46        0.260   6.202   8.917  15.378
   47        0.260   6.202   8.917  15.378
   48        0.260   6.202   8.917  15.378
   49        0.350   6.351   5.820  12.521
   50        0.350   6.351   5.820  12.521
   51        0.350   6.351   5.820  12.521
   52        0.350   6.351   5.820  12.521
   53        0.350   6.351   5.820  12.521
   54        0.350   6.351   5.820  12.521
   55        0.350   6.351   5.820  12.521
   56        0.350   6.351   5.820  12.521
   57        0.350   6.351   5.820  12.521
   58        0.350   6.351   5.820  12.521
   59        0.350   6.351   5.820  12.521
   60        0.350   6.351   5.820  12.521
   61        0.350   6.351   5.820  12.521
   62        0.350   6.351   5.820  12.521
   63        0.350   6.351   5.820  12.521
   64        0.350   6.351   5.820  12.521
--------------------------------------------------
tot         51.788 277.972 235.780 565.540
 


 magnetization (x)
 
# of ion       s       p       d       tot
------------------------------------------
    1       -0.000  -0.004   0.000  -0.004
    2       -0.000  -0.004   0.000  -0.004
    3       -0.000  -0.004   0.000  -0.004
    4       -0.000  -0.004   0.000  -0.004
    5        0.000   0.004   0.000   0.004
    6        0.000   0.004   0.000   0.004
    7        0.000   0.004   0.000   0.004
    8        0.000   0.004   0.000   0.004
    9       -0.000  -0.000   0.000  -0.000
   10       -0.000   0.000   0.000   0.000
   11       -0.000  -0.000   0.000  -0.000
   12       -0.000   0.000   0.000   0.000
   13        0.000   0.000   0.000   0.000
   14        0.000   0.000   0.000   0.000
   15        0.000   0.000   0.000   0.000
   16        0.000   0.000   0.000   0.000
   17        0.000   0.004   0.000   0.004
   18        0.000   0.004   0.000   0.004
   19        0.000   0.004   0.000   0.004
   20        0.000   0.004   0.000   0.004
   21       -0.000  -0.004   0.000  -0.004
   22       -0.000  -0.004   0.000  -0.004
   23       -0.000  -0.004   0.000  -0.004
   24       -0.000  -0.004   0.000  -0.004
   25       -0.000  -0.000   0.000  -0.000
   26       -0.000  -0.000   0.000  -0.000
   27       -0.000  -0.000   0.000  -0.000
   28       -0.000  -0.000   0.000  -0.000
   29        0.000   0.000   0.000   0.000
   30        0.000   0.000   0.000   0.000
   31        0.000   0.000   0.000   0.000
   32        0.000   0.000   0.000   0.000
   33        0.000   0.000  -0.001  -0.000
   34        0.000   0.000  -0.001  -0.000
   35        0.000   0.000  -0.001  -0.000
   36        0.000   0.000  -0.001  -0.000
   37       -0.000  -0.000   0.001   0.000
   38       -0.000  -0.000   0.001   0.000
   39       -0.000  -0.000   0.001   0.000
   40       -0.000  -0.000   0.001   0.000
   41        0.000   0.000  -0.001  -0.000
   42        0.000   0.000  -0.001  -0.000
   43        0.000   0.000  -0.001  -0.000
   44        0.000   0.000  -0.001  -0.000
   45       -0.000  -0.000   0.001   0.000
   46       -0.000  -0.000   0.001   0.000
   47       -0.000  -0.000   0.001   0.000
   48       -0.000  -0.000   0.001   0.000
   49        0.020   0.054   3.671   3.744
   50        0.020   0.054   3.671   3.744
   51        0.020   0.054   3.671   3.744
   52        0.020   0.054   3.671   3.744
   53       -0.020  -0.054  -3.671  -3.744
   54       -0.020  -0.054  -3.671  -3.744
   55       -0.020  -0.054  -3.671  -3.744
   56       -0.020  -0.054  -3.671  -3.744
   57        0.020   0.054   3.671   3.744
   58        0.020   0.054   3.671   3.744
   59        0.020   0.054   3.671   3.744
   60        0.020   0.054   3.671   3.744
   61       -0.020  -0.054  -3.671  -3.744
   62       -0.020  -0.054  -3.671  -3.744
   63       -0.020  -0.054  -3.671  -3.744
   64       -0.020  -0.054  -3.671  -3.744
--------------------------------------------------
tot         -0.000   0.000  -0.000  -0.000
 
 BZINTS: Fermi energy:  4.985390;688.000000 electrons
         Band energy:***********;  BLOECHL correction:  0.000000

 total amount of memory used by VASP MPI-rank0   349631. kBytes
=======================================================================

   base      :      30000. kBytes
   nonl-proj :     217907. kBytes
   fftplans  :       4588. kBytes
   grid      :      69719. kBytes
   one-center:       1990. kBytes
   wavefun   :      25427. kBytes
 
  
  
 General timing and accounting informations for this job:
 ========================================================
  
                  Total CPU time used (sec):     3308.309
                            User time (sec):     3296.845
                          System time (sec):       11.464
                         Elapsed time (sec):     3332.761
  
                   Maximum memory used (kb):      712524.
                   Average memory used (kb):           0.
  
                          Minor page faults:       631847
                          Major page faults:         5843
                 Voluntary context switches:         6986
