       N       E                     dE             d eps       ncg     rms          ort
SDA:   1    -0.820121578494E+02   -0.82012E+02    0.00000E+00  4784   0.376E-04 0.000E+00
CGA:   2    -0.820121647263E+02   -0.68769E-05   -0.30169E-05  4784   0.265E-04 0.281E-04
CGA:   3    -0.820121683735E+02   -0.36472E-05   -0.15021E-05  4784   0.203E-04 0.193E-04
CGA:   4    -0.820121714489E+02   -0.30754E-05   -0.86111E-06  4784   0.160E-04 0.161E-04
CGA:   5    -0.820121727885E+02   -0.13396E-05   -0.11009E-05  4784   0.124E-04 0.125E-04
CGA:   6    -0.820121888777E+02   -0.16089E-04   -0.46191E-06  4784   0.969E-05 0.102E-04
CGA:   7    -0.820121831282E+02    0.57495E-05   -0.15838E-06  4784   0.909E-05 0.929E-05
CGA:   8    -0.820121759488E+02    0.71795E-05   -0.21892E-06  4784   0.835E-05 0.833E-05
CGA:   9    -0.820121764677E+02   -0.51898E-06   -0.67591E-06  4784   0.615E-05 0.636E-05
CGA:  10    -0.820121809518E+02   -0.44841E-05   -0.27501E-06  4784   0.483E-05 0.541E-05
CGA:  11    -0.820121784493E+02    0.25025E-05   -0.96852E-07  4784   0.453E-05 0.423E-05
CGA:  12    -0.820121780583E+02    0.39106E-06   -0.14877E-06  4784   0.402E-05 0.368E-05
CGA:  13    -0.820121783135E+02   -0.25518E-06   -0.15268E-06  4784   0.347E-05 0.310E-05
CGA:  14    -0.820121790932E+02   -0.77978E-06   -0.11048E-06  4784   0.304E-05 0.265E-05
CGA:  15    -0.820121814782E+02   -0.23850E-05   -0.64306E-07  4784   0.274E-05 0.239E-05
CGA:  16    -0.820121918019E+02   -0.10324E-04   -0.25840E-07  4784   0.245E-05 0.240E-05
CGA:  17    -0.820121927930E+02   -0.99114E-06   -0.56232E-08  4784   0.240E-05 0.242E-05
CGA:  18    -0.820121929852E+02   -0.19216E-06   -0.47212E-08  4784   0.238E-05 0.239E-05
CGA:  19    -0.820121930383E+02   -0.53078E-07   -0.45573E-08  4784   0.236E-05 0.237E-05
CGA:  20    -0.820121930615E+02   -0.23270E-07   -0.56941E-08  4784   0.234E-05 0.235E-05
CGA:  21    -0.820121930951E+02   -0.33515E-07   -0.18603E-07  4784   0.226E-05 0.230E-05
CGA:  22    -0.820121931232E+02   -0.28100E-07   -0.12395E-07  4784   0.221E-05 0.224E-05
CGA:  23    -0.820121931650E+02   -0.41828E-07   -0.26646E-07  4784   0.210E-05 0.216E-05
CGA:  24    -0.820121931825E+02   -0.17550E-07   -0.47834E-08  4784   0.208E-05 0.209E-05
CGA:  25    -0.820121932402E+02   -0.57624E-07   -0.35558E-07  4784   0.194E-05 0.201E-05
CGA:  26    -0.820121932533E+02   -0.13099E-07   -0.24674E-08  4784   0.193E-05 0.194E-05
CGA:  27    -0.820121932653E+02   -0.11998E-07   -0.47038E-08  4784   0.191E-05 0.192E-05
CGA:  28    -0.820121933893E+02   -0.12408E-06   -0.12003E-06  4784   0.147E-05 0.167E-05
CGA:  29    -0.820121934281E+02   -0.38808E-07   -0.69936E-09  4784   0.147E-05 0.147E-05
CGA:  30    -0.820121934511E+02   -0.23003E-07   -0.66590E-09  4784   0.146E-05 0.147E-05
CGA:  31    -0.820121934660E+02   -0.14819E-07   -0.66444E-09  4784   0.146E-05 0.146E-05
CGA:  32    -0.820121934765E+02   -0.10512E-07   -0.71245E-09  4784   0.146E-05 0.146E-05
CGA:  33    -0.820121934848E+02   -0.83182E-08   -0.85584E-09  4784   0.145E-05 0.145E-05
   1 F= -.82012193E+02 E0= -.82012193E+02  d E =0.000000E+00  mag=     0.0000     0.0000     0.0000
