 vasp.5.4.4.18Apr17-6-g9f103f2a35 (build Oct 04 2018 15:53:47) complex          
  
 executed on             LinuxIFC date 2022.10.07  15:46:26
 running on  256 total cores
 distrk:  each k-point on  256 cores,    1 groups
 distr:  one band on NCORES_PER_BAND=  32 cores,    8 groups


--------------------------------------------------------------------------------------------------------


 INCAR:
 POTCAR:    PAW_PBE S 06Sep2000                   
 POTCAR:     PAW_PBE Cu_pv 06Sep2000              
 POTCAR:     PAW_PBE Fe_pv 02Aug2007              
 POTCAR:    PAW_PBE S 06Sep2000                   
   SHA256 =  0fc7481fb0695f01bdc6462160264c5c84044ae9ec85a907d398b887a2bc3132 S/
   COPYR  = (c) Copyright 06Sep2000 Georg Kresse                                
   COPYR  = This file is part of the software VASP. Any use, copying, and all ot
   COPYR  = If you do not have a valid VASP license, you may not use, copy or di
   VRHFIN =S : s2p4                                                             
   LEXCH  = PE                                                                  
   EATOM  =   276.8230 eV,   20.3459 Ry                                         
                                                                                
   TITEL  = PAW_PBE S 06Sep2000                                                 
   LULTRA =        F    use ultrasoft PP ?                                      
   IUNSCR =        1    unscreen: 0-lin 1-nonlin 2-no                           
   RPACOR =    1.500    partial core radius                                     
   POMASS =   32.066; ZVAL   =    6.000    mass and valenz                      
   RCORE  =    1.900    outmost cutoff radius                                   
   RWIGS  =    2.200; RWIGS  =    1.164    wigner-seitz radius (au A)           
   ENMAX  =  258.689; ENMIN  =  194.016 eV                                      
   ICORE  =        2    local potential                                         
   LCOR   =        T    correct aug charges                                     
   LPAW   =        T    paw PP                                                  
   EAUG   =  335.092                                                            
   DEXC   =    0.000                                                            
   RMAX   =    1.942    core radius for proj-oper                               
   RAUG   =    1.300    factor for augmentation sphere                          
   RDEP   =    1.954    radius for radial grids                                 
   RDEPT  =    1.744    core radius for aug-charge                              
                                                                                
   Atomic configuration                                                         
    6 entries                                                                   
     n  l   j            E        occ.                                          
     1  0  0.50     -2405.8406   2.0000                                         
     2  0  0.50      -211.7007   2.0000                                         
     2  1  1.50      -156.4958   6.0000                                         
     3  0  0.50       -17.2562   2.0000                                         
     3  1  0.50        -7.0085   4.0000                                         
     3  2  1.50        -6.8029   0.0000                                         
   Description                                                                  
     l       E           TYP  RCUT    TYP  RCUT                                 
     0    -17.2561641     23  1.900                                             
     0    -15.8743224     23  1.900                                             
     1     -7.0085400     23  1.900                                             
     1     -2.7779785     23  1.900                                             
     2     -6.8029130     23  1.900                                             
  local pseudopotential read in
  partial core-charges read in
  partial kinetic energy density read in
  atomic valenz-charges read in
  non local Contribution for L=           0  read in
    real space projection operators read in
  non local Contribution for L=           0  read in
    real space projection operators read in
  non local Contribution for L=           1  read in
    real space projection operators read in
  non local Contribution for L=           1  read in
    real space projection operators read in
    PAW grid and wavefunctions read in
 
   number of l-projection  operators is LMAX  =           4
   number of lm-projection operators is LMMAX =           8
 
 POTCAR:     PAW_PBE Cu_pv 06Sep2000              
   SHA256 =  cb7b504e2ea725fe1f25c85a9ac77d4012ce94cd394135b722c4e25ec297f1cb Cu
   COPYR  = (c) Copyright 06Sep2000 Georg Kresse                                
   COPYR  = This file is part of the software VASP. Any use, copying, and all ot
   COPYR  = If you do not have a valid VASP license, you may not use, copy or di
   VRHFIN =Cu: d10 p1                                                           
   LEXCH  = PE                                                                  
   EATOM  =  4120.1201 eV,  302.8203 Ry                                         
                                                                                
   TITEL  = PAW_PBE Cu_pv 06Sep2000                                             
   LULTRA =        F    use ultrasoft PP ?                                      
   IUNSCR =        1    unscreen: 0-lin 1-nonlin 2-no                           
   RPACOR =    1.500    partial core radius                                     
   POMASS =   63.546; ZVAL   =   17.000    mass and valenz                      
   RCORE  =    2.000    outmost cutoff radius                                   
   RWIGS  =    2.000; RWIGS  =    1.058    wigner-seitz radius (au A)           
   ENMAX  =  368.648; ENMIN  =  276.486 eV                                      
   RCLOC  =    1.304    cutoff for local pot                                    
   LCOR   =        T    correct aug charges                                     
   LPAW   =        T    paw PP                                                  
   EAUG   =  758.233                                                            
   DEXC   =    0.000                                                            
   RMAX   =    2.046    core radius for proj-oper                               
   RAUG   =    1.300    factor for augmentation sphere                          
   RDEP   =    2.025    radius for radial grids                                 
   RDEPT  =    1.558    core radius for aug-charge                              
                                                                                
   Atomic configuration                                                         
    8 entries                                                                   
     n  l   j            E        occ.                                          
     1  0  0.50     -8850.2467   2.0000                                         
     2  0  0.50     -1062.3498   2.0000                                         
     2  1  1.50      -916.8226   6.0000                                         
     3  0  0.50      -114.6929   2.0000                                         
     3  1  1.50       -72.1325   6.0000                                         
     3  2  2.50        -5.0394  10.0000                                         
     4  0  0.50        -4.6097   1.0000                                         
     4  3  2.50        -1.3606   0.0000                                         
   Description                                                                  
     l       E           TYP  RCUT    TYP  RCUT                                 
     1    -72.1324777     23  1.700                                             
     1     -1.3605826     23  1.700                                             
     2     -5.0393776     23  2.000                                             
     2     -6.3999602     23  2.000                                             
     0     -4.6097062     23  1.800                                             
     0     14.1620818     23  1.800                                             
  local pseudopotential read in
  partial core-charges read in
  partial kinetic energy density read in
  atomic valenz-charges read in
  non local Contribution for L=           1  read in
    real space projection operators read in
  non local Contribution for L=           1  read in
    real space projection operators read in
  non local Contribution for L=           2  read in
    real space projection operators read in
  non local Contribution for L=           2  read in
    real space projection operators read in
  non local Contribution for L=           0  read in
    real space projection operators read in
  non local Contribution for L=           0  read in
    real space projection operators read in
    PAW grid and wavefunctions read in
 
   number of l-projection  operators is LMAX  =           6
   number of lm-projection operators is LMMAX =          18
 
 POTCAR:     PAW_PBE Fe_pv 02Aug2007              
   SHA256 =  5d22e414b1f82158bf2c7ecb8b97b28fd0923e48cadc1c3bf74d524558f5dd32 Fe
   COPYR  = (c) Copyright 02Aug2007 Georg Kresse                                
   COPYR  = This file is part of the software VASP. Any use, copying, and all ot
   COPYR  = If you do not have a valid VASP license, you may not use, copy or di
   VRHFIN =Fe:  3pd7s1                                                          
   LEXCH  = PE                                                                  
   EATOM  =  2457.4239 eV,  180.6156 Ry                                         
                                                                                
   TITEL  = PAW_PBE Fe_pv 02Aug2007                                             
   LULTRA =        F    use ultrasoft PP ?                                      
   IUNSCR =        1    unscreen: 0-lin 1-nonlin 2-no                           
   RPACOR =    1.750    partial core radius                                     
   POMASS =   55.847; ZVAL   =   14.000    mass and valenz                      
   RCORE  =    2.200    outmost cutoff radius                                   
   RWIGS  =    2.200; RWIGS  =    1.164    wigner-seitz radius (au A)           
   ENMAX  =  293.238; ENMIN  =  219.928 eV                                      
   ICORE  =        3    local potential                                         
   LCOR   =        T    correct aug charges                                     
   LPAW   =        T    paw PP                                                  
   EAUG   =  578.342                                                            
   DEXC   =    0.000                                                            
   RMAX   =    2.249    core radius for proj-oper                               
   RAUG   =    1.300    factor for augmentation sphere                          
   RDEP   =    2.296    radius for radial grids                                 
   RDEPT  =    1.766    core radius for aug-charge                              
                                                                                
   Atomic configuration                                                         
    8 entries                                                                   
     n  l   j            E        occ.                                          
     1  0  0.50     -6993.8440   2.0000                                         
     2  0  0.50      -814.6047   2.0000                                         
     2  1  1.50      -693.3689   6.0000                                         
     3  0  0.50       -89.4732   2.0000                                         
     3  1  1.50       -55.6373   6.0000                                         
     3  2  2.50        -3.8151   7.0000                                         
     4  0  0.50        -4.2551   1.0000                                         
     4  3  2.50        -1.3606   0.0000                                         
   Description                                                                  
     l       E           TYP  RCUT    TYP  RCUT                                 
     1    -55.6372668     23  2.000                                             
     1     -5.4423304     23  2.000                                             
     2     -3.8151096     23  2.200                                             
     2     -5.1756922     23  2.200                                             
     0     -4.2550951     23  2.200                                             
     0     27.2116520     23  2.200                                             
     3     -1.3605826     23  2.200                                             
  local pseudopotential read in
  partial core-charges read in
  partial kinetic energy density read in
  atomic valenz-charges read in
  non local Contribution for L=           1  read in
    real space projection operators read in
  non local Contribution for L=           1  read in
    real space projection operators read in
  non local Contribution for L=           2  read in
    real space projection operators read in
  non local Contribution for L=           2  read in
    real space projection operators read in
  non local Contribution for L=           0  read in
    real space projection operators read in
  non local Contribution for L=           0  read in
    real space projection operators read in
    PAW grid and wavefunctions read in
 
   number of l-projection  operators is LMAX  =           6
   number of lm-projection operators is LMMAX =          18
 

 ----------------------------------------------------------------------------- 
|                                                                             |
|  ADVICE TO THIS USER RUNNING 'VASP/VAMP'   (HEAR YOUR MASTER'S VOICE ...):  |
|                                                                             |
|      You enforced a specific xc-type in the INCAR file,                     |
|      a different type was found on the POTCAR file                          |
|          I HOPE YOU KNOW, WHAT YOU ARE  DOING                               |
|                                                                             |
 ----------------------------------------------------------------------------- 

  PAW_PBE S 06Sep2000                   :
 energy of atom  1       EATOM= -276.8230
 kinetic energy error for atom=    0.0007 (will be added to EATOM!!)
   PAW_PBE Cu_pv 06Sep2000              :
 energy of atom  2       EATOM=-4120.1201
 kinetic energy error for atom=    0.0094 (will be added to EATOM!!)
   PAW_PBE Fe_pv 02Aug2007              :
 energy of atom  3       EATOM=-2457.4239
 kinetic energy error for atom=    0.0025 (will be added to EATOM!!)
 
 
 POSCAR: sm_isp_SD0310437-standardized_unitcell  
  positions in direct lattice
  velocities in cartesian coordinates
 exchange correlation table for  LEXCH =       14
   RHO(1)=    0.500       N(1)  =     2000
   RHO(2)=  100.500       N(2)  =     4000
 


--------------------------------------------------------------------------------------------------------


 ion  position               nearest neighbor table
   1  0.252  0.250  0.125-  10 2.27  11 2.27  13 2.28  16 2.28
   2  0.748  0.750  0.125-  10 2.27  11 2.27  13 2.28  16 2.28
   3  0.250  0.748  0.875-  11 2.27  12 2.27  13 2.28  14 2.28
   4  0.750  0.252  0.875-  11 2.27  12 2.27  13 2.28  14 2.28
   5  0.248  0.250  0.625-   9 2.27  12 2.27  14 2.28  15 2.28
   6  0.752  0.750  0.625-   9 2.27  12 2.27  14 2.28  15 2.28
   7  0.750  0.248  0.375-   9 2.27  10 2.27  15 2.28  16 2.28
   8  0.250  0.752  0.375-   9 2.27  10 2.27  15 2.28  16 2.28
   9  0.000  0.000  0.500-   5 2.27   7 2.27   8 2.27   6 2.27
  10  0.500  0.000  0.250-   7 2.27   1 2.27   8 2.27   2 2.27
  11  0.500  0.500  0.000-   1 2.27   4 2.27   3 2.27   2 2.27
  12  0.000  0.500  0.750-   5 2.27   4 2.27   3 2.27   6 2.27
  13  0.000  0.000  0.000-   3 2.28   2 2.28   1 2.28   4 2.28
  14  0.500  0.000  0.750-   3 2.28   6 2.28   4 2.28   5 2.28
  15  0.500  0.500  0.500-   8 2.28   6 2.28   7 2.28   5 2.28
  16  0.000  0.500  0.250-   8 2.28   2 2.28   1 2.28   7 2.28
 
  LATTYP: Found a simple tetragonal cell.
 ALAT       =     5.3639613686
 C/A-ratio  =     1.8843965121
  
  Lattice vectors:
  
 A1 = (   5.3639613686,   0.0000000000,   0.0000000000)
 A2 = (   0.0000000000,   5.3639613686,   0.0000000000)
 A3 = (   0.0000000000,   0.0000000000,  10.1078300942)


Analysis of symmetry for initial positions (statically):
=====================================================================
 Subroutine PRICEL returns following result:
 
  LATTYP: Found a body centered tetragonal cell.
 ALAT       =     5.3639613686
 C/A-ratio  =     1.8843965121
  
  Lattice vectors:
  
 A1 = (   2.6819806843,  -2.6819806843,   5.0539150471)
 A2 = (  -2.6819806843,   2.6819806843,   5.0539150471)
 A3 = (  -2.6819806843,  -2.6819806843,  -5.0539150471)
 
   2 primitive cells build up your supercell.
 

 Routine SETGRP: Setting up the symmetry group for a 
 simple tetragonal supercell.


 Subroutine GETGRP returns: Found  8 space group operations
 (whereof  4 operations were pure point group operations)
 out of a pool of 16 trial point group operations.


The static configuration has the point symmetry S_4 .
 The point group associated with its full space group is D_2d.


Analysis of symmetry for dynamics (positions and initial velocities):
=====================================================================
 Subroutine PRICEL returns following result:
 
  LATTYP: Found a body centered tetragonal cell.
 ALAT       =     5.3639613686
 C/A-ratio  =     1.8843965121
  
  Lattice vectors:
  
 A1 = (   2.6819806843,  -2.6819806843,   5.0539150471)
 A2 = (  -2.6819806843,   2.6819806843,   5.0539150471)
 A3 = (  -2.6819806843,  -2.6819806843,  -5.0539150471)
 
   2 primitive cells build up your supercell.
 

 Routine SETGRP: Setting up the symmetry group for a 
 simple tetragonal supercell.


 Subroutine GETGRP returns: Found  8 space group operations
 (whereof  4 operations were pure point group operations)
 out of a pool of 16 trial point group operations.


The dynamic configuration has the point symmetry S_4 .
 The point group associated with its full space group is D_2d.


Analysis of structural, dynamic, and magnetic symmetry:
=====================================================================
 Subroutine PRICEL returns following result:
 
  LATTYP: Found a body centered tetragonal cell.
 ALAT       =     5.3639613686
 C/A-ratio  =     1.8843965121
  
  Lattice vectors:
  
 A1 = (   2.6819806843,  -2.6819806843,   5.0539150471)
 A2 = (  -2.6819806843,   2.6819806843,   5.0539150471)
 A3 = (  -2.6819806843,  -2.6819806843,  -5.0539150471)
 
   2 primitive cells build up your supercell.
 

 Routine SETGRP: Setting up the symmetry group for a 
 simple tetragonal supercell.


 Subroutine GETGRP returns: Found  8 space group operations
 (whereof  4 operations were pure point group operations)
 out of a pool of 16 trial point group operations.


The (compounded) configuration has the point symmetry S_4 .
 The point group associated with its full space group is D_2d.


 Subroutine INISYM returns: Found  8 space group operations
 (whereof  4 operations are pure point group operations),
 and found     2 'primitive' translations

 
 
 KPOINTS: Automatic mesh                          

Automatic generation of k-mesh.
Space group operators:
 irot       det(A)        alpha          n_x          n_y          n_z        tau_x        tau_y        tau_z
    1     1.000000     0.000001     1.000000     0.000000     0.000000     0.000000     0.000000     0.000000
    2    -1.000000    90.000000     0.000000     0.000000    -1.000000     0.000000     0.000000     0.000000
    3     1.000000   180.000000     0.000000     0.000000     1.000000     0.000000     0.000000     0.000000
    4    -1.000000    90.000000     0.000000     0.000000     1.000000     0.000000     0.000000     0.000000
    5     1.000000   179.999999     0.000000     1.000000     0.000000     0.000000    -0.500000     0.250000
    6    -1.000000   179.999999     0.707107     0.707107     0.000000     0.000000    -0.500000     0.250000
    7     1.000000   179.999999     1.000000     0.000000     0.000000     0.000000    -0.500000     0.250000
    8    -1.000000   179.999999     0.707107    -0.707107     0.000000     0.000000    -0.500000     0.250000
 
 Subroutine IBZKPT returns following result:
 ===========================================
 
 Found     23 irreducible k-points:
 
 Following reciprocal coordinates:
            Coordinates               Weight
  0.000000  0.000000  0.000000      1.000000
  0.166667  0.000000  0.000000      4.000000
  0.333333  0.000000  0.000000      4.000000
  0.500000  0.000000  0.000000      2.000000
  0.166667  0.166667  0.000000      4.000000
  0.333333  0.166667  0.000000      8.000000
  0.500000  0.166667  0.000000      4.000000
  0.333333  0.333333  0.000000      4.000000
  0.500000  0.333333  0.000000      4.000000
  0.500000  0.500000  0.000000      1.000000
  0.000000  0.000000  0.333333      2.000000
  0.166667  0.000000  0.333333      8.000000
  0.333333  0.000000  0.333333      8.000000
  0.500000  0.000000  0.333333      4.000000
  0.166667  0.166667  0.333333      4.000000
  0.333333  0.166667  0.333333      8.000000
  0.500000  0.166667  0.333333      8.000000
 -0.333333  0.166667  0.333333      8.000000
 -0.166667  0.166667  0.333333      4.000000
  0.333333  0.333333  0.333333      4.000000
  0.500000  0.333333  0.333333      8.000000
 -0.333333  0.333333  0.333333      4.000000
  0.500000  0.500000  0.333333      2.000000
 
 Following cartesian coordinates:
            Coordinates               Weight
  0.000000  0.000000  0.000000      1.000000
  0.031072  0.000000  0.000000      4.000000
  0.062143  0.000000  0.000000      4.000000
  0.093215  0.000000  0.000000      2.000000
  0.031072  0.031072  0.000000      4.000000
  0.062143  0.031072  0.000000      8.000000
  0.093215  0.031072  0.000000      4.000000
  0.062143  0.062143  0.000000      4.000000
  0.093215  0.062143  0.000000      4.000000
  0.093215  0.093215  0.000000      1.000000
  0.000000  0.000000  0.032978      2.000000
  0.031072  0.000000  0.032978      8.000000
  0.062143  0.000000  0.032978      8.000000
  0.093215  0.000000  0.032978      4.000000
  0.031072  0.031072  0.032978      4.000000
  0.062143  0.031072  0.032978      8.000000
  0.093215  0.031072  0.032978      8.000000
 -0.062143  0.031072  0.032978      8.000000
 -0.031072  0.031072  0.032978      4.000000
  0.062143  0.062143  0.032978      4.000000
  0.093215  0.062143  0.032978      8.000000
 -0.062143  0.062143  0.032978      4.000000
  0.093215  0.093215  0.032978      2.000000
 
 TETIRR: Found    274 inequivalent tetrahedra from      648


--------------------------------------------------------------------------------------------------------




 Dimension of arrays:
   k-points           NKPTS =     23   k-points in BZ     NKDIM =     23   number of bands    NBANDS=    208
   number of dos      NEDOS =    301   number of ions     NIONS =     16
   non local maximal  LDIM  =      6   non local SUM 2l+1 LMDIM =     18
   total plane-waves  NPLWV = 207360
   max r-space proj   IRMAX =      1   max aug-charges    IRDMAX=  22660
   dimension x,y,z NGX =    48 NGY =   48 NGZ =   90
   dimension x,y,z NGXF=    96 NGYF=   96 NGZF=  180
   support grid    NGXF=    96 NGYF=   96 NGZF=  180
   ions per type =               8   4   4
   NGX,Y,Z   is equivalent  to a cutoff of  14.88, 14.88, 14.80 a.u.
   NGXF,Y,Z  is equivalent  to a cutoff of  29.75, 29.75, 29.61 a.u.

 SYSTEM =  CuFeS2                                  
 POSCAR =  sm_isp_SD0310437-standardized_unitcell  

 Startparameter for this run:
   NWRITE =      2    write-flag & timer
   PREC   = accura    normal or accurate (medium, high low for compatibility)
   ISTART =      1    job   : 0-new  1-cont  2-samecut
   ICHARG =      1    charge: 1-file 2-atom 10-const
   ISPIN  =      1    spin polarized calculation?
   LNONCOLLINEAR =      T non collinear calculations
   LSORBIT =      F    spin-orbit coupling
   INIWAV =      1    electr: 0-lowe 1-rand  2-diag
   LASPH  =      T    aspherical Exc in radial PAW
   METAGGA=      F    non-selfconsistent MetaGGA calc.

 Electronic Relaxation 1
   ENCUT  =  700.0 eV  51.45 Ry    7.17 a.u.  11.57 11.57 21.81*2*pi/ulx,y,z
   ENINI  =  700.0     initial cutoff
   ENAUG  =  758.2 eV  augmentation charge cutoff
   NELM   =    200;   NELMIN=  2; NELMDL=  0     # of ELM steps 
   EDIFF  = 0.1E-07   stopping-criterion for ELM
   LREAL  =      F    real-space projection
   NLSPLINE    = F    spline interpolate recip. space projectors
   LCOMPAT=      F    compatible to vasp.4.4
   GGA_COMPAT  = T    GGA compatible to vasp.4.4-vasp.4.6
   LMAXPAW     = -100 max onsite density
   LMAXMIX     =    4 max onsite mixed and CHGCAR
   VOSKOWN=      0    Vosko Wilk Nusair interpolation
   ROPT   =    0.00000   0.00000   0.00000
 Ionic relaxation
   EDIFFG = -.1E-04   stopping-criterion for IOM
   NSW    =      0    number of steps for IOM
   NBLOCK =      1;   KBLOCK =      1    inner block; outer block 
   IBRION =     -1    ionic relax: 0-MD 1-quasi-New 2-CG
   NFREE  =      0    steps in history (QN), initial steepest desc. (CG)
   ISIF   =      2    stress and relaxation
   IWAVPR =     10    prediction:  0-non 1-charg 2-wave 3-comb
   ISYM   =      1    0-nonsym 1-usesym 2-fastsym
   LCORR  =      T    Harris-Foulkes like correction to forces

   POTIM  = 0.1000    time-step for ionic-motion
   TEIN   =    0.0    initial temperature
   TEBEG  =    0.0;   TEEND  =   0.0 temperature during run
   SMASS  =  -3.00    Nose mass-parameter (am)
   estimated Nose-frequenzy (Omega)   =  0.10E-29 period in steps =****** mass=  -0.658E-27a.u.
   SCALEE = 1.0000    scale energy and forces
   NPACO  =    256;   APACO  = 16.0  distance and # of slots for P.C.
   PSTRESS=    0.0 pullay stress

  Mass of Ions in am
   POMASS =  32.07 63.55 55.85
  Ionic Valenz
   ZVAL   =   6.00 17.00 14.00
  Atomic Wigner-Seitz radii
   RWIGS  =  -1.00 -1.00 -1.00
  virtual crystal weights 
   VCA    =   1.00  1.00  1.00
   NELECT =     172.0000    total number of electrons
   NUPDOWN=      -1.0000    fix difference up-down

 DOS related values:
   EMIN   =  10.00;   EMAX   =-10.00  energy-range for DOS
   EFERMI =   0.00
   ISMEAR =    -5;   SIGMA  =   0.03  broadening in eV -4-tet -1-fermi 0-gaus

 Electronic relaxation 2 (details)
   IALGO  =     58    algorithm
   LDIAG  =      T    sub-space diagonalisation (order eigenvalues)
   LSUBROT=      F    optimize rotation matrix (better conditioning)
   TURBO    =      0    0=normal 1=particle mesh
   IRESTART =      0    0=no restart 2=restart with 2 vectors
   NREBOOT  =      0    no. of reboots
   NMIN     =      0    reboot dimension
   EREF     =   0.00    reference energy to select bands
   IMIX   =      4    mixing-type and parameters
     AMIX     =   0.40;   BMIX     =  1.00
     AMIX_MAG =   1.60;   BMIX_MAG =  1.00
     AMIN     =   0.10
     WC   =   100.;   INIMIX=   1;  MIXPRE=   1;  MAXMIX= -45

 Intra band minimization:
   WEIMIN = 0.0000     energy-eigenvalue tresh-hold
   EBREAK =  0.12E-10  absolut break condition
   DEPER  =   0.30     relativ break condition  

   TIME   =   0.40     timestep for ELM

  volume/ion in A,a.u.               =      18.18       122.66
  Fermi-wavevector in a.u.,A,eV,Ry     =   1.374172  2.596809 25.692561  1.888350
  Thomas-Fermi vector in A             =   2.499623
 
 Write flags
   LWAVE        =      T    write WAVECAR
   LDOWNSAMPLE  =      F    k-point downsampling of WAVECAR
   LCHARG       =      T    write CHGCAR
   LVTOT        =      F    write LOCPOT, total local potential
   LVHAR        =      F    write LOCPOT, Hartree potential only
   LELF         =      F    write electronic localiz. function (ELF)
   LORBIT       =     11    0 simple, 1 ext, 2 COOP (PROOUT), +10 PAW based schemes


 Dipole corrections
   LMONO  =      F    monopole corrections only (constant potential shift)
   LDIPOL =      F    correct potential (dipole corrections)
   IDIPOL =      0    1-x, 2-y, 3-z, 4-all directions 
   EPSILON=  1.0000000 bulk dielectric constant

 LDA+U is selected, type is set to LDAUTYPE =  2
   angular momentum for each species LDAUL =     2    2    2
   U (eV)           for each species LDAUU =   0.0  0.1  4.7
   J (eV)           for each species LDAUJ =   0.0  0.0  0.0
 Exchange correlation treatment:
   GGA     =    PS    GGA type
   LEXCH   =    14    internal setting for exchange type
   VOSKOWN=      0    Vosko Wilk Nusair interpolation
   LHFCALC =     F    Hartree Fock is set to
   LHFONE  =     F    Hartree Fock one center treatment
   AEXX    =    0.0000 exact exchange contribution

 Linear response parameters
   LEPSILON=     F    determine dielectric tensor
   LRPA    =     F    only Hartree local field effects (RPA)
   LNABLA  =     F    use nabla operator in PAW spheres
   LVEL    =     F    velocity operator in full k-point grid
   LINTERFAST=   F  fast interpolation
   KINTER  =     0    interpolate to denser k-point grid
   CSHIFT  =0.1000    complex shift for real part using Kramers Kronig
   OMEGAMAX=  -1.0    maximum frequency
   DEG_THRESHOLD= 0.2000000E-02 threshold for treating states as degnerate
   RTIME   =   -0.100 relaxation time in fs
  (WPLASMAI=    0.000 imaginary part of plasma frequency in eV, 0.658/RTIME)
   DFIELD  = 0.0000000 0.0000000 0.0000000 field for delta impulse in time
 
 Orbital magnetization related:
   ORBITALMAG=     F  switch on orbital magnetization
   LCHIMAG   =     F  perturbation theory with respect to B field
   DQ        =  0.001000  dq finite difference perturbation B field
   LLRAUG    =     F  two centre corrections for induced B field



--------------------------------------------------------------------------------------------------------


 Static calculation
 charge density and potential will be updated during run
 non collinear spin polarized calculation
 Conjugate gradient for all bands (Freysoldt, et al. PRB 79, 241103 (2009))
 preconditioned conjugated gradient                                        
 perform sub-space diagonalisation
    before iterative eigenvector-optimisation
 modified Broyden-mixing scheme, WC =      100.0
 initial mixing is a Kerker type mixing with AMIX =  0.4000 and BMIX =      1.0000
 Hartree-type preconditioning will be used
 using additional bands          122
 reciprocal scheme for non local part
 use partial core corrections
 no Harris-corrections to forces 
 use gradient corrections 
 use of overlap-Matrix (Vanderbilt PP)
 Fermi weights with tetrahedron method with Bloechl corrections


--------------------------------------------------------------------------------------------------------


  energy-cutoff  :      700.00
  volume of cell :      290.82
      direct lattice vectors                 reciprocal lattice vectors
     5.363961369  0.000000000  0.000000000     0.186429381  0.000000000  0.000000000
     0.000000000  5.363961369  0.000000000     0.000000000  0.186429381  0.000000000
     0.000000000  0.000000000 10.107830094     0.000000000  0.000000000  0.098933202

  length of vectors
     5.363961369  5.363961369 10.107830094     0.186429381  0.186429381  0.098933202


 
 old parameters found on file WAVECAR:
  energy-cutoff  :      700.00
  volume of cell :      290.79
      direct lattice vectors                 reciprocal lattice vectors
     5.363961369  0.000000000  0.000000000     0.186429381  0.000000000  0.000000000
     0.000000000  5.363961369  0.000000000     0.000000000  0.186429381  0.000000000
     0.000000000  0.000000000 10.106774975     0.000000000  0.000000000  0.098943531

  length of vectors

 
 k-points in units of 2pi/SCALE and weight: Automatic mesh                          
   0.00000000  0.00000000  0.00000000       0.009
   0.03107156  0.00000000  0.00000000       0.037
   0.06214313  0.00000000  0.00000000       0.037
   0.09321469  0.00000000  0.00000000       0.019
   0.03107156  0.03107156  0.00000000       0.037
   0.06214313  0.03107156  0.00000000       0.074
   0.09321469  0.03107156  0.00000000       0.037
   0.06214313  0.06214313  0.00000000       0.037
   0.09321469  0.06214313  0.00000000       0.037
   0.09321469  0.09321469  0.00000000       0.009
   0.00000000  0.00000000  0.03297773       0.019
   0.03107156  0.00000000  0.03297773       0.074
   0.06214313  0.00000000  0.03297773       0.074
   0.09321469  0.00000000  0.03297773       0.037
   0.03107156  0.03107156  0.03297773       0.037
   0.06214313  0.03107156  0.03297773       0.074
   0.09321469  0.03107156  0.03297773       0.074
  -0.06214313  0.03107156  0.03297773       0.074
  -0.03107156  0.03107156  0.03297773       0.037
   0.06214313  0.06214313  0.03297773       0.037
   0.09321469  0.06214313  0.03297773       0.074
  -0.06214313  0.06214313  0.03297773       0.037
   0.09321469  0.09321469  0.03297773       0.019
 
 k-points in reciprocal lattice and weights: Automatic mesh                          
   0.00000000  0.00000000  0.00000000       0.009
   0.16666667  0.00000000  0.00000000       0.037
   0.33333333  0.00000000  0.00000000       0.037
   0.50000000  0.00000000  0.00000000       0.019
   0.16666667  0.16666667  0.00000000       0.037
   0.33333333  0.16666667  0.00000000       0.074
   0.50000000  0.16666667  0.00000000       0.037
   0.33333333  0.33333333  0.00000000       0.037
   0.50000000  0.33333333  0.00000000       0.037
   0.50000000  0.50000000  0.00000000       0.009
   0.00000000  0.00000000  0.33333333       0.019
   0.16666667  0.00000000  0.33333333       0.074
   0.33333333  0.00000000  0.33333333       0.074
   0.50000000  0.00000000  0.33333333       0.037
   0.16666667  0.16666667  0.33333333       0.037
   0.33333333  0.16666667  0.33333333       0.074
   0.50000000  0.16666667  0.33333333       0.074
  -0.33333333  0.16666667  0.33333333       0.074
  -0.16666667  0.16666667  0.33333333       0.037
   0.33333333  0.33333333  0.33333333       0.037
   0.50000000  0.33333333  0.33333333       0.074
  -0.33333333  0.33333333  0.33333333       0.037
   0.50000000  0.50000000  0.33333333       0.019
 
 position of ions in fractional coordinates (direct lattice) 
   0.25186327  0.25000000  0.12500000
   0.74813676  0.75000000  0.12500000
   0.25000000  0.74813676  0.87500000
   0.75000000  0.25186327  0.87500000
   0.24813673  0.25000000  0.62500000
   0.75186324  0.75000000  0.62500000
   0.75000000  0.24813673  0.37500000
   0.25000000  0.75186324  0.37500000
   0.00000000  0.00000000  0.50000000
   0.50000000  0.00000000  0.25000000
   0.50000000  0.50000000  0.00000000
   0.00000000  0.50000000  0.75000000
   0.00000000  0.00000000  0.00000000
   0.50000000  0.00000000  0.75000000
   0.50000000  0.50000000  0.50000000
   0.00000000  0.50000000  0.25000000
 
 position of ions in cartesian coordinates  (Angst):
   1.35098483  1.34099034  1.26347876
   4.01297670  4.02297103  1.26347876
   1.34099034  4.01297670  8.84435133
   4.02297103  1.35098483  8.84435133
   1.33099585  1.34099034  6.31739381
   4.03296536  4.02297103  6.31739381
   4.02297103  1.33099585  3.79043629
   1.34099034  4.03296536  3.79043629
   0.00000000  0.00000000  5.05391505
   2.68198068  0.00000000  2.52695752
   2.68198068  2.68198068  0.00000000
   0.00000000  2.68198068  7.58087257
   0.00000000  0.00000000  0.00000000
   2.68198068  0.00000000  7.58087257
   2.68198068  2.68198068  5.05391505
   0.00000000  2.68198068  2.52695752
 
 Euler angles ALPHA=     0.0000000  BETA=     0.0000000

 transformation matrix from SAXIS to cartesian coordinates
 ---------------------------------------------------------
     1.0000000 m_x     0.0000000 m_y     0.0000000 m_z
     0.0000000 m_x     1.0000000 m_y     0.0000000 m_z
     0.0000000 m_x     0.0000000 m_y     1.0000000 m_z

 transformation matrix from cartesian coordinates to SAXIS
 ---------------------------------------------------------
     1.0000000 m_x     0.0000000 m_y     0.0000000 m_z
     0.0000000 m_x     1.0000000 m_y     0.0000000 m_z
     0.0000000 m_x     0.0000000 m_y     1.0000000 m_z




--------------------------------------------------------------------------------------------------------


 k-point  1 :   0.0000 0.0000 0.0000  plane waves:   24446
 k-point  2 :   0.1667 0.0000 0.0000  plane waves:   24526
 k-point  3 :   0.3333 0.0000 0.0000  plane waves:   24446
 k-point  4 :   0.5000 0.0000 0.0000  plane waves:   24448
 k-point  5 :   0.1667 0.1667 0.0000  plane waves:   24514
 k-point  6 :   0.3333 0.1667 0.0000  plane waves:   24462
 k-point  7 :   0.5000 0.1667 0.0000  plane waves:   24444
 k-point  8 :   0.3333 0.3333 0.0000  plane waves:   24432
 k-point  9 :   0.5000 0.3333 0.0000  plane waves:   24468
 k-point 10 :   0.5000 0.5000 0.0000  plane waves:   24496
 k-point 11 :   0.0000 0.0000 0.3333  plane waves:   24496
 k-point 12 :   0.1667 0.0000 0.3333  plane waves:   24502
 k-point 13 :   0.3333 0.0000 0.3333  plane waves:   24446
 k-point 14 :   0.5000 0.0000 0.3333  plane waves:   24456
 k-point 15 :   0.1667 0.1667 0.3333  plane waves:   24498
 k-point 16 :   0.3333 0.1667 0.3333  plane waves:   24474
 k-point 17 :   0.5000 0.1667 0.3333  plane waves:   24428
 k-point 18 :  -0.3333 0.1667 0.3333  plane waves:   24474
 k-point 19 :  -0.1667 0.1667 0.3333  plane waves:   24498
 k-point 20 :   0.3333 0.3333 0.3333  plane waves:   24440
 k-point 21 :   0.5000 0.3333 0.3333  plane waves:   24420
 k-point 22 :  -0.3333 0.3333 0.3333  plane waves:   24440
 k-point 23 :   0.5000 0.5000 0.3333  plane waves:   24408

 maximum and minimum number of plane-waves per node :       800      724

 maximum number of plane-waves:     24526
 maximum index in each direction: 
   IXMAX=   11   IYMAX=   11   IZMAX=   21
   IXMIN=  -12   IYMIN=  -12   IZMIN=  -22


 parallel 3D FFT for wavefunctions:
    minimum data exchange during FFTs selected (reduces bandwidth)
 parallel 3D FFT for charge:
    minimum data exchange during FFTs selected (reduces bandwidth)


 total amount of memory used by VASP MPI-rank0    65368. kBytes
=======================================================================

   base      :      30000. kBytes
   nonl-proj :       4076. kBytes
   fftplans  :       1362. kBytes
   grid      :       5529. kBytes
   one-center:         62. kBytes
   wavefun   :      24339. kBytes
 
     INWAV:  cpu time    5.6773: real time    5.8214
 Broyden mixing: mesh for mixing (old mesh)
   NGX = 23   NGY = 23   NGZ = 43
  (NGX  = 96   NGY  = 96   NGZ  =180)
  gives a total of  22747 points

 initial charge density was supplied:
 number of electron     171.9999855 magnetization       0.0000000     -0.0000000      0.0000000
 charge density for first step will be calculated from the start-wavefunctions


--------------------------------------------------------------------------------------------------------


 BZINTS: Fermi energy:  4.697530;172.000000 electrons
         Band energy:***********;  BLOECHL correction:  0.000000
 Maximum index for augmentation-charges          887 (set IRDMAX)


--------------------------------------------------------------------------------------------------------


 initial charge from wavefunction
 First call to EWALD:  gamma=   0.268
 Maximum number of real-space cells 3x 3x 2
 Maximum number of reciprocal cells 2x 2x 4

    FEWALD:  cpu time    0.0147: real time    0.0147

 ----------------------------------------------------------------------------- 
|                                                                             |
|           W    W    AA    RRRRR   N    N  II  N    N   GGGG   !!!           |
|           W    W   A  A   R    R  NN   N  II  NN   N  G    G  !!!           |
|           W    W  A    A  R    R  N N  N  II  N N  N  G       !!!           |
|           W WW W  AAAAAA  RRRRR   N  N N  II  N  N N  G  GGG   !            |
|           WW  WW  A    A  R   R   N   NN  II  N   NN  G    G                |
|           W    W  A    A  R    R  N    N  II  N    N   GGGG   !!!           |
|                                                                             |
|      ALGO=A and IALGO=5X tend to fail with the tetrahedron method           |
|      (e.g. Bloechls method ISMEAR=-5 is not variational)                    |
|      please switch to IMSEAR=0-n, except for DOS calculations               |
|      For DOS calculations use IALGO=53 after preconverging with ISMEAR>=0   |
|          I HOPE YOU KNOW, WHAT YOU ARE  DOING                               |
|                                                                             |
 ----------------------------------------------------------------------------- 



--------------------------------------- Iteration      1(   1)  ---------------------------------------


    POTLOK:  cpu time    0.0946: real time    0.0947
    SETDIJ:  cpu time    0.6477: real time    0.6477
    TRIAL :  cpu time    3.8499: real time    3.9038
 BZINTS: Fermi energy:  4.697533;172.000000 electrons
         Band energy:***********;  BLOECHL correction:  0.000000
 BZINTS: Fermi energy:  4.697528;172.000000 electrons
         Band energy:***********;  BLOECHL correction:  0.000000
    CORREC:  cpu time    3.0675: real time    3.0706
    CHARGE:  cpu time    0.9648: real time    0.9649
    --------------------------------------------
      LOOP:  cpu time    8.6328: real time    8.7124

 eigenvalue-minimisations  :     0
 total energy-change (2. order) :-0.8201216E+02  (-0.3016875E-05)
 number of electron     171.9999855 magnetization       0.0000000      0.0000000     -0.0000000
 augmentation part       70.5679960 magnetization      -0.0000003      0.0000008     -0.0002278

 Free energy of the ion-electron system (eV)
  ---------------------------------------------------
  alpha Z        PSCENC =       582.64555184
  Ewald energy   TEWEN  =    -15565.73130115
  -Hartree energ DENC   =    -10770.14464555
  -exchange      EXHF   =         0.00000000
  -V(xc)+E(xc)   XCENC  =       821.24075583
  PAW double counting   =     27945.84470852   -28868.70775823
  entropy T*S    EENTRO =         0.00000000
  eigenvalues    EBANDS =     -2732.17574601
  atomic energy  EATOM  =     28505.01627691
  ---------------------------------------------------
  free energy    TOTEN  =       -82.01215785 eV

  energy without entropy =      -82.01215785  energy(sigma->0) =      -82.01215785


--------------------------------------------------------------------------------------------------------




--------------------------------------- Iteration      1(   2)  ---------------------------------------


    POTLOK:  cpu time    0.0950: real time    0.0950
    SETDIJ:  cpu time    0.6516: real time    0.6518
    TRIAL :  cpu time    2.4306: real time    2.4334
 BZINTS: Fermi energy:  4.697543;172.000000 electrons
         Band energy:***********;  BLOECHL correction:  0.000000
 BZINTS: Fermi energy:  4.697531;172.000000 electrons
         Band energy:***********;  BLOECHL correction:  0.000000
    CORREC:  cpu time    3.0671: real time    3.0700
    CHARGE:  cpu time    0.9662: real time    0.9664
    --------------------------------------------
      LOOP:  cpu time    7.2528: real time    7.2593

 eigenvalue-minimisations  :     0
 total energy-change (2. order) :-0.6876891E-05  (-0.1502146E-05)
 number of electron     171.9999855 magnetization       0.0000000      0.0000000      0.0000000
 augmentation part       70.5679960 magnetization      -0.0000006      0.0000007     -0.0002278

 Free energy of the ion-electron system (eV)
  ---------------------------------------------------
  alpha Z        PSCENC =       582.64555184
  Ewald energy   TEWEN  =    -15565.73130115
  -Hartree energ DENC   =    -10770.14460678
  -exchange      EXHF   =         0.00000000
  -V(xc)+E(xc)   XCENC  =       821.24075057
  PAW double counting   =     27945.84476957   -28868.70781987
  entropy T*S    EENTRO =         0.00000000
  eigenvalues    EBANDS =     -2732.17578582
  atomic energy  EATOM  =     28505.01627691
  ---------------------------------------------------
  free energy    TOTEN  =       -82.01216473 eV

  energy without entropy =      -82.01216473  energy(sigma->0) =      -82.01216473


--------------------------------------------------------------------------------------------------------




--------------------------------------- Iteration      1(   3)  ---------------------------------------


    POTLOK:  cpu time    0.0927: real time    0.0927
    SETDIJ:  cpu time    0.6511: real time    0.6513
    TRIAL :  cpu time    2.4454: real time    2.4480
 BZINTS: Fermi energy:  4.697536;172.000000 electrons
         Band energy:***********;  BLOECHL correction:  0.000000
 BZINTS: Fermi energy:  4.697528;172.000000 electrons
         Band energy:***********;  BLOECHL correction:  0.000000
    CORREC:  cpu time    3.0743: real time    3.0772
    CHARGE:  cpu time    0.9697: real time    0.9699
    --------------------------------------------
      LOOP:  cpu time    7.2746: real time    7.2810

 eigenvalue-minimisations  :     0
 total energy-change (2. order) :-0.3647219E-05  (-0.8611070E-06)
 number of electron     171.9999855 magnetization       0.0000000      0.0000000      0.0000000
 augmentation part       70.5679961 magnetization      -0.0000005      0.0000009     -0.0002278

 Free energy of the ion-electron system (eV)
  ---------------------------------------------------
  alpha Z        PSCENC =       582.64555184
  Ewald energy   TEWEN  =    -15565.73130115
  -Hartree energ DENC   =    -10770.14460885
  -exchange      EXHF   =         0.00000000
  -V(xc)+E(xc)   XCENC  =       821.24074815
  PAW double counting   =     27945.84484999   -28868.70790211
  entropy T*S    EENTRO =         0.00000000
  eigenvalues    EBANDS =     -2732.17578315
  atomic energy  EATOM  =     28505.01627691
  ---------------------------------------------------
  free energy    TOTEN  =       -82.01216837 eV

  energy without entropy =      -82.01216837  energy(sigma->0) =      -82.01216837


--------------------------------------------------------------------------------------------------------




--------------------------------------- Iteration      1(   4)  ---------------------------------------


    POTLOK:  cpu time    0.0948: real time    0.0948
    SETDIJ:  cpu time    0.6611: real time    0.6613
    TRIAL :  cpu time    2.4408: real time    2.4434
 BZINTS: Fermi energy:  4.697534;172.000000 electrons
         Band energy:***********;  BLOECHL correction:  0.000000
 BZINTS: Fermi energy:  4.697530;172.000000 electrons
         Band energy:***********;  BLOECHL correction:  0.000000
    CORREC:  cpu time    3.0651: real time    3.0680
    CHARGE:  cpu time    0.9697: real time    0.9699
    --------------------------------------------
      LOOP:  cpu time    7.2703: real time    7.2792

 eigenvalue-minimisations  :     0
 total energy-change (2. order) :-0.3075391E-05  (-0.1100899E-05)
 number of electron     171.9999855 magnetization       0.0000000      0.0000000      0.0000000
 augmentation part       70.5679962 magnetization      -0.0000005      0.0000006     -0.0002278

 Free energy of the ion-electron system (eV)
  ---------------------------------------------------
  alpha Z        PSCENC =       582.64555184
  Ewald energy   TEWEN  =    -15565.73130115
  -Hartree energ DENC   =    -10770.14460828
  -exchange      EXHF   =         0.00000000
  -V(xc)+E(xc)   XCENC  =       821.24074465
  PAW double counting   =     27945.84490879   -28868.70796128
  entropy T*S    EENTRO =         0.00000000
  eigenvalues    EBANDS =     -2732.17578292
  atomic energy  EATOM  =     28505.01627691
  ---------------------------------------------------
  free energy    TOTEN  =       -82.01217145 eV

  energy without entropy =      -82.01217145  energy(sigma->0) =      -82.01217145


--------------------------------------------------------------------------------------------------------




--------------------------------------- Iteration      1(   5)  ---------------------------------------


    POTLOK:  cpu time    0.0954: real time    0.0955
    SETDIJ:  cpu time    0.6531: real time    0.6532
    TRIAL :  cpu time    2.4377: real time    2.4405
 BZINTS: Fermi energy:  4.697532;172.000000 electrons
         Band energy:***********;  BLOECHL correction:  0.000000
 BZINTS: Fermi energy:  4.697528;172.000000 electrons
         Band energy:***********;  BLOECHL correction:  0.000000
    CORREC:  cpu time    3.0642: real time    3.0668
    CHARGE:  cpu time    0.9677: real time    0.9679
    --------------------------------------------
      LOOP:  cpu time    7.2575: real time    7.2666

 eigenvalue-minimisations  :     0
 total energy-change (2. order) :-0.1339600E-05  (-0.4619071E-06)
 number of electron     171.9999855 magnetization      -0.0000000      0.0000000      0.0000000
 augmentation part       70.5679962 magnetization      -0.0000004      0.0000008     -0.0002278

 Free energy of the ion-electron system (eV)
  ---------------------------------------------------
  alpha Z        PSCENC =       582.64555184
  Ewald energy   TEWEN  =    -15565.73130115
  -Hartree energ DENC   =    -10770.14461216
  -exchange      EXHF   =         0.00000000
  -V(xc)+E(xc)   XCENC  =       821.24074596
  PAW double counting   =     27945.84503298   -28868.70808606
  entropy T*S    EENTRO =         0.00000000
  eigenvalues    EBANDS =     -2732.17578110
  atomic energy  EATOM  =     28505.01627691
  ---------------------------------------------------
  free energy    TOTEN  =       -82.01217279 eV

  energy without entropy =      -82.01217279  energy(sigma->0) =      -82.01217279


--------------------------------------------------------------------------------------------------------




--------------------------------------- Iteration      1(   6)  ---------------------------------------


    POTLOK:  cpu time    0.0954: real time    0.0954
    SETDIJ:  cpu time    0.6509: real time    0.6511
    TRIAL :  cpu time    2.4347: real time    2.4376
 BZINTS: Fermi energy:  4.697530;172.000000 electrons
         Band energy:***********;  BLOECHL correction:  0.000000
 BZINTS: Fermi energy:  4.697529;172.000000 electrons
         Band energy:***********;  BLOECHL correction:  0.000000
    CORREC:  cpu time    3.0662: real time    3.0689
    CHARGE:  cpu time    0.9685: real time    0.9687
    --------------------------------------------
      LOOP:  cpu time    7.2544: real time    7.2636

 eigenvalue-minimisations  :     0
 total energy-change (2. order) :-0.1608920E-04  (-0.1583780E-06)
 number of electron     171.9999855 magnetization       0.0000000      0.0000000      0.0000000
 augmentation part       70.5679962 magnetization      -0.0000004      0.0000007     -0.0002278

 Free energy of the ion-electron system (eV)
  ---------------------------------------------------
  alpha Z        PSCENC =       582.64555184
  Ewald energy   TEWEN  =    -15565.73130115
  -Hartree energ DENC   =    -10770.14461330
  -exchange      EXHF   =         0.00000000
  -V(xc)+E(xc)   XCENC  =       821.24070899
  PAW double counting   =     27945.84509214   -28868.70814518
  entropy T*S    EENTRO =         0.00000000
  eigenvalues    EBANDS =     -2732.17575913
  atomic energy  EATOM  =     28505.01627691
  ---------------------------------------------------
  free energy    TOTEN  =       -82.01218888 eV

  energy without entropy =      -82.01218888  energy(sigma->0) =      -82.01218888


--------------------------------------------------------------------------------------------------------




--------------------------------------- Iteration      1(   7)  ---------------------------------------


    POTLOK:  cpu time    0.0960: real time    0.0960
    SETDIJ:  cpu time    0.6499: real time    0.6501
    TRIAL :  cpu time    2.4313: real time    2.4341
 BZINTS: Fermi energy:  4.697529;172.000000 electrons
         Band energy:***********;  BLOECHL correction:  0.000000
 BZINTS: Fermi energy:  4.697529;172.000000 electrons
         Band energy:***********;  BLOECHL correction:  0.000000
    CORREC:  cpu time    3.0639: real time    3.0659
    CHARGE:  cpu time    0.9685: real time    0.9685
    --------------------------------------------
      LOOP:  cpu time    7.2494: real time    7.2575

 eigenvalue-minimisations  :     0
 total energy-change (2. order) : 0.5749493E-05  (-0.2189216E-06)
 number of electron     171.9999855 magnetization      -0.0000000      0.0000000     -0.0000000
 augmentation part       70.5679962 magnetization      -0.0000004      0.0000008     -0.0002278

 Free energy of the ion-electron system (eV)
  ---------------------------------------------------
  alpha Z        PSCENC =       582.64555184
  Ewald energy   TEWEN  =    -15565.73130115
  -Hartree energ DENC   =    -10770.14461459
  -exchange      EXHF   =         0.00000000
  -V(xc)+E(xc)   XCENC  =       821.24072353
  PAW double counting   =     27945.84510964   -28868.70816287
  entropy T*S    EENTRO =         0.00000000
  eigenvalues    EBANDS =     -2732.17576644
  atomic energy  EATOM  =     28505.01627691
  ---------------------------------------------------
  free energy    TOTEN  =       -82.01218313 eV

  energy without entropy =      -82.01218313  energy(sigma->0) =      -82.01218313


--------------------------------------------------------------------------------------------------------




--------------------------------------- Iteration      1(   8)  ---------------------------------------


    POTLOK:  cpu time    0.0934: real time    0.0934
    SETDIJ:  cpu time    0.6517: real time    0.6517
    TRIAL :  cpu time    2.4376: real time    2.4397
 BZINTS: Fermi energy:  4.697529;172.000000 electrons
         Band energy:***********;  BLOECHL correction:  0.000000
 BZINTS: Fermi energy:  4.697529;172.000000 electrons
         Band energy:***********;  BLOECHL correction:  0.000000
    CORREC:  cpu time    3.0586: real time    3.0606
    CHARGE:  cpu time    0.9697: real time    0.9697
    --------------------------------------------
      LOOP:  cpu time    7.2473: real time    7.2549

 eigenvalue-minimisations  :     0
 total energy-change (2. order) : 0.7179475E-05  (-0.6759090E-06)
 number of electron     171.9999855 magnetization       0.0000000      0.0000000      0.0000000
 augmentation part       70.5679963 magnetization      -0.0000003      0.0000004     -0.0002278

 Free energy of the ion-electron system (eV)
  ---------------------------------------------------
  alpha Z        PSCENC =       582.64555184
  Ewald energy   TEWEN  =    -15565.73130115
  -Hartree energ DENC   =    -10770.14461637
  -exchange      EXHF   =         0.00000000
  -V(xc)+E(xc)   XCENC  =       821.24074228
  PAW double counting   =     27945.84514265   -28868.70819600
  entropy T*S    EENTRO =         0.00000000
  eigenvalues    EBANDS =     -2732.17577611
  atomic energy  EATOM  =     28505.01627691
  ---------------------------------------------------
  free energy    TOTEN  =       -82.01217595 eV

  energy without entropy =      -82.01217595  energy(sigma->0) =      -82.01217595


--------------------------------------------------------------------------------------------------------




--------------------------------------- Iteration      1(   9)  ---------------------------------------


    POTLOK:  cpu time    0.0954: real time    0.0954
    SETDIJ:  cpu time    0.6523: real time    0.6523
    TRIAL :  cpu time    2.4379: real time    2.4400
 BZINTS: Fermi energy:  4.697528;172.000000 electrons
         Band energy:***********;  BLOECHL correction:  0.000000
 BZINTS: Fermi energy:  4.697528;172.000000 electrons
         Band energy:***********;  BLOECHL correction:  0.000000
    CORREC:  cpu time    3.0595: real time    3.0616
    CHARGE:  cpu time    0.9731: real time    0.9730
    --------------------------------------------
      LOOP:  cpu time    7.2547: real time    7.2618

 eigenvalue-minimisations  :     0
 total energy-change (2. order) :-0.5189759E-06  (-0.2750116E-06)
 number of electron     171.9999855 magnetization       0.0000000      0.0000000     -0.0000000
 augmentation part       70.5679963 magnetization      -0.0000004      0.0000006     -0.0002278

 Free energy of the ion-electron system (eV)
  ---------------------------------------------------
  alpha Z        PSCENC =       582.64555184
  Ewald energy   TEWEN  =    -15565.73130115
  -Hartree energ DENC   =    -10770.14462170
  -exchange      EXHF   =         0.00000000
  -V(xc)+E(xc)   XCENC  =       821.24074407
  PAW double counting   =     27945.84528629   -28868.70833940
  entropy T*S    EENTRO =         0.00000000
  eigenvalues    EBANDS =     -2732.17577332
  atomic energy  EATOM  =     28505.01627691
  ---------------------------------------------------
  free energy    TOTEN  =       -82.01217647 eV

  energy without entropy =      -82.01217647  energy(sigma->0) =      -82.01217647


--------------------------------------------------------------------------------------------------------




--------------------------------------- Iteration      1(  10)  ---------------------------------------


    POTLOK:  cpu time    0.0940: real time    0.0940
    SETDIJ:  cpu time    0.6522: real time    0.6522
    TRIAL :  cpu time    2.4395: real time    2.4417
 BZINTS: Fermi energy:  4.697527;172.000000 electrons
         Band energy:***********;  BLOECHL correction:  0.000000
 BZINTS: Fermi energy:  4.697528;172.000000 electrons
         Band energy:***********;  BLOECHL correction:  0.000000
    CORREC:  cpu time    3.0791: real time    3.0812
    CHARGE:  cpu time    0.9721: real time    0.9721
    --------------------------------------------
      LOOP:  cpu time    7.2733: real time    7.2806

 eigenvalue-minimisations  :     0
 total energy-change (2. order) :-0.4484080E-05  (-0.9685168E-07)
 number of electron     171.9999855 magnetization       0.0000000      0.0000000      0.0000000
 augmentation part       70.5679963 magnetization      -0.0000004      0.0000007     -0.0002278

 Free energy of the ion-electron system (eV)
  ---------------------------------------------------
  alpha Z        PSCENC =       582.64555184
  Ewald energy   TEWEN  =    -15565.73130115
  -Hartree energ DENC   =    -10770.14462446
  -exchange      EXHF   =         0.00000000
  -V(xc)+E(xc)   XCENC  =       821.24073399
  PAW double counting   =     27945.84535630   -28868.70840920
  entropy T*S    EENTRO =         0.00000000
  eigenvalues    EBANDS =     -2732.17576518
  atomic energy  EATOM  =     28505.01627691
  ---------------------------------------------------
  free energy    TOTEN  =       -82.01218095 eV

  energy without entropy =      -82.01218095  energy(sigma->0) =      -82.01218095


--------------------------------------------------------------------------------------------------------




--------------------------------------- Iteration      1(  11)  ---------------------------------------


    POTLOK:  cpu time    0.0968: real time    0.0968
    SETDIJ:  cpu time    0.6508: real time    0.6508
    TRIAL :  cpu time    2.4298: real time    2.4320
 BZINTS: Fermi energy:  4.697528;172.000000 electrons
         Band energy:***********;  BLOECHL correction:  0.000000
 BZINTS: Fermi energy:  4.697528;172.000000 electrons
         Band energy:***********;  BLOECHL correction:  0.000000
    CORREC:  cpu time    3.0704: real time    3.0724
    CHARGE:  cpu time    0.9730: real time    0.9729
    --------------------------------------------
      LOOP:  cpu time    7.2559: real time    7.2634

 eigenvalue-minimisations  :     0
 total energy-change (2. order) : 0.2502482E-05  (-0.1487683E-06)
 number of electron     171.9999855 magnetization       0.0000000      0.0000000      0.0000000
 augmentation part       70.5679963 magnetization      -0.0000003      0.0000005     -0.0002278

 Free energy of the ion-electron system (eV)
  ---------------------------------------------------
  alpha Z        PSCENC =       582.64555184
  Ewald energy   TEWEN  =    -15565.73130115
  -Hartree energ DENC   =    -10770.14462563
  -exchange      EXHF   =         0.00000000
  -V(xc)+E(xc)   XCENC  =       821.24074069
  PAW double counting   =     27945.84538266   -28868.70843552
  entropy T*S    EENTRO =         0.00000000
  eigenvalues    EBANDS =     -2732.17576823
  atomic energy  EATOM  =     28505.01627691
  ---------------------------------------------------
  free energy    TOTEN  =       -82.01217845 eV

  energy without entropy =      -82.01217845  energy(sigma->0) =      -82.01217845


--------------------------------------------------------------------------------------------------------




--------------------------------------- Iteration      1(  12)  ---------------------------------------


    POTLOK:  cpu time    0.0948: real time    0.0948
    SETDIJ:  cpu time    0.6515: real time    0.6515
    TRIAL :  cpu time    2.4395: real time    2.4417
 BZINTS: Fermi energy:  4.697528;172.000000 electrons
         Band energy:***********;  BLOECHL correction:  0.000000
 BZINTS: Fermi energy:  4.697528;172.000000 electrons
         Band energy:***********;  BLOECHL correction:  0.000000
    CORREC:  cpu time    3.0645: real time    3.0665
    CHARGE:  cpu time    0.9714: real time    0.9714
    --------------------------------------------
      LOOP:  cpu time    7.2595: real time    7.2645

 eigenvalue-minimisations  :     0
 total energy-change (2. order) : 0.3910627E-06  (-0.1526790E-06)
 number of electron     171.9999855 magnetization       0.0000000      0.0000000     -0.0000000
 augmentation part       70.5679963 magnetization      -0.0000004      0.0000007     -0.0002278

 Free energy of the ion-electron system (eV)
  ---------------------------------------------------
  alpha Z        PSCENC =       582.64555184
  Ewald energy   TEWEN  =    -15565.73130115
  -Hartree energ DENC   =    -10770.14462738
  -exchange      EXHF   =         0.00000000
  -V(xc)+E(xc)   XCENC  =       821.24074244
  PAW double counting   =     27945.84542858   -28868.70848130
  entropy T*S    EENTRO =         0.00000000
  eigenvalues    EBANDS =     -2732.17576800
  atomic energy  EATOM  =     28505.01627691
  ---------------------------------------------------
  free energy    TOTEN  =       -82.01217806 eV

  energy without entropy =      -82.01217806  energy(sigma->0) =      -82.01217806


--------------------------------------------------------------------------------------------------------




--------------------------------------- Iteration      1(  13)  ---------------------------------------


    POTLOK:  cpu time    0.0950: real time    0.0950
    SETDIJ:  cpu time    0.6510: real time    0.6510
    TRIAL :  cpu time    2.4263: real time    2.4284
 BZINTS: Fermi energy:  4.697528;172.000000 electrons
         Band energy:***********;  BLOECHL correction:  0.000000
 BZINTS: Fermi energy:  4.697528;172.000000 electrons
         Band energy:***********;  BLOECHL correction:  0.000000
    CORREC:  cpu time    3.0603: real time    3.0623
    CHARGE:  cpu time    0.9691: real time    0.9691
    --------------------------------------------
      LOOP:  cpu time    7.2378: real time    7.2461

 eigenvalue-minimisations  :     0
 total energy-change (2. order) :-0.2551842E-06  (-0.1104836E-06)
 number of electron     171.9999855 magnetization      -0.0000000      0.0000000      0.0000000
 augmentation part       70.5679963 magnetization      -0.0000003      0.0000005     -0.0002278

 Free energy of the ion-electron system (eV)
  ---------------------------------------------------
  alpha Z        PSCENC =       582.64555184
  Ewald energy   TEWEN  =    -15565.73130115
  -Hartree energ DENC   =    -10770.14462915
  -exchange      EXHF   =         0.00000000
  -V(xc)+E(xc)   XCENC  =       821.24074258
  PAW double counting   =     27945.84547940   -28868.70853192
  entropy T*S    EENTRO =         0.00000000
  eigenvalues    EBANDS =     -2732.17576682
  atomic energy  EATOM  =     28505.01627691
  ---------------------------------------------------
  free energy    TOTEN  =       -82.01217831 eV

  energy without entropy =      -82.01217831  energy(sigma->0) =      -82.01217831


--------------------------------------------------------------------------------------------------------




--------------------------------------- Iteration      1(  14)  ---------------------------------------


    POTLOK:  cpu time    0.0990: real time    0.0990
    SETDIJ:  cpu time    0.6509: real time    0.6509
    TRIAL :  cpu time    2.4355: real time    2.4377
 BZINTS: Fermi energy:  4.697528;172.000000 electrons
         Band energy:***********;  BLOECHL correction:  0.000000
 BZINTS: Fermi energy:  4.697528;172.000000 electrons
         Band energy:***********;  BLOECHL correction:  0.000000
    CORREC:  cpu time    3.0596: real time    3.0617
    CHARGE:  cpu time    0.9710: real time    0.9710
    --------------------------------------------
      LOOP:  cpu time    7.2517: real time    7.2592

 eigenvalue-minimisations  :     0
 total energy-change (2. order) :-0.7797807E-06  (-0.6430582E-07)
 number of electron     171.9999855 magnetization       0.0000000      0.0000000      0.0000000
 augmentation part       70.5679963 magnetization      -0.0000003      0.0000006     -0.0002278

 Free energy of the ion-electron system (eV)
  ---------------------------------------------------
  alpha Z        PSCENC =       582.64555184
  Ewald energy   TEWEN  =    -15565.73130115
  -Hartree energ DENC   =    -10770.14462970
  -exchange      EXHF   =         0.00000000
  -V(xc)+E(xc)   XCENC  =       821.24074100
  PAW double counting   =     27945.84551846   -28868.70857078
  entropy T*S    EENTRO =         0.00000000
  eigenvalues    EBANDS =     -2732.17576567
  atomic energy  EATOM  =     28505.01627691
  ---------------------------------------------------
  free energy    TOTEN  =       -82.01217909 eV

  energy without entropy =      -82.01217909  energy(sigma->0) =      -82.01217909


--------------------------------------------------------------------------------------------------------




--------------------------------------- Iteration      1(  15)  ---------------------------------------


    POTLOK:  cpu time    0.0985: real time    0.0985
    SETDIJ:  cpu time    0.6531: real time    0.6531
    TRIAL :  cpu time    2.4425: real time    2.4446
 BZINTS: Fermi energy:  4.697528;172.000000 electrons
         Band energy:***********;  BLOECHL correction:  0.000000
 BZINTS: Fermi energy:  4.697528;172.000000 electrons
         Band energy:***********;  BLOECHL correction:  0.000000
    CORREC:  cpu time    3.0610: real time    3.0631
    CHARGE:  cpu time    0.9690: real time    0.9690
    --------------------------------------------
      LOOP:  cpu time    7.2591: real time    7.2668

 eigenvalue-minimisations  :     0
 total energy-change (2. order) :-0.2384957E-05  (-0.2584049E-07)
 number of electron     171.9999855 magnetization       0.0000000      0.0000000      0.0000000
 augmentation part       70.5679963 magnetization      -0.0000003      0.0000006     -0.0002278

 Free energy of the ion-electron system (eV)
  ---------------------------------------------------
  alpha Z        PSCENC =       582.64555184
  Ewald energy   TEWEN  =    -15565.73130115
  -Hartree energ DENC   =    -10770.14463044
  -exchange      EXHF   =         0.00000000
  -V(xc)+E(xc)   XCENC  =       821.24073532
  PAW double counting   =     27945.84554379   -28868.70859603
  entropy T*S    EENTRO =         0.00000000
  eigenvalues    EBANDS =     -2732.17576172
  atomic energy  EATOM  =     28505.01627691
  ---------------------------------------------------
  free energy    TOTEN  =       -82.01218148 eV

  energy without entropy =      -82.01218148  energy(sigma->0) =      -82.01218148


--------------------------------------------------------------------------------------------------------




--------------------------------------- Iteration      1(  16)  ---------------------------------------


    POTLOK:  cpu time    0.0957: real time    0.0957
    SETDIJ:  cpu time    0.6528: real time    0.6527
    TRIAL :  cpu time    2.4324: real time    2.4346
 BZINTS: Fermi energy:  4.697528;172.000000 electrons
         Band energy:***********;  BLOECHL correction:  0.000000
 BZINTS: Fermi energy:  4.697528;172.000000 electrons
         Band energy:***********;  BLOECHL correction:  0.000000
    CORREC:  cpu time    3.0610: real time    3.0630
    CHARGE:  cpu time    0.9707: real time    0.9707
    --------------------------------------------
      LOOP:  cpu time    7.2485: real time    7.2564

 eigenvalue-minimisations  :     0
 total energy-change (2. order) :-0.1032370E-04  (-0.5623171E-08)
 number of electron     171.9999855 magnetization       0.0000000      0.0000000     -0.0000000
 augmentation part       70.5679963 magnetization      -0.0000003      0.0000006     -0.0002278

 Free energy of the ion-electron system (eV)
  ---------------------------------------------------
  alpha Z        PSCENC =       582.64555184
  Ewald energy   TEWEN  =    -15565.73130115
  -Hartree energ DENC   =    -10770.14463088
  -exchange      EXHF   =         0.00000000
  -V(xc)+E(xc)   XCENC  =       821.24071059
  PAW double counting   =     27945.84555437   -28868.70860660
  entropy T*S    EENTRO =         0.00000000
  eigenvalues    EBANDS =     -2732.17574689
  atomic energy  EATOM  =     28505.01627691
  ---------------------------------------------------
  free energy    TOTEN  =       -82.01219180 eV

  energy without entropy =      -82.01219180  energy(sigma->0) =      -82.01219180


--------------------------------------------------------------------------------------------------------




--------------------------------------- Iteration      1(  17)  ---------------------------------------


    POTLOK:  cpu time    0.0954: real time    0.0954
    SETDIJ:  cpu time    0.6523: real time    0.6523
    TRIAL :  cpu time    2.4371: real time    2.4392
 BZINTS: Fermi energy:  4.697528;172.000000 electrons
         Band energy:***********;  BLOECHL correction:  0.000000
 BZINTS: Fermi energy:  4.697528;172.000000 electrons
         Band energy:***********;  BLOECHL correction:  0.000000
    CORREC:  cpu time    3.0590: real time    3.0610
    CHARGE:  cpu time    0.9697: real time    0.9696
    --------------------------------------------
      LOOP:  cpu time    7.2500: real time    7.2575

 eigenvalue-minimisations  :     0
 total energy-change (2. order) :-0.9911437E-06  (-0.4721199E-08)
 number of electron     171.9999855 magnetization       0.0000000      0.0000000     -0.0000000
 augmentation part       70.5679963 magnetization      -0.0000003      0.0000006     -0.0002278

 Free energy of the ion-electron system (eV)
  ---------------------------------------------------
  alpha Z        PSCENC =       582.64555184
  Ewald energy   TEWEN  =    -15565.73130115
  -Hartree energ DENC   =    -10770.14463097
  -exchange      EXHF   =         0.00000000
  -V(xc)+E(xc)   XCENC  =       821.24070826
  PAW double counting   =     27945.84555562   -28868.70860786
  entropy T*S    EENTRO =         0.00000000
  eigenvalues    EBANDS =     -2732.17574544
  atomic energy  EATOM  =     28505.01627691
  ---------------------------------------------------
  free energy    TOTEN  =       -82.01219279 eV

  energy without entropy =      -82.01219279  energy(sigma->0) =      -82.01219279


--------------------------------------------------------------------------------------------------------




--------------------------------------- Iteration      1(  18)  ---------------------------------------


    POTLOK:  cpu time    0.0953: real time    0.0953
    SETDIJ:  cpu time    0.6527: real time    0.6527
    TRIAL :  cpu time    2.4342: real time    2.4363
 BZINTS: Fermi energy:  4.697528;172.000000 electrons
         Band energy:***********;  BLOECHL correction:  0.000000
 BZINTS: Fermi energy:  4.697528;172.000000 electrons
         Band energy:***********;  BLOECHL correction:  0.000000
    CORREC:  cpu time    3.0609: real time    3.0629
    CHARGE:  cpu time    0.9706: real time    0.9706
    --------------------------------------------
      LOOP:  cpu time    7.2497: real time    7.2577

 eigenvalue-minimisations  :     0
 total energy-change (2. order) :-0.1921599E-06  (-0.4557347E-08)
 number of electron     171.9999855 magnetization       0.0000000      0.0000000     -0.0000000
 augmentation part       70.5679963 magnetization      -0.0000003      0.0000006     -0.0002278

 Free energy of the ion-electron system (eV)
  ---------------------------------------------------
  alpha Z        PSCENC =       582.64555184
  Ewald energy   TEWEN  =    -15565.73130115
  -Hartree energ DENC   =    -10770.14463105
  -exchange      EXHF   =         0.00000000
  -V(xc)+E(xc)   XCENC  =       821.24070783
  PAW double counting   =     27945.84555657   -28868.70860882
  entropy T*S    EENTRO =         0.00000000
  eigenvalues    EBANDS =     -2732.17574512
  atomic energy  EATOM  =     28505.01627691
  ---------------------------------------------------
  free energy    TOTEN  =       -82.01219299 eV

  energy without entropy =      -82.01219299  energy(sigma->0) =      -82.01219299


--------------------------------------------------------------------------------------------------------




--------------------------------------- Iteration      1(  19)  ---------------------------------------


    POTLOK:  cpu time    0.0957: real time    0.0957
    SETDIJ:  cpu time    0.6531: real time    0.6530
    TRIAL :  cpu time    2.4642: real time    2.4664
 BZINTS: Fermi energy:  4.697528;172.000000 electrons
         Band energy:***********;  BLOECHL correction:  0.000000
 BZINTS: Fermi energy:  4.697528;172.000000 electrons
         Band energy:***********;  BLOECHL correction:  0.000000
    CORREC:  cpu time    3.0667: real time    3.0688
    CHARGE:  cpu time    0.9706: real time    0.9706
    --------------------------------------------
      LOOP:  cpu time    7.2868: real time    7.2943

 eigenvalue-minimisations  :     0
 total energy-change (2. order) :-0.5307811E-07  (-0.5694067E-08)
 number of electron     171.9999855 magnetization       0.0000000      0.0000000     -0.0000000
 augmentation part       70.5679963 magnetization      -0.0000003      0.0000006     -0.0002278

 Free energy of the ion-electron system (eV)
  ---------------------------------------------------
  alpha Z        PSCENC =       582.64555184
  Ewald energy   TEWEN  =    -15565.73130115
  -Hartree energ DENC   =    -10770.14463112
  -exchange      EXHF   =         0.00000000
  -V(xc)+E(xc)   XCENC  =       821.24070773
  PAW double counting   =     27945.84555748   -28868.70860974
  entropy T*S    EENTRO =         0.00000000
  eigenvalues    EBANDS =     -2732.17574498
  atomic energy  EATOM  =     28505.01627691
  ---------------------------------------------------
  free energy    TOTEN  =       -82.01219304 eV

  energy without entropy =      -82.01219304  energy(sigma->0) =      -82.01219304


--------------------------------------------------------------------------------------------------------




--------------------------------------- Iteration      1(  20)  ---------------------------------------


    POTLOK:  cpu time    0.0946: real time    0.0946
    SETDIJ:  cpu time    0.6506: real time    0.6506
    TRIAL :  cpu time    2.4534: real time    2.4555
 BZINTS: Fermi energy:  4.697528;172.000000 electrons
         Band energy:***********;  BLOECHL correction:  0.000000
 BZINTS: Fermi energy:  4.697528;172.000000 electrons
         Band energy:***********;  BLOECHL correction:  0.000000
    CORREC:  cpu time    3.0725: real time    3.0745
    CHARGE:  cpu time    0.9709: real time    0.9708
    --------------------------------------------
      LOOP:  cpu time    7.2775: real time    7.2849

 eigenvalue-minimisations  :     0
 total energy-change (2. order) :-0.2327033E-07  (-0.1860315E-07)
 number of electron     171.9999855 magnetization       0.0000000      0.0000000      0.0000000
 augmentation part       70.5679964 magnetization      -0.0000003      0.0000006     -0.0002278

 Free energy of the ion-electron system (eV)
  ---------------------------------------------------
  alpha Z        PSCENC =       582.64555184
  Ewald energy   TEWEN  =    -15565.73130115
  -Hartree energ DENC   =    -10770.14463122
  -exchange      EXHF   =         0.00000000
  -V(xc)+E(xc)   XCENC  =       821.24070770
  PAW double counting   =     27945.84555862   -28868.70861090
  entropy T*S    EENTRO =         0.00000000
  eigenvalues    EBANDS =     -2732.17574487
  atomic energy  EATOM  =     28505.01627691
  ---------------------------------------------------
  free energy    TOTEN  =       -82.01219306 eV

  energy without entropy =      -82.01219306  energy(sigma->0) =      -82.01219306


--------------------------------------------------------------------------------------------------------




--------------------------------------- Iteration      1(  21)  ---------------------------------------


    POTLOK:  cpu time    0.0950: real time    0.0950
    SETDIJ:  cpu time    0.6505: real time    0.6504
    TRIAL :  cpu time    2.4357: real time    2.4378
 BZINTS: Fermi energy:  4.697528;172.000000 electrons
         Band energy:***********;  BLOECHL correction:  0.000000
 BZINTS: Fermi energy:  4.697528;172.000000 electrons
         Band energy:***********;  BLOECHL correction:  0.000000
    CORREC:  cpu time    3.0637: real time    3.0658
    CHARGE:  cpu time    0.9720: real time    0.9719
    --------------------------------------------
      LOOP:  cpu time    7.2520: real time    7.2595

 eigenvalue-minimisations  :     0
 total energy-change (2. order) :-0.3351488E-07  (-0.1239459E-07)
 number of electron     171.9999855 magnetization       0.0000000      0.0000000      0.0000000
 augmentation part       70.5679964 magnetization      -0.0000003      0.0000006     -0.0002278

 Free energy of the ion-electron system (eV)
  ---------------------------------------------------
  alpha Z        PSCENC =       582.64555184
  Ewald energy   TEWEN  =    -15565.73130115
  -Hartree energ DENC   =    -10770.14463154
  -exchange      EXHF   =         0.00000000
  -V(xc)+E(xc)   XCENC  =       821.24070771
  PAW double counting   =     27945.84556237   -28868.70861469
  entropy T*S    EENTRO =         0.00000000
  eigenvalues    EBANDS =     -2732.17574455
  atomic energy  EATOM  =     28505.01627691
  ---------------------------------------------------
  free energy    TOTEN  =       -82.01219310 eV

  energy without entropy =      -82.01219310  energy(sigma->0) =      -82.01219310


--------------------------------------------------------------------------------------------------------




--------------------------------------- Iteration      1(  22)  ---------------------------------------


    POTLOK:  cpu time    0.0950: real time    0.0950
    SETDIJ:  cpu time    0.6517: real time    0.6517
    TRIAL :  cpu time    2.4343: real time    2.4365
 BZINTS: Fermi energy:  4.697528;172.000000 electrons
         Band energy:***********;  BLOECHL correction:  0.000000
[...]
 -0.000  -0.000  -0.000  -0.000   0.000  -0.000  -0.000  -0.000   0.000  -0.000   0.000  -0.000  -0.000  -0.000   0.000  -0.000
 pseudopotential strength for first ion, spin component:           3
  0.000   0.000   0.000   0.000   0.000  -0.000  -0.000  -0.000  -0.000   0.000   0.000  -0.000  -0.000  -0.000  -0.000   0.000
  0.000   0.000   0.000   0.000   0.000  -0.000  -0.000  -0.000  -0.000   0.000   0.000  -0.000  -0.000  -0.000  -0.000   0.000
  0.000  -0.000   0.000  -0.000   0.000  -0.000   0.000   0.000   0.000   0.000   0.000  -0.000   0.000   0.000   0.000   0.000
 -0.000  -0.000  -0.000  -0.000   0.000   0.000   0.000   0.000  -0.000   0.000   0.000   0.000   0.000   0.000  -0.000   0.000
 -0.000   0.000  -0.000   0.000   0.000   0.000  -0.000   0.000   0.000   0.000   0.000   0.000  -0.000   0.000   0.000   0.000
  0.000  -0.000   0.000  -0.000   0.000  -0.000   0.000   0.000   0.000   0.000   0.000  -0.000   0.000   0.000   0.000   0.000
 -0.000  -0.000  -0.000  -0.000   0.000   0.000   0.000   0.000  -0.000   0.000   0.000   0.000   0.000   0.000  -0.000   0.000
 -0.000   0.000  -0.000   0.000   0.000   0.000  -0.000   0.000   0.000   0.000   0.000   0.000  -0.000   0.000   0.000   0.000
 pseudopotential strength for first ion, spin component:           4
 39.545   0.000  45.415   0.000  -0.001   0.000  -0.001   0.000  -0.003   0.000  -0.001   0.000  -0.001   0.000  -0.004   0.000
 45.415   0.000  52.159   0.000  -0.001   0.000  -0.001   0.000  -0.004   0.000  -0.001   0.000  -0.001   0.000  -0.005   0.000
 -0.001   0.000  -0.001   0.000   8.209   0.000   0.002   0.000  -0.000   0.000  11.127   0.000   0.002   0.000  -0.000   0.000
 -0.001   0.000  -0.001   0.000   0.002   0.000   8.208   0.000  -0.001   0.000   0.002   0.000  11.126   0.000  -0.001   0.000
 -0.003   0.000  -0.004   0.000  -0.000   0.000  -0.001   0.000   8.209   0.000  -0.000   0.000  -0.001   0.000  11.127   0.000
 -0.001   0.000  -0.001   0.000  11.127   0.000   0.002   0.000  -0.000   0.000  15.101   0.000   0.003   0.000  -0.000   0.000
 -0.001   0.000  -0.001   0.000   0.002   0.000  11.126   0.000  -0.001   0.000   0.003   0.000  15.100   0.000  -0.001   0.000
 -0.004   0.000  -0.005   0.000  -0.000   0.000  -0.001   0.000  11.127   0.000  -0.000   0.000  -0.001   0.000  15.102   0.000
 total augmentation occupancy for first ion, spin component:           1
 10.702  -6.619   0.000   0.000  -0.577   0.000   0.000   0.155
 -6.619   4.800   0.000   0.000   0.475   0.000   0.000  -0.097
  0.000   0.000   3.636   0.084   0.000  -1.028  -0.045   0.000
  0.000   0.000   0.084   3.510   0.000  -0.045  -0.964   0.000
 -0.577   0.475   0.000   0.000   3.635   0.000   0.000  -1.031
  0.000   0.000  -1.028  -0.045   0.000   0.343   0.016   0.000
  0.000   0.000  -0.045  -0.964   0.000   0.016   0.319   0.000
  0.155  -0.097   0.000   0.000  -1.031   0.000   0.000   0.345
 total augmentation occupancy for first ion, spin component:           2
 -0.000   0.000   0.000   0.000   0.000  -0.000   0.000  -0.000
  0.000  -0.000   0.000   0.000  -0.000   0.000   0.000   0.000
  0.000  -0.000  -0.000  -0.000   0.000   0.000   0.000  -0.000
  0.000   0.000  -0.000  -0.000  -0.000   0.000   0.000   0.000
  0.000  -0.000   0.000   0.000  -0.000  -0.000   0.000   0.000
  0.000   0.000   0.000   0.000  -0.000  -0.000  -0.000   0.000
  0.000   0.000   0.000   0.000   0.000  -0.000  -0.000   0.000
 -0.000   0.000  -0.000   0.000   0.000   0.000   0.000  -0.000
 total augmentation occupancy for first ion, spin component:           3
  0.000   0.000   0.000   0.000  -0.000  -0.000  -0.000   0.000
 -0.000  -0.000  -0.000  -0.000   0.000   0.000   0.000  -0.000
  0.000  -0.000   0.000   0.000   0.000   0.000   0.000  -0.000
  0.000  -0.000   0.000   0.000  -0.000   0.000  -0.000   0.000
  0.000   0.000   0.000  -0.000   0.000  -0.000   0.000   0.000
 -0.000   0.000   0.000   0.000  -0.000   0.000  -0.000   0.000
 -0.000   0.000   0.000   0.000   0.000   0.000   0.000  -0.000
  0.000  -0.000  -0.000   0.000  -0.000   0.000  -0.000   0.000
 total augmentation occupancy for first ion, spin component:           4
  0.000   0.000   0.120   0.101   0.000   0.078   0.075   0.000
  0.000  -0.000  -0.096  -0.081   0.000  -0.087  -0.082   0.000
  0.120  -0.096   0.000   0.000   0.006   0.000  -0.000  -0.006
  0.101  -0.081   0.000  -0.000   0.007   0.000   0.000  -0.003
  0.000   0.000   0.006   0.007   0.000  -0.006  -0.003   0.000
  0.078  -0.087   0.000  -0.000  -0.006   0.000   0.000   0.015
  0.075  -0.082  -0.000   0.000  -0.003  -0.000   0.000   0.013
  0.000   0.000  -0.006  -0.003   0.000   0.015   0.013   0.000


------------------------ aborting loop because EDIFF is reached ----------------------------------------


 


 total charge     
 
# of ion       s       p       d       tot
------------------------------------------
    1        1.314   2.405   0.000   3.719
    2        1.314   2.404   0.000   3.718
    3        1.314   2.403   0.000   3.717
    4        1.314   2.403   0.000   3.717
    5        1.314   2.404   0.000   3.718
    6        1.314   2.405   0.000   3.719
    7        1.314   2.403   0.000   3.717
    8        1.314   2.403   0.000   3.717
    9        0.256   6.196   8.919  15.370
   10        0.256   6.196   8.919  15.371
   11        0.256   6.196   8.919  15.370
   12        0.256   6.196   8.919  15.371
   13        0.347   6.345   5.814  12.506
   14        0.347   6.345   5.814  12.506
   15        0.347   6.345   5.814  12.506
   16        0.347   6.345   5.814  12.506
--------------------------------------------------
tot         12.922  69.394  58.934 141.250
 


 magnetization (x)
 
# of ion       s       p       d       tot
------------------------------------------
    1        0.000   0.000   0.000   0.000
    2       -0.000  -0.000   0.000  -0.000
    3        0.000   0.000   0.000   0.000
    4        0.000   0.000   0.000   0.000
    5       -0.000  -0.000   0.000  -0.000
    6        0.000   0.000   0.000   0.000
    7        0.000   0.000   0.000   0.000
    8        0.000   0.000   0.000   0.000
    9        0.000  -0.000   0.000   0.000
   10       -0.000   0.000   0.000   0.000
   11        0.000  -0.000   0.000   0.000
   12       -0.000   0.000   0.000   0.000
   13        0.000   0.000   0.000   0.000
   14        0.000   0.000   0.000   0.000
   15        0.000   0.000   0.000   0.000
   16        0.000   0.000   0.000   0.000
--------------------------------------------------
tot          0.000   0.000   0.000   0.000
 


 magnetization (y)
 
# of ion       s       p       d       tot
------------------------------------------
    1       -0.000  -0.000   0.000  -0.000
    2       -0.000  -0.000   0.000  -0.000
    3        0.000   0.000   0.000   0.000
    4       -0.000  -0.000   0.000  -0.000
    5       -0.000  -0.000   0.000  -0.000
    6       -0.000  -0.000   0.000  -0.000
    7        0.000   0.000   0.000   0.000
    8       -0.000  -0.000   0.000  -0.000
    9       -0.000   0.000  -0.000  -0.000
   10        0.000  -0.000  -0.000  -0.000
   11       -0.000   0.000  -0.000  -0.000
   12        0.000  -0.000  -0.000  -0.000
   13        0.000  -0.000  -0.000  -0.000
   14       -0.000  -0.000  -0.000  -0.000
   15        0.000  -0.000  -0.000  -0.000
   16       -0.000  -0.000  -0.000  -0.000
--------------------------------------------------
tot         -0.000  -0.000  -0.000  -0.000
 


 magnetization (z)
 
# of ion       s       p       d       tot
------------------------------------------
    1        0.000  -0.002   0.000  -0.002
    2        0.000  -0.003   0.000  -0.003
    3       -0.000   0.003   0.000   0.002
    4       -0.000   0.003   0.000   0.003
    5        0.000  -0.003   0.000  -0.003
    6        0.000  -0.002   0.000  -0.002
    7       -0.000   0.003   0.000   0.002
    8       -0.000   0.003   0.000   0.003
    9        0.000   0.001  -0.006  -0.004
   10       -0.000  -0.001   0.005   0.004
   11        0.000   0.001  -0.006  -0.004
   12       -0.000  -0.001   0.005   0.004
   13        0.020   0.054   3.677   3.751
   14       -0.020  -0.054  -3.677  -3.751
   15        0.020   0.054   3.677   3.751
   16       -0.020  -0.054  -3.677  -3.751
--------------------------------------------------
tot         -0.000   0.000  -0.000  -0.000
 
    FORLOC:  cpu time    0.0012: real time    0.0012
    FORNL :  cpu time    0.7496: real time    0.7496
    STRESS:  cpu time    0.6629: real time    0.6628
    FORCOR:  cpu time    0.0823: real time    0.0824
    OFIELD:  cpu time    0.0007: real time    0.0007

  FORCE on cell =-STRESS in cart. coord.  units (eV):
  Direction    XX          YY          ZZ          XY          YZ          ZX
  --------------------------------------------------------------------------------------
  Alpha Z   582.64555   582.64555   582.64555
  Ewald   -5098.61790 -5098.61790 -5368.53108     0.00000     0.00000     0.00000
  Hartree  3632.62533  3632.62533  3504.89398    -0.00000     0.00000     0.00000
  E(xc)   -1050.26758 -1050.26758 -1050.40908    -0.00000    -0.00000    -0.00000
  Local   -1407.90074 -1407.90074 -1008.17588    -0.00000    -0.00000    -0.00000
  n-local   119.85753   121.35093   118.01068    -0.19997    -0.03135    -0.02749
  augment  1181.64732  1181.64732  1177.78074     0.00000     0.00000     0.00000
  Kinetic  2032.07263  2040.97432  2043.78535    -0.81839     0.14193    -0.05581
  Fock        0.00000     0.00000     0.00000     0.00000     0.00000     0.00000
  -------------------------------------------------------------------------------------
  Total      -2.74032    -2.74032     0.00027     0.00000     0.00000     0.00000
  in kB     -15.09671   -15.09671     0.00149     0.00000     0.00000     0.00000
  external pressure =      -10.06 kB  Pullay stress =        0.00 kB


 VOLUME and BASIS-vectors are now :
 -----------------------------------------------------------------------------
  energy-cutoff  :      700.00
  volume of cell :      290.82
      direct lattice vectors                 reciprocal lattice vectors
     5.363961369  0.000000000  0.000000000     0.186429381  0.000000000  0.000000000
     0.000000000  5.363961369  0.000000000     0.000000000  0.186429381  0.000000000
     0.000000000  0.000000000 10.107830094     0.000000000  0.000000000  0.098933202

  length of vectors
     5.363961369  5.363961369 10.107830094     0.186429381  0.186429381  0.098933202


 FORCES acting on ions:
    Electron-Ion                     Ewald-Force                    Non-Local-Force
 -----------------------------------------------------------------------------------------------
   0.422E+02 -.221E-12 -.130E-12   -.429E+02 0.654E-12 0.568E-13   0.790E+00 0.511E-19 0.656E-18
   -.422E+02 0.426E-12 -.154E-11   0.429E+02 -.125E-11 -.284E-13   -.790E+00 -.232E-18 -.145E-17
   0.166E-12 -.422E+02 0.394E-13   0.710E-12 0.429E+02 -.426E-13   0.598E-18 -.790E+00 -.116E-17
   -.470E-13 0.422E+02 0.326E-12   -.124E-11 -.429E+02 -.426E-13   -.384E-18 0.790E+00 0.310E-18
   -.422E+02 0.293E-12 0.316E-12   0.429E+02 0.665E-12 0.142E-13   -.790E+00 -.156E-18 -.355E-18
   0.422E+02 0.161E-12 -.244E-12   -.429E+02 -.124E-11 0.995E-13   0.790E+00 0.863E-19 -.119E-18
   -.168E-12 -.422E+02 -.526E-12   -.125E-11 0.429E+02 0.568E-13   0.101E-17 -.790E+00 0.831E-18
   0.272E-13 0.422E+02 0.453E-12   0.753E-12 -.429E+02 0.568E-13   0.737E-19 0.790E+00 0.284E-18
   0.709E-12 0.318E-12 0.356E-11   0.106E-04 -.247E-04 0.000E+00   0.598E-19 0.171E-18 -.261E-17
   0.225E-11 -.350E-12 -.738E-11   -.106E-04 -.247E-04 -.813E-11   0.436E-18 0.611E-19 -.120E-17
   0.228E-11 -.534E-11 0.603E-12   -.106E-04 0.247E-04 -.568E-13   -.441E-18 0.501E-19 0.117E-17
   0.735E-12 0.128E-11 0.397E-11   0.106E-04 0.247E-04 0.797E-11   0.775E-20 0.188E-18 0.154E-17
   0.157E-12 -.360E-12 -.383E-12   -.811E-05 0.205E-04 -.568E-13   -.439E-18 0.481E-18 0.133E-17
   0.827E-12 0.371E-12 -.319E-10   0.811E-05 0.205E-04 -.624E-11   -.680E-18 0.226E-18 -.259E-17
   0.800E-12 -.440E-11 -.108E-10   0.811E-05 -.205E-04 -.171E-12   0.470E-18 0.522E-19 0.119E-17
   0.165E-12 0.102E-11 0.960E-12   -.811E-05 -.205E-04 0.642E-11   0.404E-18 0.270E-18 -.244E-17
 -----------------------------------------------------------------------------------------------
   0.134E-10 0.651E-12 -.430E-10   -.208E-13 -.228E-13 -.848E-13   0.223E-15 0.446E-15 -.464E-17
 
 
 POSITION                                       TOTAL-FORCE (eV/Angst)
 -----------------------------------------------------------------------------------
      1.35098      1.34099      1.26348        -0.000001      0.000000      0.000000
      4.01298      4.02297      1.26348         0.000001      0.000000      0.000000
      1.34099      4.01298      8.84435         0.000000      0.000001     -0.000000
      4.02297      1.35098      8.84435         0.000000     -0.000001      0.000000
      1.33100      1.34099      6.31739         0.000001      0.000000      0.000000
      4.03297      4.02297      6.31739        -0.000001      0.000000     -0.000000
      4.02297      1.33100      3.79044         0.000000      0.000001     -0.000000
      1.34099      4.03297      3.79044         0.000000     -0.000001      0.000000
      0.00000      0.00000      5.05392        -0.000000      0.000000      0.000000
      2.68198      0.00000      2.52696         0.000000      0.000000     -0.000000
      2.68198      2.68198      0.00000         0.000000     -0.000000      0.000000
      0.00000      2.68198      7.58087         0.000000      0.000000     -0.000000
      0.00000      0.00000      0.00000        -0.000000     -0.000000      0.000000
      2.68198      0.00000      7.58087        -0.000000      0.000000      0.000000
      2.68198      2.68198      5.05392        -0.000000      0.000000     -0.000000
      0.00000      2.68198      2.52696         0.000000     -0.000000     -0.000000
 -----------------------------------------------------------------------------------
    total drift:                                0.000000      0.000000     -0.000000


--------------------------------------------------------------------------------------------------------



  FREE ENERGIE OF THE ION-ELECTRON SYSTEM (eV)
  ---------------------------------------------------
  free  energy   TOTEN  =       -82.01219348 eV

  energy  without entropy=      -82.01219348  energy(sigma->0) =      -82.01219348
 


--------------------------------------------------------------------------------------------------------


    POTLOK:  cpu time    0.7317: real time    0.7317


--------------------------------------------------------------------------------------------------------


 writing wavefunctions
     LOOP+:  cpu time  262.3891: real time  267.5217
    4ORBIT:  cpu time    0.0000: real time    0.0000
 


 total charge     
 
# of ion       s       p       d       tot
------------------------------------------
    1        1.314   2.405   0.000   3.719
    2        1.314   2.404   0.000   3.718
    3        1.314   2.403   0.000   3.717
    4        1.314   2.403   0.000   3.717
    5        1.314   2.404   0.000   3.718
    6        1.314   2.405   0.000   3.719
    7        1.314   2.403   0.000   3.717
    8        1.314   2.403   0.000   3.717
    9        0.256   6.196   8.919  15.370
   10        0.256   6.196   8.919  15.371
   11        0.256   6.196   8.919  15.370
   12        0.256   6.196   8.919  15.371
   13        0.347   6.345   5.814  12.506
   14        0.347   6.345   5.814  12.506
   15        0.347   6.345   5.814  12.506
   16        0.347   6.345   5.814  12.506
--------------------------------------------------
tot         12.922  69.394  58.934 141.250
 


 magnetization (x)
 
# of ion       s       p       d       tot
------------------------------------------
    1        0.000   0.000   0.000   0.000
    2       -0.000  -0.000   0.000  -0.000
    3        0.000   0.000   0.000   0.000
    4        0.000   0.000   0.000   0.000
    5       -0.000  -0.000   0.000  -0.000
    6        0.000   0.000   0.000   0.000
    7        0.000   0.000   0.000   0.000
    8        0.000   0.000   0.000   0.000
    9        0.000  -0.000   0.000   0.000
   10       -0.000   0.000   0.000   0.000
   11        0.000  -0.000   0.000   0.000
   12       -0.000   0.000   0.000   0.000
   13        0.000   0.000   0.000   0.000
   14        0.000   0.000   0.000   0.000
   15        0.000   0.000   0.000   0.000
   16        0.000   0.000   0.000   0.000
--------------------------------------------------
tot          0.000   0.000   0.000   0.000
 


 magnetization (y)
 
# of ion       s       p       d       tot
------------------------------------------
    1       -0.000  -0.000   0.000  -0.000
    2       -0.000  -0.000   0.000  -0.000
    3        0.000   0.000   0.000   0.000
    4       -0.000  -0.000   0.000  -0.000
    5       -0.000  -0.000   0.000  -0.000
    6       -0.000  -0.000   0.000  -0.000
    7        0.000   0.000   0.000   0.000
    8       -0.000  -0.000   0.000  -0.000
    9       -0.000   0.000  -0.000  -0.000
   10        0.000  -0.000  -0.000  -0.000
   11       -0.000   0.000  -0.000  -0.000
   12        0.000  -0.000  -0.000  -0.000
   13        0.000  -0.000  -0.000  -0.000
   14       -0.000  -0.000  -0.000  -0.000
   15        0.000  -0.000  -0.000  -0.000
   16       -0.000  -0.000  -0.000  -0.000
--------------------------------------------------
tot         -0.000  -0.000  -0.000  -0.000
 


 magnetization (z)
 
# of ion       s       p       d       tot
------------------------------------------
    1        0.000  -0.002   0.000  -0.002
    2        0.000  -0.003   0.000  -0.003
    3       -0.000   0.003   0.000   0.002
    4       -0.000   0.003   0.000   0.003
    5        0.000  -0.003   0.000  -0.003
    6        0.000  -0.002   0.000  -0.002
    7       -0.000   0.003   0.000   0.002
    8       -0.000   0.003   0.000   0.003
    9        0.000   0.001  -0.006  -0.004
   10       -0.000  -0.001   0.005   0.004
   11        0.000   0.001  -0.006  -0.004
   12       -0.000  -0.001   0.005   0.004
   13        0.020   0.054   3.677   3.751
   14       -0.020  -0.054  -3.677  -3.751
   15        0.020   0.054   3.677   3.751
   16       -0.020  -0.054  -3.677  -3.751
--------------------------------------------------
tot         -0.000   0.000  -0.000  -0.000
 
 BZINTS: Fermi energy:  4.697528;172.000000 electrons
         Band energy:***********;  BLOECHL correction:  0.000000
 BZINTS: Fermi energy:  4.697528;172.000000 electrons
         Band energy:***********;  BLOECHL correction:  0.000000
 BZINTS: Fermi energy:  4.697528;172.000000 electrons
         Band energy:***********;  BLOECHL correction:  0.000000
 BZINTS: Fermi energy:  4.697528;172.000000 electrons
         Band energy:***********;  BLOECHL correction:  0.000000

 total amount of memory used by VASP MPI-rank0    65368. kBytes
=======================================================================

   base      :      30000. kBytes
   nonl-proj :       4076. kBytes
   fftplans  :       1362. kBytes
   grid      :       5529. kBytes
   one-center:         62. kBytes
   wavefun   :      24339. kBytes
 
  
  
 General timing and accounting informations for this job:
 ========================================================
  
                  Total CPU time used (sec):      289.001
                            User time (sec):      272.277
                          System time (sec):       16.724
                         Elapsed time (sec):      296.470
  
                   Maximum memory used (kb):      341532.
                   Average memory used (kb):           0.
  
                          Minor page faults:       246747
                          Major page faults:           96
                 Voluntary context switches:        55142
