       N       E                     dE             d eps       ncg     rms          rms(c)
DAV:   1     0.596202022507E+04    0.59620E+04   -0.52011E+05 16384   0.197E+03
DAV:   2    -0.174625220404E+03   -0.61366E+04   -0.60333E+04 18688   0.449E+02
DAV:   3    -0.416412165316E+03   -0.24179E+03   -0.24113E+03 22272   0.965E+01
DAV:   4    -0.419785450233E+03   -0.33733E+01   -0.33731E+01 20992   0.115E+01
DAV:   5    -0.419895906310E+03   -0.11046E+00   -0.11046E+00 20736   0.203E+00    0.764E+01
DAV:   6    -0.351500110460E+03    0.68396E+02   -0.12351E+02 21504   0.332E+01    0.464E+01
DAV:   7    -0.334491798438E+03    0.17008E+02   -0.75957E+01 20480   0.327E+01    0.418E+01
DAV:   8    -0.329377818320E+03    0.51140E+01   -0.59117E+01 24064   0.194E+01    0.166E+01
DAV:   9    -0.328243876330E+03    0.11339E+01   -0.24927E+01 21760   0.171E+01    0.129E+01
DAV:  10    -0.327834380846E+03    0.40950E+00   -0.11562E+01 22528   0.802E+00    0.601E+00
DAV:  11    -0.327880380933E+03   -0.46000E-01   -0.11875E+00 20992   0.266E+00    0.221E+00
DAV:  12    -0.327955396781E+03   -0.75016E-01   -0.31456E-01 25600   0.918E-01    0.127E+00
DAV:  13    -0.327977333194E+03   -0.21936E-01   -0.90200E-02 19968   0.598E-01    0.520E-01
DAV:  14    -0.327985557094E+03   -0.82239E-02   -0.19119E-02 20992   0.184E-01    0.330E-01
DAV:  15    -0.327989629735E+03   -0.40726E-02   -0.10776E-02 19456   0.137E-01    0.169E-01
DAV:  16    -0.327991501535E+03   -0.18718E-02   -0.70356E-03 23552   0.834E-02    0.106E-01
DAV:  17    -0.327992098658E+03   -0.59712E-03   -0.30158E-03 18432   0.560E-02    0.598E-02
DAV:  18    -0.327992215512E+03   -0.11685E-03   -0.73513E-04 21248   0.309E-02    0.286E-02
DAV:  19    -0.327992226363E+03   -0.10850E-04   -0.42066E-05 19200   0.994E-03    0.191E-02
DAV:  20    -0.327992231941E+03   -0.55782E-05   -0.26149E-05 23296   0.615E-03    0.888E-03
DAV:  21    -0.327992233934E+03   -0.19933E-05   -0.74183E-06 19456   0.349E-03    0.504E-03
DAV:  22    -0.327992234185E+03   -0.25089E-06   -0.86343E-07 24832   0.151E-03    0.286E-03
DAV:  23    -0.327992234315E+03   -0.12972E-06   -0.29329E-07 21760   0.608E-04    0.155E-03
DAV:  24    -0.327992234425E+03   -0.11004E-06   -0.34135E-07 20224   0.598E-04    0.730E-04
DAV:  25    -0.327992234465E+03   -0.40265E-07   -0.13906E-07 18944   0.381E-04    0.544E-04
DAV:  26    -0.327992234475E+03   -0.97207E-08   -0.10776E-08 14848   0.128E-04
   1 F= -.32799223E+03 E0= -.32799223E+03  d E =0.000000E+00  mag=     0.0000
