 vasp.5.4.4.18Apr17-6-g9f103f2a35 (build Oct 30 2023 17:30:16) complex          
  
 executed on             LinuxIFC date 2024.06.30  05:26:17
 running on  256 total cores
 distrk:  each k-point on  256 cores,    1 groups
 distr:  one band on NCORES_PER_BAND=   1 cores,  256 groups


--------------------------------------------------------------------------------------------------------


 INCAR:
 POTCAR:    PAW_PBE S 06Sep2000                   
 POTCAR:     PAW_PBE Cu_pv 06Sep2000              
 POTCAR:     PAW_PBE Fe_pv 02Aug2007              

 ----------------------------------------------------------------------------- 
|                                                                             |
|           W    W    AA    RRRRR   N    N  II  N    N   GGGG   !!!           |
|           W    W   A  A   R    R  NN   N  II  NN   N  G    G  !!!           |
|           W    W  A    A  R    R  N N  N  II  N N  N  G       !!!           |
|           W WW W  AAAAAA  RRRRR   N  N N  II  N  N N  G  GGG   !            |
|           WW  WW  A    A  R   R   N   NN  II  N   NN  G    G                |
|           W    W  A    A  R    R  N    N  II  N    N   GGGG   !!!           |
|                                                                             |
|      For optimal performance we recommend to set                            |
|        NCORE= 4 - approx SQRT( number of cores)                             |
|      NCORE specifies how many cores store one orbital (NPAR=cpu/NCORE).     |
|      This setting can  greatly improve the performance of VASP for DFT.     |
|      The default,   NCORE=1            might be grossly inefficient         |
|      on modern multi-core architectures or massively parallel machines.     |
|      Do your own testing !!!!                                               |
|      Unfortunately you need to use the default for GW and RPA calculations. |
|      (for HF NCORE is supported but not extensively tested yet)             |
|                                                                             |
 ----------------------------------------------------------------------------- 

 POTCAR:    PAW_PBE S 06Sep2000                   
   SHA256 =  0fc7481fb0695f01bdc6462160264c5c84044ae9ec85a907d398b887a2bc3132 S/
   COPYR  = (c) Copyright 06Sep2000 Georg Kresse                                
   COPYR  = This file is part of the software VASP. Any use, copying, and all ot
   COPYR  = If you do not have a valid VASP license, you may not use, copy or di
   VRHFIN =S : s2p4                                                             
   LEXCH  = PE                                                                  
   EATOM  =   276.8230 eV,   20.3459 Ry                                         
                                                                                
   TITEL  = PAW_PBE S 06Sep2000                                                 
   LULTRA =        F    use ultrasoft PP ?                                      
   IUNSCR =        1    unscreen: 0-lin 1-nonlin 2-no                           
   RPACOR =    1.500    partial core radius                                     
   POMASS =   32.066; ZVAL   =    6.000    mass and valenz                      
   RCORE  =    1.900    outmost cutoff radius                                   
   RWIGS  =    2.200; RWIGS  =    1.164    wigner-seitz radius (au A)           
   ENMAX  =  258.689; ENMIN  =  194.016 eV                                      
   ICORE  =        2    local potential                                         
   LCOR   =        T    correct aug charges                                     
   LPAW   =        T    paw PP                                                  
   EAUG   =  335.092                                                            
   DEXC   =    0.000                                                            
   RMAX   =    1.942    core radius for proj-oper                               
   RAUG   =    1.300    factor for augmentation sphere                          
   RDEP   =    1.954    radius for radial grids                                 
   RDEPT  =    1.744    core radius for aug-charge                              
                                                                                
   Atomic configuration                                                         
    6 entries                                                                   
     n  l   j            E        occ.                                          
     1  0  0.50     -2405.8406   2.0000                                         
     2  0  0.50      -211.7007   2.0000                                         
     2  1  1.50      -156.4958   6.0000                                         
     3  0  0.50       -17.2562   2.0000                                         
     3  1  0.50        -7.0085   4.0000                                         
     3  2  1.50        -6.8029   0.0000                                         
   Description                                                                  
     l       E           TYP  RCUT    TYP  RCUT                                 
     0    -17.2561641     23  1.900                                             
     0    -15.8743224     23  1.900                                             
     1     -7.0085400     23  1.900                                             
     1     -2.7779785     23  1.900                                             
     2     -6.8029130     23  1.900                                             
  local pseudopotential read in
  partial core-charges read in
  partial kinetic energy density read in
  atomic valenz-charges read in
  non local Contribution for L=           0  read in
    real space projection operators read in
  non local Contribution for L=           0  read in
    real space projection operators read in
  non local Contribution for L=           1  read in
    real space projection operators read in
  non local Contribution for L=           1  read in
    real space projection operators read in
    PAW grid and wavefunctions read in
 
   number of l-projection  operators is LMAX  =           4
   number of lm-projection operators is LMMAX =           8
 
 POTCAR:     PAW_PBE Cu_pv 06Sep2000              
   SHA256 =  cb7b504e2ea725fe1f25c85a9ac77d4012ce94cd394135b722c4e25ec297f1cb Cu
   COPYR  = (c) Copyright 06Sep2000 Georg Kresse                                
   COPYR  = This file is part of the software VASP. Any use, copying, and all ot
   COPYR  = If you do not have a valid VASP license, you may not use, copy or di
   VRHFIN =Cu: d10 p1                                                           
   LEXCH  = PE                                                                  
   EATOM  =  4120.1201 eV,  302.8203 Ry                                         
                                                                                
   TITEL  = PAW_PBE Cu_pv 06Sep2000                                             
   LULTRA =        F    use ultrasoft PP ?                                      
   IUNSCR =        1    unscreen: 0-lin 1-nonlin 2-no                           
   RPACOR =    1.500    partial core radius                                     
   POMASS =   63.546; ZVAL   =   17.000    mass and valenz                      
   RCORE  =    2.000    outmost cutoff radius                                   
   RWIGS  =    2.000; RWIGS  =    1.058    wigner-seitz radius (au A)           
   ENMAX  =  368.648; ENMIN  =  276.486 eV                                      
   RCLOC  =    1.304    cutoff for local pot                                    
   LCOR   =        T    correct aug charges                                     
   LPAW   =        T    paw PP                                                  
   EAUG   =  758.233                                                            
   DEXC   =    0.000                                                            
   RMAX   =    2.046    core radius for proj-oper                               
   RAUG   =    1.300    factor for augmentation sphere                          
   RDEP   =    2.025    radius for radial grids                                 
   RDEPT  =    1.558    core radius for aug-charge                              
                                                                                
   Atomic configuration                                                         
    8 entries                                                                   
     n  l   j            E        occ.                                          
     1  0  0.50     -8850.2467   2.0000                                         
     2  0  0.50     -1062.3498   2.0000                                         
     2  1  1.50      -916.8226   6.0000                                         
     3  0  0.50      -114.6929   2.0000                                         
     3  1  1.50       -72.1325   6.0000                                         
     3  2  2.50        -5.0394  10.0000                                         
     4  0  0.50        -4.6097   1.0000                                         
     4  3  2.50        -1.3606   0.0000                                         
   Description                                                                  
     l       E           TYP  RCUT    TYP  RCUT                                 
     1    -72.1324777     23  1.700                                             
     1     -1.3605826     23  1.700                                             
     2     -5.0393776     23  2.000                                             
     2     -6.3999602     23  2.000                                             
     0     -4.6097062     23  1.800                                             
     0     14.1620818     23  1.800                                             
  local pseudopotential read in
  partial core-charges read in
  partial kinetic energy density read in
  atomic valenz-charges read in
  non local Contribution for L=           1  read in
    real space projection operators read in
  non local Contribution for L=           1  read in
    real space projection operators read in
  non local Contribution for L=           2  read in
    real space projection operators read in
  non local Contribution for L=           2  read in
    real space projection operators read in
  non local Contribution for L=           0  read in
    real space projection operators read in
  non local Contribution for L=           0  read in
    real space projection operators read in
    PAW grid and wavefunctions read in
 
   number of l-projection  operators is LMAX  =           6
   number of lm-projection operators is LMMAX =          18
 
 POTCAR:     PAW_PBE Fe_pv 02Aug2007              
   SHA256 =  5d22e414b1f82158bf2c7ecb8b97b28fd0923e48cadc1c3bf74d524558f5dd32 Fe
   COPYR  = (c) Copyright 02Aug2007 Georg Kresse                                
   COPYR  = This file is part of the software VASP. Any use, copying, and all ot
   COPYR  = If you do not have a valid VASP license, you may not use, copy or di
   VRHFIN =Fe:  3pd7s1                                                          
   LEXCH  = PE                                                                  
   EATOM  =  2457.4239 eV,  180.6156 Ry                                         
                                                                                
   TITEL  = PAW_PBE Fe_pv 02Aug2007                                             
   LULTRA =        F    use ultrasoft PP ?                                      
   IUNSCR =        1    unscreen: 0-lin 1-nonlin 2-no                           
   RPACOR =    1.750    partial core radius                                     
   POMASS =   55.847; ZVAL   =   14.000    mass and valenz                      
   RCORE  =    2.200    outmost cutoff radius                                   
   RWIGS  =    2.200; RWIGS  =    1.164    wigner-seitz radius (au A)           
   ENMAX  =  293.238; ENMIN  =  219.928 eV                                      
   ICORE  =        3    local potential                                         
   LCOR   =        T    correct aug charges                                     
   LPAW   =        T    paw PP                                                  
   EAUG   =  578.342                                                            
   DEXC   =    0.000                                                            
   RMAX   =    2.249    core radius for proj-oper                               
   RAUG   =    1.300    factor for augmentation sphere                          
   RDEP   =    2.296    radius for radial grids                                 
   RDEPT  =    1.766    core radius for aug-charge                              
                                                                                
   Atomic configuration                                                         
    8 entries                                                                   
     n  l   j            E        occ.                                          
     1  0  0.50     -6993.8440   2.0000                                         
     2  0  0.50      -814.6047   2.0000                                         
     2  1  1.50      -693.3689   6.0000                                         
     3  0  0.50       -89.4732   2.0000                                         
     3  1  1.50       -55.6373   6.0000                                         
     3  2  2.50        -3.8151   7.0000                                         
     4  0  0.50        -4.2551   1.0000                                         
     4  3  2.50        -1.3606   0.0000                                         
   Description                                                                  
     l       E           TYP  RCUT    TYP  RCUT                                 
     1    -55.6372668     23  2.000                                             
     1     -5.4423304     23  2.000                                             
     2     -3.8151096     23  2.200                                             
     2     -5.1756922     23  2.200                                             
     0     -4.2550951     23  2.200                                             
     0     27.2116520     23  2.200                                             
     3     -1.3605826     23  2.200                                             
  local pseudopotential read in
  partial core-charges read in
  partial kinetic energy density read in
  atomic valenz-charges read in
  non local Contribution for L=           1  read in
    real space projection operators read in
  non local Contribution for L=           1  read in
    real space projection operators read in
  non local Contribution for L=           2  read in
    real space projection operators read in
  non local Contribution for L=           2  read in
    real space projection operators read in
  non local Contribution for L=           0  read in
    real space projection operators read in
  non local Contribution for L=           0  read in
    real space projection operators read in
    PAW grid and wavefunctions read in
 
   number of l-projection  operators is LMAX  =           6
   number of lm-projection operators is LMMAX =          18
 

 ----------------------------------------------------------------------------- 
|                                                                             |
|  ADVICE TO THIS USER RUNNING 'VASP/VAMP'   (HEAR YOUR MASTER'S VOICE ...):  |
|                                                                             |
|      You have a (more or less) 'large supercell' and for larger cells       |
|      it might be more efficient to use real space projection opertators     |
|      So try LREAL= Auto  in the INCAR   file.                               |
|      Mind:          For very  accurate calculation you might also keep the  |
|      reciprocal projection scheme          (i.e. LREAL=.FALSE.)             |
|                                                                             |
 ----------------------------------------------------------------------------- 


 ----------------------------------------------------------------------------- 
|                                                                             |
|  ADVICE TO THIS USER RUNNING 'VASP/VAMP'   (HEAR YOUR MASTER'S VOICE ...):  |
|                                                                             |
|      You enforced a specific xc-type in the INCAR file,                     |
|      a different type was found on the POTCAR file                          |
|          I HOPE YOU KNOW, WHAT YOU ARE  DOING                               |
|                                                                             |
 ----------------------------------------------------------------------------- 

  PAW_PBE S 06Sep2000                   :
 energy of atom  1       EATOM= -276.8230
 kinetic energy error for atom=    0.0007 (will be added to EATOM!!)
   PAW_PBE Cu_pv 06Sep2000              :
 energy of atom  2       EATOM=-4120.1201
 kinetic energy error for atom=    0.0094 (will be added to EATOM!!)
   PAW_PBE Fe_pv 02Aug2007              :
 energy of atom  3       EATOM=-2457.4239
 kinetic energy error for atom=    0.0025 (will be added to EATOM!!)
 
 
 POSCAR: Fe16 Cu16 S32                           
  positions in direct lattice
  No initial velocities read in
 exchange correlation table for  LEXCH =       14
   RHO(1)=    0.500       N(1)  =     2000
   RHO(2)=  100.500       N(2)  =     4000
 


--------------------------------------------------------------------------------------------------------


 ion  position               nearest neighbor table
   1  0.126  0.123  0.125-  41 2.26  37 2.27  61 2.27  49 2.28
   2  0.626  0.123  0.125-  42 2.26  38 2.27  62 2.27  50 2.28
   3  0.126  0.623  0.125-  43 2.26  39 2.27  63 2.27  51 2.28
   4  0.626  0.623  0.125-  44 2.26  40 2.27  64 2.27  52 2.28
   5  0.374  0.373  0.125-  39 2.26  41 2.27  52 2.27  62 2.28
   6  0.874  0.373  0.125-  40 2.26  42 2.27  51 2.27  61 2.28
   7  0.374  0.873  0.125-  37 2.26  43 2.27  50 2.27  64 2.28
   8  0.874  0.873  0.125-  38 2.26  44 2.27  49 2.27  63 2.28
   9  0.125  0.373  0.875-  41 2.26  45 2.26  51 2.27  55 2.27
  10  0.625  0.373  0.875-  42 2.26  46 2.26  52 2.27  56 2.27
  11  0.125  0.873  0.875-  43 2.26  47 2.26  49 2.27  53 2.27
  12  0.625  0.873  0.875-  44 2.26  48 2.26  50 2.27  54 2.27
  13  0.375  0.125  0.875-  41 2.26  46 2.26  50 2.28  53 2.28
  14  0.875  0.125  0.875-  42 2.26  45 2.26  49 2.28  54 2.28
  15  0.375  0.625  0.875-  43 2.26  48 2.26  52 2.28  55 2.28
  16  0.875  0.625  0.875-  44 2.26  47 2.26  51 2.28  56 2.28
  17  0.124  0.123  0.625-  45 2.26  33 2.27  57 2.27  53 2.28
  18  0.624  0.123  0.625-  46 2.26  34 2.27  58 2.27  54 2.28
  19  0.124  0.623  0.625-  47 2.26  35 2.27  59 2.27  55 2.28
  20  0.624  0.623  0.625-  48 2.26  36 2.27  60 2.27  56 2.28
  21  0.376  0.373  0.625-  36 2.26  46 2.27  55 2.27  57 2.28
  22  0.876  0.373  0.625-  35 2.26  45 2.27  56 2.27  58 2.28
  23  0.376  0.873  0.625-  34 2.26  48 2.27  53 2.27  59 2.28
  24  0.876  0.873  0.625-  33 2.26  47 2.27  54 2.27  60 2.28
  25  0.375  0.123  0.375-  34 2.26  37 2.26  57 2.27  62 2.27
  26  0.875  0.123  0.375-  33 2.26  38 2.26  58 2.27  61 2.27
  27  0.375  0.623  0.375-  36 2.26  39 2.26  59 2.27  64 2.27
  28  0.875  0.623  0.375-  35 2.26  40 2.26  60 2.27  63 2.27
  29  0.125  0.375  0.375-  35 2.26  39 2.26  57 2.28  61 2.28
  30  0.625  0.375  0.375-  36 2.26  40 2.26  58 2.28  62 2.28
  31  0.125  0.875  0.375-  33 2.26  37 2.26  59 2.28  63 2.28
  32  0.625  0.875  0.375-  34 2.26  38 2.26  60 2.28  64 2.28
  33  0.999  0.002  0.500-  24 2.26  31 2.26  26 2.26  17 2.27
  34  0.499  0.002  0.500-  23 2.26  32 2.26  25 2.26  18 2.27
  35  0.999  0.502  0.500-  22 2.26  29 2.26  28 2.26  19 2.27
  36  0.499  0.502  0.500-  21 2.26  30 2.26  27 2.26  20 2.27
  37  0.251  0.002  0.250-   7 2.26  31 2.26  25 2.26   1 2.27
  38  0.751  0.002  0.250-   8 2.26  32 2.26  26 2.26   2 2.27
  39  0.251  0.502  0.250-   5 2.26  29 2.26  27 2.26   3 2.27
  40  0.751  0.502  0.250-   6 2.26  30 2.26  28 2.26   4 2.27
  41  0.249  0.252  0.000-   1 2.26  13 2.26   9 2.26   5 2.27
  42  0.749  0.252  0.000-   2 2.26  14 2.26  10 2.26   6 2.27
  43  0.249  0.752  0.000-   3 2.26  15 2.26  11 2.26   7 2.27
  44  0.749  0.752  0.000-   4 2.26  16 2.26  12 2.26   8 2.27
  45  0.001  0.252  0.750-  17 2.26  14 2.26   9 2.26  22 2.27
  46  0.501  0.252  0.750-  18 2.26  13 2.26  10 2.26  21 2.27
  47  0.001  0.752  0.750-  19 2.26  16 2.26  11 2.26  24 2.27
  48  0.501  0.752  0.750-  20 2.26  15 2.26  12 2.26  23 2.27
  49  0.999  0.002  0.000-   8 2.27  11 2.27  14 2.28   1 2.28
  50  0.499  0.002  0.000-   7 2.27  12 2.27  13 2.28   2 2.28
  51  0.999  0.502  0.000-   6 2.27   9 2.27  16 2.28   3 2.28
  52  0.499  0.502  0.000-   5 2.27  10 2.27  15 2.28   4 2.28
  53  0.251  0.002  0.750-  23 2.27  11 2.27  13 2.28  17 2.28
  54  0.751  0.002  0.750-  24 2.27  12 2.27  14 2.28  18 2.28
  55  0.251  0.502  0.750-  21 2.27   9 2.27  15 2.28  19 2.28
  56  0.751  0.502  0.750-  22 2.27  10 2.27  16 2.28  20 2.28
  57  0.249  0.252  0.500-  17 2.27  25 2.27  29 2.28  21 2.28
  58  0.749  0.252  0.500-  18 2.27  26 2.27  30 2.28  22 2.28
  59  0.249  0.752  0.500-  19 2.27  27 2.27  31 2.28  23 2.28
  60  0.749  0.752  0.500-  20 2.27  28 2.27  32 2.28  24 2.28
  61  0.001  0.252  0.250-   1 2.27  26 2.27  29 2.28   6 2.28
  62  0.501  0.252  0.250-   2 2.27  25 2.27  30 2.28   5 2.28
  63  0.001  0.752  0.250-   3 2.27  28 2.27  31 2.28   8 2.28
  64  0.501  0.752  0.250-   4 2.27  27 2.27  32 2.28   7 2.28
 
  LATTYP: Found a simple monoclinic cell.
 ALAT       =    15.0443269009
 B/A-ratio  =     0.6994335519
 C/A-ratio  =     1.5711758039
 COS(beta)  =    -0.9516108779
  
  Lattice vectors:
  
 A1 = ( -10.6894050000,   0.0000000000, -10.5862360000)
 A2 = (   0.0000000000, -10.5225070000,   0.0000000000)
 A3 = (  10.8708780000,   0.0000000000,  20.9891670000)


Analysis of symmetry for initial positions (statically):
=====================================================================
 Subroutine PRICEL returns following result:
 
  LATTYP: Found a base centered monoclinic cell.
 ALAT       =    11.4914163418
 B/A-ratio  =     0.4578420400
 C/A-ratio  =     0.9054161310
 COS(beta)  =    -0.8087336785
  
  Lattice vectors:
  
 A1 = (  -2.5362465000,  -2.6306267500,   5.1556392500)
 A2 = (  -2.5362465000,   2.6306267500,   5.1556392500)
 A3 = (  -0.1814730000,   0.0000000000, -10.4029310000)
 
   8 primitive cells build up your supercell.
 

 Routine SETGRP: Setting up the symmetry group for a 
 simple monoclinic supercell.


 Subroutine GETGRP returns: Found  2 space group operations
 (whereof  1 operations were pure point group operations)
 out of a pool of  4 trial point group operations.


The static configuration has the point symmetry C_1 .
 The point group associated with its full space group is C_2 .


Analysis of symmetry for dynamics (positions and initial velocities):
=====================================================================
 Subroutine PRICEL returns following result:
 
  LATTYP: Found a base centered monoclinic cell.
 ALAT       =    11.4914163418
 B/A-ratio  =     0.4578420400
 C/A-ratio  =     0.9054161310
 COS(beta)  =    -0.8087336785
  
  Lattice vectors:
  
 A1 = (  -2.5362465000,  -2.6306267500,   5.1556392500)
 A2 = (  -2.5362465000,   2.6306267500,   5.1556392500)
 A3 = (  -0.1814730000,   0.0000000000, -10.4029310000)
 
   8 primitive cells build up your supercell.
 

 Routine SETGRP: Setting up the symmetry group for a 
 simple monoclinic supercell.


 Subroutine GETGRP returns: Found  2 space group operations
 (whereof  1 operations were pure point group operations)
 out of a pool of  4 trial point group operations.


The dynamic configuration has the point symmetry C_1 .
 The point group associated with its full space group is C_2 .


Analysis of structural, dynamic, and magnetic symmetry:
=====================================================================
 Subroutine PRICEL returns following result:
 
  LATTYP: Found a base centered monoclinic cell.
 ALAT       =    11.4914163418
 B/A-ratio  =     0.4578420400
 C/A-ratio  =     0.9054161310
 COS(beta)  =    -0.8087336785
  
  Lattice vectors:
  
 A1 = (  -2.5362465000,  -2.6306267500,   5.1556392500)
 A2 = (  -2.5362465000,   2.6306267500,   5.1556392500)
 A3 = (  -0.1814730000,   0.0000000000, -10.4029310000)
 
   8 primitive cells build up your supercell.
 

 Routine SETGRP: Setting up the symmetry group for a 
 simple monoclinic supercell.


 Subroutine GETGRP returns: Found  2 space group operations
 (whereof  1 operations were pure point group operations)
 out of a pool of  4 trial point group operations.


The magnetic configuration has the point symmetry C_1 .
 The point group associated with its full space group is C_2 .


 Subroutine INISYM returns: Found  2 space group operations
 (whereof  1 operations are pure point group operations),
 and found     8 'primitive' translations

 
 
 KPOINTS: Automatic mesh                          

Automatic generation of k-mesh.
Space group operators:
 irot       det(A)        alpha          n_x          n_y          n_z        tau_x        tau_y        tau_z
    1     1.000000     0.000000     1.000000     0.000000     0.000000     0.000000     0.000000     0.000000
    2     1.000000   180.000000     0.000000     1.000000     0.000000    -0.250000     0.000000    -0.250000
 
 Subroutine IBZKPT returns following result:
 ===========================================
 
 Found      8 irreducible k-points:
 
 Following reciprocal coordinates:
            Coordinates               Weight
  0.000000  0.000000  0.000000      1.000000
  0.500000  0.000000  0.000000      1.000000
  0.000000  0.500000  0.000000      1.000000
  0.500000  0.500000  0.000000      1.000000
  0.000000  0.000000  0.500000      1.000000
  0.500000  0.000000  0.500000      1.000000
  0.000000  0.500000  0.500000      1.000000
  0.500000  0.500000  0.500000      1.000000
 
 Following cartesian coordinates:
            Coordinates               Weight
  0.000000  0.000000  0.000000      1.000000
  0.047598  0.000000 -0.000830      1.000000
  0.000000  0.047517  0.000000      1.000000
  0.047598  0.047517 -0.000830      1.000000
 -0.000839  0.000000  0.048078      1.000000
  0.046759  0.000000  0.047248      1.000000
 -0.000839  0.047517  0.048078      1.000000
  0.046759  0.047517  0.047248      1.000000
 
 TETIRR: Found     24 inequivalent tetrahedra from       48
 
 Subroutine IBZKPT_HF returns following result:
 ==============================================
 
 Found      8 k-points in 1st BZ
 the following      8 k-points will be used (e.g. in the exchange kernel)
 Following reciprocal coordinates:   # in IRBZ
  0.000000  0.000000  0.000000    0.12500000   1 t-inv F
  0.500000  0.000000  0.000000    0.12500000   2 t-inv F
  0.000000  0.500000  0.000000    0.12500000   3 t-inv F
  0.500000  0.500000  0.000000    0.12500000   4 t-inv F
  0.000000  0.000000  0.500000    0.12500000   5 t-inv F
  0.500000  0.000000  0.500000    0.12500000   6 t-inv F
  0.000000  0.500000  0.500000    0.12500000   7 t-inv F
  0.500000  0.500000  0.500000    0.12500000   8 t-inv F


--------------------------------------------------------------------------------------------------------




 Dimension of arrays:
   k-points           NKPTS =      8   k-points in BZ     NKDIM =      8   number of bands    NBANDS=    512
   number of dos      NEDOS =    301   number of ions     NIONS =     64
   non local maximal  LDIM  =      6   non local SUM 2l+1 LMDIM =     18
   total plane-waves  NPLWV = 829440
   max r-space proj   IRMAX =      1   max aug-charges    IRDMAX=  22922
   dimension x,y,z NGX =    96 NGY =   96 NGZ =   90
   dimension x,y,z NGXF=   192 NGYF=  192 NGZF=  180
   support grid    NGXF=   192 NGYF=  192 NGZF=  180
   ions per type =              32  16  16
   NGX,Y,Z   is equivalent  to a cutoff of  15.19, 15.17, 14.38 a.u.
   NGXF,Y,Z  is equivalent  to a cutoff of  30.37, 30.33, 28.76 a.u.

 SYSTEM =  CuFeS2                                  
 POSCAR =  Fe16 Cu16 S32                           

 Startparameter for this run:
   NWRITE =      2    write-flag & timer
   PREC   = accura    normal or accurate (medium, high low for compatibility)
   ISTART =      0    job   : 0-new  1-cont  2-samecut
   ICHARG =      1    charge: 1-file 2-atom 10-const
   ISPIN  =      2    spin polarized calculation?
   LNONCOLLINEAR =      F non collinear calculations
   LSORBIT =      F    spin-orbit coupling
   INIWAV =      1    electr: 0-lowe 1-rand  2-diag
   LASPH  =      F    aspherical Exc in radial PAW
   METAGGA=      F    non-selfconsistent MetaGGA calc.

 Electronic Relaxation 1
   ENCUT  =  700.0 eV  51.45 Ry    7.17 a.u.  22.67 22.70 22.45*2*pi/ulx,y,z
   ENINI  =  700.0     initial cutoff
   ENAUG  =  758.2 eV  augmentation charge cutoff
   NELM   =    500;   NELMIN=  2; NELMDL=  0     # of ELM steps 
   EDIFF  = 0.1E-07   stopping-criterion for ELM
   LREAL  =      F    real-space projection
   NLSPLINE    = F    spline interpolate recip. space projectors
   LCOMPAT=      F    compatible to vasp.4.4
   GGA_COMPAT  = T    GGA compatible to vasp.4.4-vasp.4.6
   LMAXPAW     = -100 max onsite density
   LMAXMIX     =    4 max onsite mixed and CHGCAR
   VOSKOWN=      0    Vosko Wilk Nusair interpolation
   ROPT   =    0.00000   0.00000   0.00000
 Ionic relaxation
   EDIFFG = -.1E-04   stopping-criterion for IOM
   NSW    =      0    number of steps for IOM
   NBLOCK =      1;   KBLOCK =      1    inner block; outer block 
   IBRION =     -1    ionic relax: 0-MD 1-quasi-New 2-CG
   NFREE  =      0    steps in history (QN), initial steepest desc. (CG)
   ISIF   =      2    stress and relaxation
   IWAVPR =     10    prediction:  0-non 1-charg 2-wave 3-comb
   ISYM   =      2    0-nonsym 1-usesym 2-fastsym
   LCORR  =      T    Harris-Foulkes like correction to forces

   POTIM  = 0.5000    time-step for ionic-motion
   TEIN   =    0.0    initial temperature
   TEBEG  =    0.0;   TEEND  =   0.0 temperature during run
   SMASS  =  -3.00    Nose mass-parameter (am)
   estimated Nose-frequenzy (Omega)   =  0.10E-29 period in steps =****** mass=  -0.252E-26a.u.
   SCALEE = 1.0000    scale energy and forces
   NPACO  =    256;   APACO  = 16.0  distance and # of slots for P.C.
   PSTRESS=    0.0 pullay stress

  Mass of Ions in am
   POMASS =  32.07 63.55 55.85
  Ionic Valenz
   ZVAL   =   6.00 17.00 14.00
  Atomic Wigner-Seitz radii
   RWIGS  =  -1.00 -1.00 -1.00
  virtual crystal weights 
   VCA    =   1.00  1.00  1.00
   NELECT =     688.0000    total number of electrons
   NUPDOWN=      -1.0000    fix difference up-down

 DOS related values:
   EMIN   =  10.00;   EMAX   =-10.00  energy-range for DOS
   EFERMI =   0.00
   ISMEAR =    -5;   SIGMA  =   0.03  broadening in eV -4-tet -1-fermi 0-gaus

 Electronic relaxation 2 (details)
   IALGO  =     38    algorithm
   LDIAG  =      T    sub-space diagonalisation (order eigenvalues)
   LSUBROT=      F    optimize rotation matrix (better conditioning)
   TURBO    =      0    0=normal 1=particle mesh
   IRESTART =      0    0=no restart 2=restart with 2 vectors
   NREBOOT  =      0    no. of reboots
   NMIN     =      0    reboot dimension
   EREF     =   0.00    reference energy to select bands
   IMIX   =      4    mixing-type and parameters
     AMIX     =   0.40;   BMIX     =  1.00
     AMIX_MAG =   1.60;   BMIX_MAG =  1.00
     AMIN     =   0.10
     WC   =   100.;   INIMIX=   1;  MIXPRE=   1;  MAXMIX= -45

 Intra band minimization:
   WEIMIN = 0.0000     energy-eigenvalue tresh-hold
   EBREAK =  0.49E-11  absolut break condition
   DEPER  =   0.30     relativ break condition  

   TIME   =   0.40     timestep for ELM

  volume/ion in A,a.u.               =      17.97       121.25
  Fermi-wavevector in a.u.,A,eV,Ry     =   1.379487  2.606853 25.891678  1.902985
  Thomas-Fermi vector in A             =   2.504452
 
 Write flags
   LWAVE        =      T    write WAVECAR
   LDOWNSAMPLE  =      F    k-point downsampling of WAVECAR
   LCHARG       =      T    write CHGCAR
   LVTOT        =      F    write LOCPOT, total local potential
   LVHAR        =      F    write LOCPOT, Hartree potential only
   LELF         =      F    write electronic localiz. function (ELF)
   LORBIT       =     11    0 simple, 1 ext, 2 COOP (PROOUT), +10 PAW based schemes


 Dipole corrections
   LMONO  =      F    monopole corrections only (constant potential shift)
   LDIPOL =      F    correct potential (dipole corrections)
   IDIPOL =      0    1-x, 2-y, 3-z, 4-all directions 
   EPSILON=  1.0000000 bulk dielectric constant

 LDA+U is selected, type is set to LDAUTYPE =  2
   angular momentum for each species LDAUL =     2    2    2
   U (eV)           for each species LDAUU =   0.0  0.1  4.7
   J (eV)           for each species LDAUJ =   0.0  0.0  0.0
 Exchange correlation treatment:
   GGA     =    PS    GGA type
   LEXCH   =    14    internal setting for exchange type
   VOSKOWN=      0    Vosko Wilk Nusair interpolation
   LHFCALC =     F    Hartree Fock is set to
   LHFONE  =     F    Hartree Fock one center treatment
   AEXX    =    0.0000 exact exchange contribution

 Linear response parameters
   LEPSILON=     F    determine dielectric tensor
   LRPA    =     F    only Hartree local field effects (RPA)
   LNABLA  =     F    use nabla operator in PAW spheres
   LVEL    =     F    velocity operator in full k-point grid
   LINTERFAST=   F  fast interpolation
   KINTER  =     0    interpolate to denser k-point grid
   CSHIFT  =0.1000    complex shift for real part using Kramers Kronig
   OMEGAMAX=  -1.0    maximum frequency
   DEG_THRESHOLD= 0.2000000E-02 threshold for treating states as degnerate
   RTIME   =   -0.100 relaxation time in fs
  (WPLASMAI=    0.000 imaginary part of plasma frequency in eV, 0.658/RTIME)
   DFIELD  = 0.0000000 0.0000000 0.0000000 field for delta impulse in time
 
 Orbital magnetization related:
   ORBITALMAG=     F  switch on orbital magnetization
   LCHIMAG   =     F  perturbation theory with respect to B field
   DQ        =  0.001000  dq finite difference perturbation B field
   LLRAUG    =     F  two centre corrections for induced B field

 PEAD related settings:
   LPEAD      =     T    switch on PEAD
   IPEAD      =     4    finite difference order for dpsi/dk
   LCALCPOL   =     T    calculate macroscopic polarization
   LCALCEPS   =     F    calculate dielectric tensor
   EFIELD_PEAD=    0.0000    0.0000    0.0000
   SKIP_EDOTP =     F
   LRPA       =     F
   SKIP_SCF   =     F


--------------------------------------------------------------------------------------------------------


 Static calculation
 charge density and potential will be updated during run
 spin polarized calculation
 Variant of blocked Davidson
 Davidson routine will perform the subspace rotation
 perform sub-space diagonalisation
    after iterative eigenvector-optimisation
 modified Broyden-mixing scheme, WC =      100.0
 initial mixing is a Kerker type mixing with AMIX =  0.4000 and BMIX =      1.0000
 Hartree-type preconditioning will be used
 using additional bands          168
 reciprocal scheme for non local part
 use partial core corrections
 calculate Harris-corrections to forces 
   (improved forces if not selfconsistent)
 use gradient corrections 
 use of overlap-Matrix (Vanderbilt PP)
 Fermi weights with tetrahedron method with Bloechl corrections


--------------------------------------------------------------------------------------------------------


  energy-cutoff  :      700.00
  volume of cell :     1149.90
      direct lattice vectors                 reciprocal lattice vectors
    10.507932000  0.000000000  0.183305000     0.095195173  0.000000000 -0.001660624
     0.000000000 10.522507000  0.000000000     0.000000000  0.095034387  0.000000000
     0.181473000  0.000000000 10.402931000    -0.001677388  0.000000000  0.096156016

  length of vectors
    10.509530705 10.522507000 10.404513724     0.095209656  0.095034387  0.096170646


 
 k-points in units of 2pi/SCALE and weight: Automatic mesh                          
   0.00000000  0.00000000  0.00000000       0.125
   0.04759759  0.00000000 -0.00083031       0.125
   0.00000000  0.04751719  0.00000000       0.125
   0.04759759  0.04751719 -0.00083031       0.125
  -0.00083869  0.00000000  0.04807801       0.125
   0.04675889  0.00000000  0.04724770       0.125
  -0.00083869  0.04751719  0.04807801       0.125
   0.04675889  0.04751719  0.04724770       0.125
 
 k-points in reciprocal lattice and weights: Automatic mesh                          
   0.00000000  0.00000000  0.00000000       0.125
   0.50000000  0.00000000  0.00000000       0.125
   0.00000000  0.50000000  0.00000000       0.125
   0.50000000  0.50000000  0.00000000       0.125
   0.00000000  0.00000000  0.50000000       0.125
   0.50000000  0.00000000  0.50000000       0.125
   0.00000000  0.50000000  0.50000000       0.125
   0.50000000  0.50000000  0.50000000       0.125
 
 position of ions in fractional coordinates (direct lattice) 
   0.12631300  0.12269500  0.12532600
   0.62631300  0.12269500  0.12532600
   0.12631300  0.62269500  0.12532600
   0.62631300  0.62269500  0.12532600
   0.37368700  0.37269500  0.12467400
   0.87368700  0.37269500  0.12467400
   0.37368700  0.87269500  0.12467400
   0.87368700  0.87269500  0.12467400
   0.12500000  0.37274400  0.87500000
   0.62500000  0.37274400  0.87500000
   0.12500000  0.87274400  0.87500000
   0.62500000  0.87274400  0.87500000
   0.37500000  0.12468600  0.87500000
   0.87500000  0.12468600  0.87500000
   0.37500000  0.62468600  0.87500000
   0.87500000  0.62468600  0.87500000
   0.12368700  0.12269500  0.62467400
   0.62368700  0.12269500  0.62467400
   0.12368700  0.62269500  0.62467400
   0.62368700  0.62269500  0.62467400
   0.37631300  0.37269500  0.62532600
   0.87631300  0.37269500  0.62532600
   0.37631300  0.87269500  0.62532600
   0.87631300  0.87269500  0.62532600
   0.37500000  0.12274400  0.37500000
   0.87500000  0.12274400  0.37500000
   0.37500000  0.62274400  0.37500000
   0.87500000  0.62274400  0.37500000
   0.12500000  0.37468600  0.37500000
   0.62500000  0.37468600  0.37500000
   0.12500000  0.87468600  0.37500000
   0.62500000  0.87468600  0.37500000
   0.99902100  0.00179200  0.50002200
   0.49902100  0.00179200  0.50002200
   0.99902100  0.50179200  0.50002200
   0.49902100  0.50179200  0.50002200
   0.25097900  0.00179200  0.24997800
   0.75097900  0.00179200  0.24997800
   0.25097900  0.50179200  0.24997800
   0.75097900  0.50179200  0.24997800
   0.24902100  0.25179200  0.00002200
   0.74902100  0.25179200  0.00002200
   0.24902100  0.75179200  0.00002200
   0.74902100  0.75179200  0.00002200
   0.00097900  0.25179200  0.74997800
   0.50097900  0.25179200  0.74997800
   0.00097900  0.75179200  0.74997800
   0.50097900  0.75179200  0.74997800
   0.99937300  0.00179700  0.00044500
   0.49937300  0.00179700  0.00044500
   0.99937300  0.50179700  0.00044500
   0.49937300  0.50179700  0.00044500
   0.25062700  0.00179700  0.74955500
   0.75062700  0.00179700  0.74955500
   0.25062700  0.50179700  0.74955500
   0.75062700  0.50179700  0.74955500
   0.24937300  0.25179700  0.50044500
   0.74937300  0.25179700  0.50044500
   0.24937300  0.75179700  0.50044500
   0.74937300  0.75179700  0.50044500
   0.00062700  0.25179700  0.24955500
   0.50062700  0.25179700  0.24955500
   0.00062700  0.75179700  0.24955500
   0.50062700  0.75179700  0.24955500
 
 position of ions in cartesian coordinates  (Angst):
   1.35003170  1.29105900  1.32691153
   6.60399770  1.29105900  1.41856403
   1.35003170  6.55231250  1.32691153
   6.60399770  6.55231250  1.41856403
   3.94930255  3.92168575  1.36547372
   9.20326855  3.92168575  1.45712622
   3.94930255  9.18293925  1.36547372
   9.20326855  9.18293925  1.45712622
   1.47228037  3.92220135  9.12547775
   6.72624637  3.92220135  9.21713025
   1.47228037  9.18345485  9.12547775
   6.72624637  9.18345485  9.21713025
   4.09926338  1.31200931  9.17130400
   9.35322938  1.31200931  9.26295650
   4.09926338  6.57326281  9.17130400
   9.35322938  6.57326281  9.26295650
   1.41305605  1.29105900  6.52111297
   6.66702205  1.29105900  6.61276547
   1.41305605  6.55231250  6.52111297
   6.66702205  6.55231250  6.61276547
   4.06775120  3.92168575  6.57420328
   9.32171720  3.92168575  6.66585578
   4.06775120  9.18293925  6.57420328
   9.32171720  9.18293925  6.66585578
   4.00852688  1.29157460  3.96983850
   9.26249288  1.29157460  4.06149100
   4.00852688  6.55282810  3.96983850
   9.26249288  6.55282810  4.06149100
   1.38154387  3.94263606  3.92401225
   6.63550987  3.94263606  4.01566475
   1.38154387  9.20388956  3.92401225
   6.63550987  9.20388956  4.01566475
  10.58838523  0.01885633  5.38481991
   5.33441923  0.01885633  5.29316741
  10.58838523  5.28010983  5.38481991
   5.33441923  5.28010983  5.29316741
   2.68263452  0.01885633  2.64650959
   7.93660052  0.01885633  2.73816209
   2.68263452  5.28010983  2.64650959
   7.93660052  5.28010983  2.73816209
   2.61669973  2.64948308  0.04587566
   7.87066573  2.64948308  0.13752816
   2.61669973  7.91073658  0.04587566
   7.87066573  7.91073658  0.13752816
   0.14638802  2.64948308  7.80214884
   5.40035402  2.64948308  7.89380134
   0.14638802  7.91073658  7.80214884
   5.40035402  7.91073658  7.89380134
  10.50142428  0.01890895  0.18781937
   5.24745828  0.01890895  0.09616687
  10.50142428  5.28016245  0.18781937
   5.24745828  5.28016245  0.09616687
   2.76959547  0.01890895  7.84351013
   8.02356147  0.01890895  7.93516263
   2.76959547  5.28016245  7.84351013
   8.02356147  5.28016245  7.93516263
   2.71121178  2.64953570  5.25180612
   7.96517778  2.64953570  5.34345862
   2.71121178  7.91078920  5.25180612
   7.96517778  7.91078920  5.34345862
   0.05187597  2.64953570  2.59621838
   5.30584197  2.64953570  2.68787088
   0.05187597  7.91078920  2.59621838
   5.30584197  7.91078920  2.68787088
 


--------------------------------------------------------------------------------------------------------


 k-point  1 :   0.0000 0.0000 0.0000  plane waves:   48417
 k-point  2 :   0.5000 0.0000 0.0000  plane waves:   48396
 k-point  3 :   0.0000 0.5000 0.0000  plane waves:   48394
 k-point  4 :   0.5000 0.5000 0.0000  plane waves:   48376
 k-point  5 :   0.0000 0.0000 0.5000  plane waves:   48332
 k-point  6 :   0.5000 0.0000 0.5000  plane waves:   48380
 k-point  7 :   0.0000 0.5000 0.5000  plane waves:   48288
 k-point  8 :   0.5000 0.5000 0.5000  plane waves:   48296

 maximum and minimum number of plane-waves per node :     48417    48288

 maximum number of plane-waves:     48417
 maximum index in each direction: 
   IXMAX=   22   IYMAX=   22   IZMAX=   22
   IXMIN=  -23   IYMIN=  -23   IZMIN=  -22


 serial   3D FFT for wavefunctions
 parallel 3D FFT for charge:
    minimum data exchange during FFTs selected (reduces bandwidth)


 total amount of memory used by VASP MPI-rank0   349631. kBytes
=======================================================================

   base      :      30000. kBytes
   nonl-proj :     217907. kBytes
   fftplans  :       4588. kBytes
   grid      :      69719. kBytes
   one-center:       1990. kBytes
   wavefun   :      25427. kBytes
 
     INWAV:  cpu time    0.0001: real time    0.0003
 Broyden mixing: mesh for mixing (old mesh)
   NGX = 45   NGY = 45   NGZ = 45
  (NGX  =192   NGY  =192   NGZ  =180)
  gives a total of  91125 points

 initial charge density was supplied:
 number of electron     688.0000140 magnetization      -0.0000000
 keeping initial charge density in first step


--------------------------------------------------------------------------------------------------------


 Maximum index for augmentation-charges          895 (set IRDMAX)


--------------------------------------------------------------------------------------------------------


 First call to EWALD:  gamma=   0.169
 Maximum number of real-space cells 3x 3x 3
 Maximum number of reciprocal cells 3x 3x 3

    FEWALD:  cpu time    0.0026: real time    0.0030


--------------------------------------- Iteration      1(   1)  ---------------------------------------


    POTLOK:  cpu time    0.3348: real time    0.3618
    SETDIJ:  cpu time    0.0142: real time    0.0144
     EDDAV:  cpu time   83.8980: real time   84.6505
 BZINTS: Fermi energy: 14.471381;688.000000 electrons
         Band energy:***********;  BLOECHL correction: -0.009295
       DOS:  cpu time    0.0413: real time    0.0415
    --------------------------------------------
      LOOP:  cpu time   84.2883: real time   85.0683

 eigenvalue-minimisations  : 16384
 total energy-change (2. order) : 0.5962020E+04  (-0.5201119E+05)
 number of electron     688.0000140 magnetization      -0.0000000
 augmentation part      688.0000140 magnetization      -0.0000000

 Free energy of the ion-electron system (eV)
  ---------------------------------------------------
  alpha Z        PSCENC =      2357.72754994
  Ewald energy   TEWEN  =    -62486.11855125
  -Hartree energ DENC   =    -42559.13760151
  -exchange      EXHF   =         0.00000000
  -V(xc)+E(xc)   XCENC  =      3277.30854866
  PAW double counting   =    112006.03736751  -115694.97744343
  entropy T*S    EENTRO =         0.00000000
  eigenvalues    EBANDS =     -4958.88475248
  atomic energy  EATOM  =    114020.06510763
  Solvation  Ediel_sol  =         0.00000000
  ---------------------------------------------------
  free energy    TOTEN  =      5962.02022507 eV

  energy without entropy =     5962.02022507  energy(sigma->0) =     5962.02022507


--------------------------------------------------------------------------------------------------------




--------------------------------------- Iteration      1(   2)  ---------------------------------------


     EDDAV:  cpu time  104.4225: real time  105.2368
 BZINTS: Fermi energy:  4.897132;688.000000 electrons
         Band energy:***********;  BLOECHL correction: -0.122420
       DOS:  cpu time    0.0370: real time    0.0371
    --------------------------------------------
      LOOP:  cpu time  104.4594: real time  105.2738

 eigenvalue-minimisations  : 18688
 total energy-change (2. order) :-0.6136645E+04  (-0.6033304E+04)
 number of electron     688.0000140 magnetization      -0.0000000
 augmentation part      688.0000140 magnetization      -0.0000000

 Free energy of the ion-electron system (eV)
  ---------------------------------------------------
  alpha Z        PSCENC =      2357.72754994
  Ewald energy   TEWEN  =    -62486.11855125
  -Hartree energ DENC   =    -42559.13760151
  -exchange      EXHF   =         0.00000000
  -V(xc)+E(xc)   XCENC  =      3277.30854866
  PAW double counting   =    112006.03736751  -115694.97744343
  entropy T*S    EENTRO =         0.00000000
  eigenvalues    EBANDS =    -11095.53019796
  atomic energy  EATOM  =    114020.06510763
  Solvation  Ediel_sol  =         0.00000000
  ---------------------------------------------------
  free energy    TOTEN  =      -174.62522040 eV

  energy without entropy =     -174.62522040  energy(sigma->0) =     -174.62522040


--------------------------------------------------------------------------------------------------------




--------------------------------------- Iteration      1(   3)  ---------------------------------------


     EDDAV:  cpu time  148.5663: real time  149.6316
 BZINTS: Fermi energy:  4.587504;688.000000 electrons
         Band energy:***********;  BLOECHL correction: -0.010157
       DOS:  cpu time    0.0346: real time    0.0347
    --------------------------------------------
      LOOP:  cpu time  148.6009: real time  149.6664

 eigenvalue-minimisations  : 22272
 total energy-change (2. order) :-0.2417869E+03  (-0.2411250E+03)
 number of electron     688.0000140 magnetization      -0.0000000
 augmentation part      688.0000140 magnetization      -0.0000000

 Free energy of the ion-electron system (eV)
  ---------------------------------------------------
  alpha Z        PSCENC =      2357.72754994
  Ewald energy   TEWEN  =    -62486.11855125
  -Hartree energ DENC   =    -42559.13760151
  -exchange      EXHF   =         0.00000000
  -V(xc)+E(xc)   XCENC  =      3277.30854866
  PAW double counting   =    112006.03736751  -115694.97744343
  entropy T*S    EENTRO =         0.00000000
  eigenvalues    EBANDS =    -11337.31714287
  atomic energy  EATOM  =    114020.06510763
  Solvation  Ediel_sol  =         0.00000000
  ---------------------------------------------------
  free energy    TOTEN  =      -416.41216532 eV

  energy without entropy =     -416.41216532  energy(sigma->0) =     -416.41216532


--------------------------------------------------------------------------------------------------------




--------------------------------------- Iteration      1(   4)  ---------------------------------------


     EDDAV:  cpu time  140.0795: real time  141.0789
 BZINTS: Fermi energy:  4.586859;688.000000 electrons
         Band energy:***********;  BLOECHL correction: -0.010168
       DOS:  cpu time    0.0323: real time    0.0325
    --------------------------------------------
      LOOP:  cpu time  140.1118: real time  141.1114

 eigenvalue-minimisations  : 20992
 total energy-change (2. order) :-0.3373285E+01  (-0.3373149E+01)
 number of electron     688.0000140 magnetization      -0.0000000
 augmentation part      688.0000140 magnetization      -0.0000000

 Free energy of the ion-electron system (eV)
  ---------------------------------------------------
  alpha Z        PSCENC =      2357.72754994
  Ewald energy   TEWEN  =    -62486.11855125
  -Hartree energ DENC   =    -42559.13760151
  -exchange      EXHF   =         0.00000000
  -V(xc)+E(xc)   XCENC  =      3277.30854866
  PAW double counting   =    112006.03736751  -115694.97744343
  entropy T*S    EENTRO =         0.00000000
  eigenvalues    EBANDS =    -11340.69042779
  atomic energy  EATOM  =    114020.06510763
  Solvation  Ediel_sol  =         0.00000000
  ---------------------------------------------------
  free energy    TOTEN  =      -419.78545023 eV

  energy without entropy =     -419.78545023  energy(sigma->0) =     -419.78545023


--------------------------------------------------------------------------------------------------------




--------------------------------------- Iteration      1(   5)  ---------------------------------------


     EDDAV:  cpu time  134.9589: real time  135.9463
 BZINTS: Fermi energy:  4.586856;688.000000 electrons
         Band energy:***********;  BLOECHL correction: -0.010168
       DOS:  cpu time    0.0331: real time    0.0332
    CHARGE:  cpu time    1.4030: real time    1.4127
    MIXING:  cpu time    0.0024: real time    0.0024
    --------------------------------------------
      LOOP:  cpu time  136.3974: real time  137.3946

 eigenvalue-minimisations  : 20736
 total energy-change (2. order) :-0.1104561E+00  (-0.1104554E+00)
 number of electron     688.0000206 magnetization      -0.0000000
 augmentation part      288.2229103 magnetization      -0.0000000

 Broyden mixing:
  rms(total) = 0.76445E+01    rms(broyden)= 0.76436E+01
  rms(prec ) = 0.85881E+01
  weight for this iteration     100.00

 Free energy of the ion-electron system (eV)
  ---------------------------------------------------
  alpha Z        PSCENC =      2357.72754994
  Ewald energy   TEWEN  =    -62486.11855125
  -Hartree energ DENC   =    -42559.13760151
  -exchange      EXHF   =         0.00000000
  -V(xc)+E(xc)   XCENC  =      3277.30854866
  PAW double counting   =    112006.03736751  -115694.97744343
  entropy T*S    EENTRO =         0.00000000
  eigenvalues    EBANDS =    -11340.80088387
  atomic energy  EATOM  =    114020.06510763
  Solvation  Ediel_sol  =         0.00000000
  ---------------------------------------------------
  free energy    TOTEN  =      -419.89590631 eV

  energy without entropy =     -419.89590631  energy(sigma->0) =     -419.89590631


--------------------------------------------------------------------------------------------------------




--------------------------------------- Iteration      1(   6)  ---------------------------------------


    POTLOK:  cpu time    0.1193: real time    0.1222
    SETDIJ:  cpu time    0.0127: real time    0.0128
     EDDAV:  cpu time  137.8614: real time  138.8635
 BZINTS: Fermi energy:  5.085957;688.000000 electrons
         Band energy:***********;  BLOECHL correction:  0.000000
       DOS:  cpu time    0.0066: real time    0.0067
    CHARGE:  cpu time    1.3995: real time    1.4093
    MIXING:  cpu time    0.0026: real time    0.0598
    --------------------------------------------
      LOOP:  cpu time  139.4022: real time  140.4743

 eigenvalue-minimisations  : 21504
 total energy-change (2. order) : 0.6839580E+02  (-0.1235051E+02)
 number of electron     688.0000201 magnetization      -0.0000000
 augmentation part      278.4583696 magnetization      -0.0000000

 Broyden mixing:
  rms(total) = 0.46379E+01    rms(broyden)= 0.46378E+01
  rms(prec ) = 0.51835E+01
  weight for this iteration     100.00

 eigenvalues of (default mixing * dielectric matrix)
  average eigenvalue GAMMA=   0.6583
  0.6583

 Free energy of the ion-electron system (eV)
  ---------------------------------------------------
  alpha Z        PSCENC =      2357.72754994
  Ewald energy   TEWEN  =    -62486.11855125
  -Hartree energ DENC   =    -43094.99565266
  -exchange      EXHF   =         0.00000000
  -V(xc)+E(xc)   XCENC  =      3288.22830222
  PAW double counting   =    119218.32648015  -122977.27683078
  entropy T*S    EENTRO =         0.00000000
  eigenvalues    EBANDS =    -10677.45651571
  atomic energy  EATOM  =    114020.06510763
  Solvation  Ediel_sol  =         0.00000000
  ---------------------------------------------------
  free energy    TOTEN  =      -351.50011046 eV

  energy without entropy =     -351.50011046  energy(sigma->0) =     -351.50011046


--------------------------------------------------------------------------------------------------------




--------------------------------------- Iteration      1(   7)  ---------------------------------------


    POTLOK:  cpu time    0.1185: real time    0.1238
    SETDIJ:  cpu time    0.0130: real time    0.0131
     EDDAV:  cpu time  126.3240: real time  127.2587
 BZINTS: Fermi energy:  4.939816;688.000000 electrons
         Band energy:***********;  BLOECHL correction: -0.000595
       DOS:  cpu time    0.0292: real time    0.0293
    CHARGE:  cpu time    1.4004: real time    1.4105
    MIXING:  cpu time    0.0016: real time    0.0027
    --------------------------------------------
      LOOP:  cpu time  127.8867: real time  128.8380

 eigenvalue-minimisations  : 20480
 total energy-change (2. order) : 0.1700831E+02  (-0.7595682E+01)
 number of electron     688.0000202 magnetization      -0.0000000
 augmentation part      283.3533473 magnetization      -0.0000000

 Broyden mixing:
  rms(total) = 0.41774E+01    rms(broyden)= 0.41774E+01
  rms(prec ) = 0.45102E+01
  weight for this iteration     100.00

 eigenvalues of (default mixing * dielectric matrix)
  average eigenvalue GAMMA=   0.7933
  1.1629  0.4237

 Free energy of the ion-electron system (eV)
  ---------------------------------------------------
  alpha Z        PSCENC =      2357.72754994
  Ewald energy   TEWEN  =    -62486.11855125
  -Hartree energ DENC   =    -42877.16740470
  -exchange      EXHF   =         0.00000000
  -V(xc)+E(xc)   XCENC  =      3286.37442310
  PAW double counting   =    118325.83874976  -122016.53045234
  entropy T*S    EENTRO =         0.00000000
  eigenvalues    EBANDS =    -10944.68122057
  atomic energy  EATOM  =    114020.06510763
  Solvation  Ediel_sol  =         0.00000000
  ---------------------------------------------------
  free energy    TOTEN  =      -334.49179844 eV

  energy without entropy =     -334.49179844  energy(sigma->0) =     -334.49179844


--------------------------------------------------------------------------------------------------------




--------------------------------------- Iteration      1(   8)  ---------------------------------------


    POTLOK:  cpu time    0.1176: real time    0.1223
    SETDIJ:  cpu time    0.0126: real time    0.0127
     EDDAV:  cpu time  170.0202: real time  171.2200
 BZINTS: Fermi energy:  4.638918;688.000000 electrons
         Band energy:***********;  BLOECHL correction:  0.000000
       DOS:  cpu time    0.0055: real time    0.0055
    CHARGE:  cpu time    1.4039: real time    1.4132
    MIXING:  cpu time    0.0013: real time    0.0013
    --------------------------------------------
      LOOP:  cpu time  171.5612: real time  172.7750

 eigenvalue-minimisations  : 24064
 total energy-change (2. order) : 0.5113980E+01  (-0.5911665E+01)
 number of electron     688.0000205 magnetization      -0.0000000
 augmentation part      283.8596455 magnetization      -0.0000000

 Broyden mixing:
  rms(total) = 0.16630E+01    rms(broyden)= 0.16629E+01
  rms(prec ) = 0.18911E+01
  weight for this iteration     100.00

 eigenvalues of (default mixing * dielectric matrix)
  average eigenvalue GAMMA=   0.9552
  1.7381  0.6968  0.4308

 Free energy of the ion-electron system (eV)
  ---------------------------------------------------
  alpha Z        PSCENC =      2357.72754994
  Ewald energy   TEWEN  =    -62486.11855125
  -Hartree energ DENC   =    -42802.59846501
  -exchange      EXHF   =         0.00000000
  -V(xc)+E(xc)   XCENC  =      3282.23273649
  PAW double counting   =    116634.55659582  -120318.60456783
  entropy T*S    EENTRO =         0.00000000
  eigenvalues    EBANDS =    -11016.63822410
  atomic energy  EATOM  =    114020.06510763
  Solvation  Ediel_sol  =         0.00000000
  ---------------------------------------------------
  free energy    TOTEN  =      -329.37781832 eV

  energy without entropy =     -329.37781832  energy(sigma->0) =     -329.37781832


--------------------------------------------------------------------------------------------------------




--------------------------------------- Iteration      1(   9)  ---------------------------------------


    POTLOK:  cpu time    0.1211: real time    0.1230
    SETDIJ:  cpu time    0.0127: real time    0.0127
     EDDAV:  cpu time  147.1431: real time  148.1939
 BZINTS: Fermi energy:  5.046322;688.000000 electrons
         Band energy:***********;  BLOECHL correction:  0.000000
       DOS:  cpu time    0.0063: real time    0.0063
    CHARGE:  cpu time    1.4026: real time    1.4123
    MIXING:  cpu time    0.0014: real time    0.0015
    --------------------------------------------
      LOOP:  cpu time  148.6873: real time  149.7498

 eigenvalue-minimisations  : 21760
 total energy-change (2. order) : 0.1133942E+01  (-0.2492726E+01)
 number of electron     688.0000203 magnetization      -0.0000000
 augmentation part      282.2667742 magnetization      -0.0000000

 Broyden mixing:
  rms(total) = 0.12934E+01    rms(broyden)= 0.12933E+01
  rms(prec ) = 0.14993E+01
  weight for this iteration     100.00

 eigenvalues of (default mixing * dielectric matrix)
  average eigenvalue GAMMA=   0.8826
  1.8229  0.8025  0.5597  0.3452

 Free energy of the ion-electron system (eV)
  ---------------------------------------------------
  alpha Z        PSCENC =      2357.72754994
  Ewald energy   TEWEN  =    -62486.11855125
  -Hartree energ DENC   =    -42977.72528978
  -exchange      EXHF   =         0.00000000
  -V(xc)+E(xc)   XCENC  =      3288.44035614
  PAW double counting   =    115339.21155617  -119040.92984832
  entropy T*S    EENTRO =         0.00000000
  eigenvalues    EBANDS =    -10828.91475685
  atomic energy  EATOM  =    114020.06510763
  Solvation  Ediel_sol  =         0.00000000
  ---------------------------------------------------
  free energy    TOTEN  =      -328.24387633 eV

  energy without entropy =     -328.24387633  energy(sigma->0) =     -328.24387633


--------------------------------------------------------------------------------------------------------




--------------------------------------- Iteration      1(  10)  ---------------------------------------


    POTLOK:  cpu time    0.1189: real time    0.1223
    SETDIJ:  cpu time    0.0128: real time    0.0129
     EDDAV:  cpu time  154.2388: real time  155.3261
 BZINTS: Fermi energy:  4.974348;688.000000 electrons
         Band energy:***********;  BLOECHL correction:  0.000000
       DOS:  cpu time    0.0063: real time    0.0063
    CHARGE:  cpu time    1.3982: real time    1.4079
    MIXING:  cpu time    0.0017: real time    0.0215
    --------------------------------------------
      LOOP:  cpu time  155.7768: real time  156.8970

 eigenvalue-minimisations  : 22528
 total energy-change (2. order) : 0.4094955E+00  (-0.1156169E+01)
 number of electron     688.0000204 magnetization      -0.0000000
 augmentation part      281.7438707 magnetization      -0.0000000

 Broyden mixing:
  rms(total) = 0.60096E+00    rms(broyden)= 0.60092E+00
  rms(prec ) = 0.67832E+00
  weight for this iteration     100.00

 eigenvalues of (default mixing * dielectric matrix)
  average eigenvalue GAMMA=   1.0104
  1.7658  1.7658  0.6002  0.6002  0.3198

 Free energy of the ion-electron system (eV)
  ---------------------------------------------------
  alpha Z        PSCENC =      2357.72754994
  Ewald energy   TEWEN  =    -62486.11855125
  -Hartree energ DENC   =    -42957.00418963
  -exchange      EXHF   =         0.00000000
  -V(xc)+E(xc)   XCENC  =      3286.62536630
  PAW double counting   =    114460.64379870  -118159.41941838
  entropy T*S    EENTRO =         0.00000000
  eigenvalues    EBANDS =    -10850.35404416
  atomic energy  EATOM  =    114020.06510763
  Solvation  Ediel_sol  =         0.00000000
  ---------------------------------------------------
  free energy    TOTEN  =      -327.83438085 eV

  energy without entropy =     -327.83438085  energy(sigma->0) =     -327.83438085


--------------------------------------------------------------------------------------------------------




--------------------------------------- Iteration      1(  11)  ---------------------------------------


    POTLOK:  cpu time    0.1209: real time    0.1219
    SETDIJ:  cpu time    0.0127: real time    0.0127
     EDDAV:  cpu time  136.2641: real time  137.2507
 BZINTS: Fermi energy:  4.975751;688.000000 electrons
         Band energy:***********;  BLOECHL correction:  0.000000
       DOS:  cpu time    0.0064: real time    0.0064
    CHARGE:  cpu time    1.4018: real time    1.4127
    MIXING:  cpu time    0.0014: real time    0.0014
    --------------------------------------------
      LOOP:  cpu time  137.8072: real time  138.8057

 eigenvalue-minimisations  : 20992
 total energy-change (2. order) :-0.4600009E-01  (-0.1187530E+00)
 number of electron     688.0000204 magnetization       0.0000000
 augmentation part      282.2275023 magnetization       0.0000000

 Broyden mixing:
  rms(total) = 0.22061E+00    rms(broyden)= 0.22060E+00
  rms(prec ) = 0.23037E+00
  weight for this iteration     100.00

 eigenvalues of (default mixing * dielectric matrix)
  average eigenvalue GAMMA=   1.0780
  2.0652  2.0652  0.7648  0.6244  0.6244  0.3242

 Free energy of the ion-electron system (eV)
  ---------------------------------------------------
  alpha Z        PSCENC =      2357.72754994
  Ewald energy   TEWEN  =    -62486.11855125
  -Hartree energ DENC   =    -42936.29282542
  -exchange      EXHF   =         0.00000000
  -V(xc)+E(xc)   XCENC  =      3286.48144693
  PAW double counting   =    113124.84584417  -116817.71978101
  entropy T*S    EENTRO =         0.00000000
  eigenvalues    EBANDS =    -10876.86917192
  atomic energy  EATOM  =    114020.06510763
  Solvation  Ediel_sol  =         0.00000000
  ---------------------------------------------------
  free energy    TOTEN  =      -327.88038093 eV

  energy without entropy =     -327.88038093  energy(sigma->0) =     -327.88038093


--------------------------------------------------------------------------------------------------------




--------------------------------------- Iteration      1(  12)  ---------------------------------------


    POTLOK:  cpu time    0.1179: real time    0.1222
    SETDIJ:  cpu time    0.0128: real time    0.0129
     EDDAV:  cpu time  180.8420: real time  182.1011
 BZINTS: Fermi energy:  4.981903;688.000000 electrons
         Band energy:***********;  BLOECHL correction:  0.000000
       DOS:  cpu time    0.0068: real time    0.0069
    CHARGE:  cpu time    1.4018: real time    1.4122
    MIXING:  cpu time    0.0016: real time    0.0016
    --------------------------------------------
      LOOP:  cpu time  182.3830: real time  183.6568

 eigenvalue-minimisations  : 25600
 total energy-change (2. order) :-0.7501585E-01  (-0.3145578E-01)
 number of electron     688.0000204 magnetization       0.0000000
 augmentation part      282.2301541 magnetization       0.0000000

 Broyden mixing:
  rms(total) = 0.12667E+00    rms(broyden)= 0.12666E+00
  rms(prec ) = 0.14131E+00
  weight for this iteration     100.00

 eigenvalues of (default mixing * dielectric matrix)
  average eigenvalue GAMMA=   1.1175
  2.2501  2.2501  1.0794  0.6880  0.6149  0.6149  0.3253

 Free energy of the ion-electron system (eV)
  ---------------------------------------------------
  alpha Z        PSCENC =      2357.72754994
  Ewald energy   TEWEN  =    -62486.11855125
  -Hartree energ DENC   =    -42943.09991187
  -exchange      EXHF   =         0.00000000
  -V(xc)+E(xc)   XCENC  =      3286.60766546
  PAW double counting   =    112588.49045780  -116282.61684522
  entropy T*S    EENTRO =         0.00000000
  eigenvalues    EBANDS =    -10869.01086926
  atomic energy  EATOM  =    114020.06510763
  Solvation  Ediel_sol  =         0.00000000
  ---------------------------------------------------
  free energy    TOTEN  =      -327.95539678 eV

  energy without entropy =     -327.95539678  energy(sigma->0) =     -327.95539678


--------------------------------------------------------------------------------------------------------




--------------------------------------- Iteration      1(  13)  ---------------------------------------


    POTLOK:  cpu time    0.1217: real time    0.1227
    SETDIJ:  cpu time    0.0129: real time    0.0130
     EDDAV:  cpu time  127.8468: real time  128.7808
 BZINTS: Fermi energy:  4.977987;688.000000 electrons
         Band energy:***********;  BLOECHL correction:  0.000000
       DOS:  cpu time    0.0063: real time    0.0063
    CHARGE:  cpu time    1.3965: real time    1.4071
    MIXING:  cpu time    0.0016: real time    0.0016
    --------------------------------------------
      LOOP:  cpu time  129.3859: real time  130.3315

 eigenvalue-minimisations  : 19968
 total energy-change (2. order) :-0.2193641E-01  (-0.9019974E-02)
 number of electron     688.0000204 magnetization       0.0000000
 augmentation part      282.2349629 magnetization       0.0000000

 Broyden mixing:
  rms(total) = 0.52013E-01    rms(broyden)= 0.52008E-01
  rms(prec ) = 0.55309E-01
  weight for this iteration     100.00

 eigenvalues of (default mixing * dielectric matrix)
  average eigenvalue GAMMA=   1.1313
  2.3139  2.3139  1.3528  0.3253  0.8549  0.6079  0.6079  0.6740

 Free energy of the ion-electron system (eV)
  ---------------------------------------------------
  alpha Z        PSCENC =      2357.72754994
  Ewald energy   TEWEN  =    -62486.11855125
  -Hartree energ DENC   =    -42940.85967361
  -exchange      EXHF   =         0.00000000
  -V(xc)+E(xc)   XCENC  =      3286.51193796
  PAW double counting   =    112343.96104784  -116037.71433816
  entropy T*S    EENTRO =         0.00000000
  eigenvalues    EBANDS =    -10871.55041355
  atomic energy  EATOM  =    114020.06510763
  Solvation  Ediel_sol  =         0.00000000
  ---------------------------------------------------
  free energy    TOTEN  =      -327.97733319 eV

  energy without entropy =     -327.97733319  energy(sigma->0) =     -327.97733319


--------------------------------------------------------------------------------------------------------




--------------------------------------- Iteration      1(  14)  ---------------------------------------


    POTLOK:  cpu time    0.1189: real time    0.1224
    SETDIJ:  cpu time    0.0127: real time    0.0127
     EDDAV:  cpu time  143.6991: real time  144.7253
 BZINTS: Fermi energy:  4.978654;688.000000 electrons
         Band energy:***********;  BLOECHL correction:  0.000000
       DOS:  cpu time    0.0064: real time    0.0064
    CHARGE:  cpu time    1.3970: real time    1.4075
    MIXING:  cpu time    0.0015: real time    0.0016
    --------------------------------------------
      LOOP:  cpu time  145.2355: real time  146.2758

 eigenvalue-minimisations  : 20992
 total energy-change (2. order) :-0.8223900E-02  (-0.1911928E-02)
 number of electron     688.0000204 magnetization      -0.0000000
 augmentation part      282.2120798 magnetization      -0.0000000

 Broyden mixing:
  rms(total) = 0.33010E-01    rms(broyden)= 0.33008E-01
  rms(prec ) = 0.35318E-01
  weight for this iteration     100.00

 eigenvalues of (default mixing * dielectric matrix)
  average eigenvalue GAMMA=   1.1846
  2.4193  2.4193  1.7434  1.1542  0.3253  0.6146  0.6146  0.7280  0.6425

 Free energy of the ion-electron system (eV)
  ---------------------------------------------------
  alpha Z        PSCENC =      2357.72754994
  Ewald energy   TEWEN  =    -62486.11855125
  -Hartree energ DENC   =    -42942.45423961
  -exchange      EXHF   =         0.00000000
  -V(xc)+E(xc)   XCENC  =      3286.56832167
  PAW double counting   =    112295.36683703  -115989.44013228
  entropy T*S    EENTRO =         0.00000000
  eigenvalues    EBANDS =    -10869.70045022
  atomic energy  EATOM  =    114020.06510763
  Solvation  Ediel_sol  =         0.00000000
  ---------------------------------------------------
  free energy    TOTEN  =      -327.98555709 eV

  energy without entropy =     -327.98555709  energy(sigma->0) =     -327.98555709


--------------------------------------------------------------------------------------------------------




--------------------------------------- Iteration      1(  15)  ---------------------------------------


    POTLOK:  cpu time    0.1176: real time    0.1214
    SETDIJ:  cpu time    0.0129: real time    0.0130
     EDDAV:  cpu time  123.0048: real time  123.9082
 BZINTS: Fermi energy:  4.979162;688.000000 electrons
         Band energy:***********;  BLOECHL correction:  0.000000
       DOS:  cpu time    0.0064: real time    0.0064
    CHARGE:  cpu time    1.7258: real time    1.7361
    MIXING:  cpu time    0.0023: real time    0.0023
    --------------------------------------------
      LOOP:  cpu time  124.8697: real time  125.7874

 eigenvalue-minimisations  : 19456
 total energy-change (2. order) :-0.4072641E-02  (-0.1077628E-02)
 number of electron     688.0000204 magnetization       0.0000000
 augmentation part      282.2179250 magnetization       0.0000000

 Broyden mixing:
  rms(total) = 0.16925E-01    rms(broyden)= 0.16923E-01
  rms(prec ) = 0.17939E-01
  weight for this iteration     100.00

 eigenvalues of (default mixing * dielectric matrix)
  average eigenvalue GAMMA=   1.2203
  2.9683  2.1387  2.0194  1.0971  1.0971  0.3253  0.6101  0.6101  0.6967  0.6399

 Free energy of the ion-electron system (eV)
  ---------------------------------------------------
  alpha Z        PSCENC =      2357.72754994
  Ewald energy   TEWEN  =    -62486.11855125
  -Hartree energ DENC   =    -42942.55433981
  -exchange      EXHF   =         0.00000000
  -V(xc)+E(xc)   XCENC  =      3286.57780326
  PAW double counting   =    112275.75125634  -115969.76622918
  entropy T*S    EENTRO =         0.00000000
  eigenvalues    EBANDS =    -10869.67222665
  atomic energy  EATOM  =    114020.06510763
  Solvation  Ediel_sol  =         0.00000000
  ---------------------------------------------------
  free energy    TOTEN  =      -327.98962974 eV

  energy without entropy =     -327.98962974  energy(sigma->0) =     -327.98962974


--------------------------------------------------------------------------------------------------------




--------------------------------------- Iteration      1(  16)  ---------------------------------------


    POTLOK:  cpu time    0.1355: real time    0.1370
    SETDIJ:  cpu time    0.0165: real time    0.0165
     EDDAV:  cpu time  167.8322: real time  168.9990
 BZINTS: Fermi energy:  4.978981;688.000000 electrons
         Band energy:***********;  BLOECHL correction:  0.000000
       DOS:  cpu time    0.0063: real time    0.0063
    CHARGE:  cpu time    1.4015: real time    1.4111
    MIXING:  cpu time    0.0019: real time    0.0174
    --------------------------------------------
      LOOP:  cpu time  169.3939: real time  170.5873

 eigenvalue-minimisations  : 23552
 total energy-change (2. order) :-0.1871799E-02  (-0.7035569E-03)
 number of electron     688.0000204 magnetization       0.0000000
 augmentation part      282.2250543 magnetization       0.0000000

 Broyden mixing:
  rms(total) = 0.10581E-01    rms(broyden)= 0.10579E-01
  rms(prec ) = 0.11194E-01
  weight for this iteration     100.00

 eigenvalues of (default mixing * dielectric matrix)
  average eigenvalue GAMMA=   1.2880
  3.4840  2.1206  2.1206  1.3847  1.3847  0.3253  0.6086  0.6086  0.7892  0.7096
  0.6320

 Free energy of the ion-electron system (eV)
  ---------------------------------------------------
  alpha Z        PSCENC =      2357.72754994
  Ewald energy   TEWEN  =    -62486.11855125
  -Hartree energ DENC   =    -42942.30399534
  -exchange      EXHF   =         0.00000000
  -V(xc)+E(xc)   XCENC  =      3286.57272280
  PAW double counting   =    112263.09817459  -115957.01537583
  entropy T*S    EENTRO =         0.00000000
  eigenvalues    EBANDS =    -10870.01713407
  atomic energy  EATOM  =    114020.06510763
  Solvation  Ediel_sol  =         0.00000000
  ---------------------------------------------------
  free energy    TOTEN  =      -327.99150153 eV

  energy without entropy =     -327.99150153  energy(sigma->0) =     -327.99150153


--------------------------------------------------------------------------------------------------------




--------------------------------------- Iteration      1(  17)  ---------------------------------------


    POTLOK:  cpu time    0.1212: real time    0.1221
    SETDIJ:  cpu time    0.0127: real time    0.0128
     EDDAV:  cpu time  113.1232: real time  113.9768
 BZINTS: Fermi energy:  4.978779;688.000000 electrons
         Band energy:***********;  BLOECHL correction:  0.000000
       DOS:  cpu time    0.0063: real time    0.0064
    CHARGE:  cpu time    1.3987: real time    1.4086
    MIXING:  cpu time    0.0019: real time    0.0019
    --------------------------------------------
      LOOP:  cpu time  114.6641: real time  115.5285

 eigenvalue-minimisations  : 18432
 total energy-change (2. order) :-0.5971233E-03  (-0.3015756E-03)
 number of electron     688.0000204 magnetization       0.0000000
 augmentation part      282.2216868 magnetization       0.0000000

 Broyden mixing:
  rms(total) = 0.59771E-02    rms(broyden)= 0.59752E-02
  rms(prec ) = 0.63841E-02
  weight for this iteration     100.00

 eigenvalues of (default mixing * dielectric matrix)
  average eigenvalue GAMMA=   1.3499
  4.0031  2.3280  2.3280  1.6200  1.3547  0.3253  0.9734  0.6092  0.6092  0.7590
  0.6849  0.6039

 Free energy of the ion-electron system (eV)
  ---------------------------------------------------
  alpha Z        PSCENC =      2357.72754994
  Ewald energy   TEWEN  =    -62486.11855125
  -Hartree energ DENC   =    -42942.40978264
  -exchange      EXHF   =         0.00000000
  -V(xc)+E(xc)   XCENC  =      3286.57356220
  PAW double counting   =    112278.02958804  -115971.92785183
  entropy T*S    EENTRO =         0.00000000
  eigenvalues    EBANDS =    -10869.93172074
  atomic energy  EATOM  =    114020.06510763
  Solvation  Ediel_sol  =         0.00000000
  ---------------------------------------------------
  free energy    TOTEN  =      -327.99209866 eV

  energy without entropy =     -327.99209866  energy(sigma->0) =     -327.99209866


--------------------------------------------------------------------------------------------------------




--------------------------------------- Iteration      1(  18)  ---------------------------------------


    POTLOK:  cpu time    0.1204: real time    0.1233
    SETDIJ:  cpu time    0.0127: real time    0.0127
     EDDAV:  cpu time  145.4797: real time  146.5135
 BZINTS: Fermi energy:  4.978806;688.000000 electrons
         Band energy:***********;  BLOECHL correction:  0.000000
       DOS:  cpu time    0.0064: real time    0.0064
    CHARGE:  cpu time    1.3976: real time    1.4085
    MIXING:  cpu time    0.0019: real time    0.0019
    --------------------------------------------
      LOOP:  cpu time  147.0186: real time  148.0664

 eigenvalue-minimisations  : 21248
 total energy-change (2. order) :-0.1168543E-03  (-0.7351343E-04)
 number of electron     688.0000204 magnetization       0.0000000
 augmentation part      282.2213245 magnetization       0.0000000

 Broyden mixing:
  rms(total) = 0.28643E-02    rms(broyden)= 0.28632E-02
  rms(prec ) = 0.30838E-02
  weight for this iteration     100.00

 eigenvalues of (default mixing * dielectric matrix)
  average eigenvalue GAMMA=   1.3406
  4.2292  2.3970  2.3970  1.7740  1.1142  1.1142  0.3253  0.6085  0.6085  0.8386
  0.7613  0.6440  0.6162

 Free energy of the ion-electron system (eV)
  ---------------------------------------------------
  alpha Z        PSCENC =      2357.72754994
  Ewald energy   TEWEN  =    -62486.11855125
  -Hartree energ DENC   =    -42942.43095579
  -exchange      EXHF   =         0.00000000
  -V(xc)+E(xc)   XCENC  =      3286.57390600
  PAW double counting   =    112291.90415292  -115985.77256073
  entropy T*S    EENTRO =         0.00000000
  eigenvalues    EBANDS =    -10869.94086423
  atomic energy  EATOM  =    114020.06510763
  Solvation  Ediel_sol  =         0.00000000
  ---------------------------------------------------
  free energy    TOTEN  =      -327.99221551 eV

  energy without entropy =     -327.99221551  energy(sigma->0) =     -327.99221551


--------------------------------------------------------------------------------------------------------




--------------------------------------- Iteration      1(  19)  ---------------------------------------


    POTLOK:  cpu time    0.1193: real time    0.1220
    SETDIJ:  cpu time    0.0127: real time    0.0128
     EDDAV:  cpu time  120.7766: real time  121.6717
 BZINTS: Fermi energy:  4.978825;688.000000 electrons
         Band energy:***********;  BLOECHL correction:  0.000000
       DOS:  cpu time    0.0064: real time    0.0064
    CHARGE:  cpu time    1.3997: real time    1.4093
    MIXING:  cpu time    0.0020: real time    0.0020
    --------------------------------------------
      LOOP:  cpu time  122.3167: real time  123.2242

 eigenvalue-minimisations  : 19200
 total energy-change (2. order) :-0.1085049E-04  (-0.4206603E-05)
 number of electron     688.0000204 magnetization       0.0000000
 augmentation part      282.2219552 magnetization       0.0000000

 Broyden mixing:
[...]
   -.416E+02 0.133E+02 -.667E+00   0.424E+02 -.134E+02 0.671E+00   -.862E+00 0.741E-01 -.622E-02   -.923E-05 0.538E-05 -.107E-05
   -.416E+02 0.133E+02 -.667E+00   0.424E+02 -.134E+02 0.671E+00   -.862E+00 0.741E-01 -.622E-02   -.925E-05 0.538E-05 -.107E-05
   -.416E+02 0.133E+02 -.667E+00   0.424E+02 -.134E+02 0.671E+00   -.862E+00 0.741E-01 -.622E-02   -.923E-05 0.537E-05 -.107E-05
   -.416E+02 0.133E+02 -.667E+00   0.424E+02 -.134E+02 0.671E+00   -.862E+00 0.741E-01 -.622E-02   -.925E-05 0.537E-05 -.107E-05
   0.416E+02 0.133E+02 0.667E+00   -.424E+02 -.134E+02 -.671E+00   0.862E+00 0.741E-01 0.622E-02   0.924E-05 0.537E-05 0.107E-05
   0.416E+02 0.133E+02 0.667E+00   -.424E+02 -.134E+02 -.671E+00   0.862E+00 0.741E-01 0.622E-02   0.924E-05 0.537E-05 0.107E-05
   0.416E+02 0.133E+02 0.667E+00   -.424E+02 -.134E+02 -.671E+00   0.862E+00 0.741E-01 0.622E-02   0.924E-05 0.537E-05 0.107E-05
   0.416E+02 0.133E+02 0.667E+00   -.424E+02 -.134E+02 -.671E+00   0.862E+00 0.741E-01 0.622E-02   0.924E-05 0.537E-05 0.107E-05
   0.392E-07 -.340E+02 0.911E-07   0.249E-13 0.348E+02 0.675E-13   -.776E-24 -.802E+00 0.000E+00   0.319E-10 -.446E-05 -.175E-09
   0.392E-07 -.340E+02 0.911E-07   0.178E-14 0.348E+02 0.746E-13   0.528E-24 -.802E+00 0.310E-24   -.396E-10 -.446E-05 0.175E-09
   0.392E-07 -.340E+02 0.911E-07   0.000E+00 0.348E+02 0.853E-13   0.565E-24 -.802E+00 0.517E-25   0.320E-10 -.447E-05 -.175E-09
   0.392E-07 -.340E+02 0.911E-07   -.711E-14 0.348E+02 0.639E-13   -.536E-24 -.802E+00 -.336E-24   -.396E-10 -.447E-05 0.175E-09
   -.200E-08 0.513E+02 0.857E-07   0.533E-14 -.522E+02 0.666E-13   0.134E-24 0.925E+00 0.000E+00   0.800E-08 0.239E-04 -.139E-09
   -.200E-08 0.513E+02 0.857E-07   0.284E-13 -.522E+02 0.426E-13   0.101E-24 0.925E+00 -.775E-25   -.799E-08 0.239E-04 0.139E-09
   -.200E-08 0.513E+02 0.857E-07   -.213E-13 -.522E+02 -.355E-14   0.217E-24 0.925E+00 -.142E-24   0.800E-08 0.239E-04 -.139E-09
   -.200E-08 0.513E+02 0.857E-07   0.284E-13 -.522E+02 0.284E-13   -.166E-24 0.925E+00 0.000E+00   -.799E-08 0.239E-04 0.139E-09
   0.193E+01 -.120E+02 0.212E+01   -.191E+01 0.115E+02 -.217E+01   -.152E-01 0.475E+00 0.352E-01   0.470E-05 0.382E-04 -.656E-05
   0.193E+01 -.120E+02 0.212E+01   -.191E+01 0.115E+02 -.217E+01   -.152E-01 0.475E+00 0.352E-01   0.467E-05 0.382E-04 -.656E-05
   0.193E+01 -.120E+02 0.212E+01   -.191E+01 0.115E+02 -.217E+01   -.152E-01 0.475E+00 0.352E-01   0.470E-05 0.381E-04 -.656E-05
   0.193E+01 -.120E+02 0.212E+01   -.191E+01 0.115E+02 -.217E+01   -.152E-01 0.475E+00 0.352E-01   0.467E-05 0.381E-04 -.656E-05
   -.193E+01 -.120E+02 -.212E+01   0.191E+01 0.115E+02 0.217E+01   0.152E-01 0.475E+00 -.352E-01   -.467E-05 0.382E-04 0.656E-05
   -.193E+01 -.120E+02 -.212E+01   0.191E+01 0.115E+02 0.217E+01   0.152E-01 0.475E+00 -.352E-01   -.470E-05 0.382E-04 0.656E-05
   -.193E+01 -.120E+02 -.212E+01   0.191E+01 0.115E+02 0.217E+01   0.152E-01 0.475E+00 -.352E-01   -.467E-05 0.381E-04 0.656E-05
   -.193E+01 -.120E+02 -.212E+01   0.191E+01 0.115E+02 0.217E+01   0.152E-01 0.475E+00 -.352E-01   -.470E-05 0.381E-04 0.656E-05
   0.193E+01 -.120E+02 0.212E+01   -.191E+01 0.115E+02 -.217E+01   -.152E-01 0.475E+00 0.352E-01   0.470E-05 0.382E-04 -.656E-05
   0.193E+01 -.120E+02 0.212E+01   -.191E+01 0.115E+02 -.217E+01   -.152E-01 0.475E+00 0.352E-01   0.467E-05 0.382E-04 -.656E-05
   0.193E+01 -.120E+02 0.212E+01   -.191E+01 0.115E+02 -.217E+01   -.152E-01 0.475E+00 0.352E-01   0.470E-05 0.381E-04 -.656E-05
   0.193E+01 -.120E+02 0.212E+01   -.191E+01 0.115E+02 -.217E+01   -.152E-01 0.475E+00 0.352E-01   0.467E-05 0.381E-04 -.656E-05
   -.193E+01 -.120E+02 -.212E+01   0.191E+01 0.115E+02 0.217E+01   0.152E-01 0.475E+00 -.352E-01   -.467E-05 0.382E-04 0.656E-05
   -.193E+01 -.120E+02 -.212E+01   0.191E+01 0.115E+02 0.217E+01   0.152E-01 0.475E+00 -.352E-01   -.470E-05 0.382E-04 0.656E-05
   -.193E+01 -.120E+02 -.212E+01   0.191E+01 0.115E+02 0.217E+01   0.152E-01 0.475E+00 -.352E-01   -.467E-05 0.381E-04 0.656E-05
   -.193E+01 -.120E+02 -.212E+01   0.191E+01 0.115E+02 0.217E+01   0.152E-01 0.475E+00 -.352E-01   -.470E-05 0.381E-04 0.656E-05
   -.322E+01 -.112E+02 0.226E+01   0.317E+01 0.106E+02 -.232E+01   0.520E-01 0.617E+00 0.323E-01   0.184E-04 0.935E-05 0.949E-05
   -.322E+01 -.112E+02 0.226E+01   0.317E+01 0.106E+02 -.232E+01   0.520E-01 0.617E+00 0.323E-01   0.183E-04 0.935E-05 0.949E-05
   -.322E+01 -.112E+02 0.226E+01   0.317E+01 0.106E+02 -.232E+01   0.520E-01 0.617E+00 0.323E-01   0.184E-04 0.932E-05 0.949E-05
   -.322E+01 -.112E+02 0.226E+01   0.317E+01 0.106E+02 -.232E+01   0.520E-01 0.617E+00 0.323E-01   0.183E-04 0.932E-05 0.949E-05
   0.322E+01 -.112E+02 -.226E+01   -.317E+01 0.106E+02 0.232E+01   -.520E-01 0.617E+00 -.323E-01   -.183E-04 0.935E-05 -.949E-05
   0.322E+01 -.112E+02 -.226E+01   -.317E+01 0.106E+02 0.232E+01   -.520E-01 0.617E+00 -.323E-01   -.184E-04 0.935E-05 -.949E-05
   0.322E+01 -.112E+02 -.226E+01   -.317E+01 0.106E+02 0.232E+01   -.520E-01 0.617E+00 -.323E-01   -.183E-04 0.932E-05 -.949E-05
   0.322E+01 -.112E+02 -.226E+01   -.317E+01 0.106E+02 0.232E+01   -.520E-01 0.617E+00 -.323E-01   -.184E-04 0.932E-05 -.949E-05
   -.322E+01 -.112E+02 0.226E+01   0.317E+01 0.106E+02 -.232E+01   0.520E-01 0.617E+00 0.323E-01   0.184E-04 0.935E-05 0.949E-05
   -.322E+01 -.112E+02 0.226E+01   0.317E+01 0.106E+02 -.232E+01   0.520E-01 0.617E+00 0.323E-01   0.183E-04 0.935E-05 0.949E-05
   -.322E+01 -.112E+02 0.226E+01   0.317E+01 0.106E+02 -.232E+01   0.520E-01 0.617E+00 0.323E-01   0.184E-04 0.932E-05 0.949E-05
   -.322E+01 -.112E+02 0.226E+01   0.317E+01 0.106E+02 -.232E+01   0.520E-01 0.617E+00 0.323E-01   0.183E-04 0.932E-05 0.949E-05
   0.322E+01 -.112E+02 -.226E+01   -.317E+01 0.106E+02 0.232E+01   -.520E-01 0.617E+00 -.323E-01   -.183E-04 0.935E-05 -.949E-05
   0.322E+01 -.112E+02 -.226E+01   -.317E+01 0.106E+02 0.232E+01   -.520E-01 0.617E+00 -.323E-01   -.184E-04 0.935E-05 -.949E-05
   0.322E+01 -.112E+02 -.226E+01   -.317E+01 0.106E+02 0.232E+01   -.520E-01 0.617E+00 -.323E-01   -.183E-04 0.932E-05 -.949E-05
   0.322E+01 -.112E+02 -.226E+01   -.317E+01 0.106E+02 0.232E+01   -.520E-01 0.617E+00 -.323E-01   -.184E-04 0.932E-05 -.949E-05
 -----------------------------------------------------------------------------------------------
   0.326E-06 -.197E+02 0.278E-03   0.127E-12 -.810E-12 0.696E-12   -.971E-15 0.196E+02 -.180E-15   -.229E-11 0.100E-02 0.136E-10
 
 
 POSITION                                       TOTAL-FORCE (eV/Angst)
 -----------------------------------------------------------------------------------
      1.35003      1.29106      1.32691         0.001562     -0.012256      0.002290
      6.60400      1.29106      1.41856         0.001562     -0.012256      0.002290
      1.35003      6.55231      1.32691         0.001562     -0.012256      0.002290
      6.60400      6.55231      1.41856         0.001562     -0.012256      0.002290
      3.94930      3.92169      1.36547        -0.001562     -0.012256     -0.002290
      9.20327      3.92169      1.45713        -0.001562     -0.012256     -0.002290
      3.94930      9.18294      1.36547        -0.001562     -0.012256     -0.002290
      9.20327      9.18294      1.45713        -0.001562     -0.012256     -0.002290
      1.47228      3.92220      9.12548         0.000000     -0.007315      0.000000
      6.72625      3.92220      9.21713         0.000000     -0.007315      0.000000
      1.47228      9.18345      9.12548         0.000000     -0.007315      0.000000
      6.72625      9.18345      9.21713         0.000000     -0.007315      0.000000
      4.09926      1.31201      9.17130         0.000000     -0.005213      0.000000
      9.35323      1.31201      9.26296         0.000000     -0.005213      0.000000
      4.09926      6.57326      9.17130         0.000000     -0.005213      0.000000
      9.35323      6.57326      9.26296         0.000000     -0.005213      0.000000
      1.41306      1.29106      6.52111        -0.001562     -0.012256     -0.002290
      6.66702      1.29106      6.61277        -0.001562     -0.012256     -0.002290
      1.41306      6.55231      6.52111        -0.001562     -0.012256     -0.002290
      6.66702      6.55231      6.61277        -0.001562     -0.012256     -0.002290
      4.06775      3.92169      6.57420         0.001562     -0.012256      0.002290
      9.32172      3.92169      6.66586         0.001562     -0.012256      0.002290
      4.06775      9.18294      6.57420         0.001562     -0.012256      0.002290
      9.32172      9.18294      6.66586         0.001562     -0.012256      0.002290
      4.00853      1.29157      3.96984         0.000000     -0.007315      0.000000
      9.26249      1.29157      4.06149         0.000000     -0.007315      0.000000
      4.00853      6.55283      3.96984         0.000000     -0.007315      0.000000
      9.26249      6.55283      4.06149         0.000000     -0.007315      0.000000
      1.38154      3.94264      3.92401         0.000000     -0.005213      0.000000
      6.63551      3.94264      4.01566         0.000000     -0.005213      0.000000
      1.38154      9.20389      3.92401         0.000000     -0.005213      0.000000
      6.63551      9.20389      4.01566         0.000000     -0.005213      0.000000
     10.58839      0.01886      5.38482         0.006645      0.009619     -0.011867
      5.33442      0.01886      5.29317         0.006645      0.009619     -0.011867
     10.58839      5.28011      5.38482         0.006645      0.009619     -0.011867
      5.33442      5.28011      5.29317         0.006645      0.009619     -0.011867
      2.68263      0.01886      2.64651        -0.006645      0.009619      0.011867
      7.93660      0.01886      2.73816        -0.006645      0.009619      0.011867
      2.68263      5.28011      2.64651        -0.006645      0.009619      0.011867
      7.93660      5.28011      2.73816        -0.006645      0.009619      0.011867
      2.61670      2.64948      0.04588         0.006645      0.009619     -0.011867
      7.87067      2.64948      0.13753         0.006645      0.009619     -0.011867
      2.61670      7.91074      0.04588         0.006645      0.009619     -0.011867
      7.87067      7.91074      0.13753         0.006645      0.009619     -0.011867
      0.14639      2.64948      7.80215        -0.006645      0.009619      0.011867
      5.40035      2.64948      7.89380        -0.006645      0.009619      0.011867
      0.14639      7.91074      7.80215        -0.006645      0.009619      0.011867
      5.40035      7.91074      7.89380        -0.006645      0.009619      0.011867
     10.50142      0.01891      0.18782         0.009696      0.008901     -0.026166
      5.24746      0.01891      0.09617         0.009696      0.008901     -0.026166
     10.50142      5.28016      0.18782         0.009696      0.008901     -0.026166
      5.24746      5.28016      0.09617         0.009696      0.008901     -0.026166
      2.76960      0.01891      7.84351        -0.009696      0.008901      0.026166
      8.02356      0.01891      7.93516        -0.009696      0.008901      0.026166
      2.76960      5.28016      7.84351        -0.009696      0.008901      0.026166
      8.02356      5.28016      7.93516        -0.009696      0.008901      0.026166
      2.71121      2.64954      5.25181         0.009696      0.008901     -0.026166
      7.96518      2.64954      5.34346         0.009696      0.008901     -0.026166
      2.71121      7.91079      5.25181         0.009696      0.008901     -0.026166
      7.96518      7.91079      5.34346         0.009696      0.008901     -0.026166
      0.05188      2.64954      2.59622        -0.009696      0.008901      0.026166
      5.30584      2.64954      2.68787        -0.009696      0.008901      0.026166
      0.05188      7.91079      2.59622        -0.009696      0.008901      0.026166
      5.30584      7.91079      2.68787        -0.009696      0.008901      0.026166
 -----------------------------------------------------------------------------------
    total drift:                                0.000000     -0.021528      0.000278


--------------------------------------------------------------------------------------------------------



  FREE ENERGIE OF THE ION-ELECTRON SYSTEM (eV)
  ---------------------------------------------------
  free  energy   TOTEN  =      -327.99223447 eV

  energy  without entropy=     -327.99223447  energy(sigma->0) =     -327.99223447
 


--------------------------------------------------------------------------------------------------------


    POTLOK:  cpu time    0.1332: real time    0.1338


--------------------------------------------------------------------------------------------------------


 writing wavefunctions
     LOOP+:  cpu time 3775.0624: real time 3802.7814
    4ORBIT:  cpu time    0.0000: real time    0.0000
 


 total charge     
 
# of ion       s       p       d       tot
------------------------------------------
    1        1.314   2.411   0.000   3.724
    2        1.314   2.411   0.000   3.724
    3        1.314   2.411   0.000   3.724
    4        1.314   2.411   0.000   3.724
    5        1.314   2.411   0.000   3.724
    6        1.314   2.411   0.000   3.724
    7        1.314   2.411   0.000   3.724
    8        1.314   2.411   0.000   3.724
    9        1.314   2.408   0.000   3.722
   10        1.314   2.408   0.000   3.722
   11        1.314   2.408   0.000   3.722
   12        1.314   2.408   0.000   3.722
   13        1.313   2.411   0.000   3.724
   14        1.313   2.411   0.000   3.724
   15        1.313   2.411   0.000   3.724
   16        1.313   2.411   0.000   3.724
   17        1.314   2.411   0.000   3.724
   18        1.314   2.411   0.000   3.724
   19        1.314   2.411   0.000   3.724
   20        1.314   2.411   0.000   3.724
   21        1.314   2.411   0.000   3.724
   22        1.314   2.411   0.000   3.724
   23        1.314   2.411   0.000   3.724
   24        1.314   2.411   0.000   3.724
   25        1.314   2.408   0.000   3.722
   26        1.314   2.408   0.000   3.722
   27        1.314   2.408   0.000   3.722
   28        1.314   2.408   0.000   3.722
   29        1.313   2.411   0.000   3.724
   30        1.313   2.411   0.000   3.724
   31        1.313   2.411   0.000   3.724
   32        1.313   2.411   0.000   3.724
   33        0.260   6.202   8.917  15.378
   34        0.260   6.202   8.917  15.378
   35        0.260   6.202   8.917  15.378
   36        0.260   6.202   8.917  15.378
   37        0.260   6.202   8.917  15.378
   38        0.260   6.202   8.917  15.378
   39        0.260   6.202   8.917  15.378
   40        0.260   6.202   8.917  15.378
   41        0.260   6.202   8.917  15.378
   42        0.260   6.202   8.917  15.378
   43        0.260   6.202   8.917  15.378
   44        0.260   6.202   8.917  15.378
   45        0.260   6.202   8.917  15.378
   46        0.260   6.202   8.917  15.378
   47        0.260   6.202   8.917  15.378
   48        0.260   6.202   8.917  15.378
   49        0.350   6.351   5.821  12.522
   50        0.350   6.351   5.821  12.522
   51        0.350   6.351   5.821  12.522
   52        0.350   6.351   5.821  12.522
   53        0.350   6.351   5.821  12.522
   54        0.350   6.351   5.821  12.522
   55        0.350   6.351   5.821  12.522
   56        0.350   6.351   5.821  12.522
   57        0.350   6.351   5.821  12.522
   58        0.350   6.351   5.821  12.522
   59        0.350   6.351   5.821  12.522
   60        0.350   6.351   5.821  12.522
   61        0.350   6.351   5.821  12.522
   62        0.350   6.351   5.821  12.522
   63        0.350   6.351   5.821  12.522
   64        0.350   6.351   5.821  12.522
--------------------------------------------------
tot         51.792 277.973 235.794 565.559
 


 magnetization (x)
 
# of ion       s       p       d       tot
------------------------------------------
    1       -0.000  -0.008   0.000  -0.008
    2       -0.000  -0.008   0.000  -0.008
    3       -0.000  -0.008   0.000  -0.008
    4       -0.000  -0.008   0.000  -0.008
    5        0.000   0.008   0.000   0.008
    6        0.000   0.008   0.000   0.008
    7        0.000   0.008   0.000   0.008
    8        0.000   0.008   0.000   0.008
    9       -0.000  -0.000   0.000  -0.000
   10        0.000  -0.000   0.000  -0.000
   11       -0.000  -0.000   0.000  -0.000
   12        0.000  -0.000   0.000  -0.000
   13       -0.000  -0.000   0.000  -0.000
   14       -0.000   0.000   0.000  -0.000
   15       -0.000  -0.000   0.000  -0.000
   16       -0.000  -0.000   0.000  -0.000
   17        0.000   0.008   0.000   0.008
   18        0.000   0.008   0.000   0.008
   19        0.000   0.008   0.000   0.008
   20        0.000   0.008   0.000   0.008
   21       -0.000  -0.008   0.000  -0.008
   22       -0.000  -0.008   0.000  -0.008
   23       -0.000  -0.008   0.000  -0.008
   24       -0.000  -0.008   0.000  -0.008
   25        0.000  -0.000   0.000  -0.000
   26        0.000  -0.000   0.000  -0.000
   27        0.000  -0.000   0.000  -0.000
   28        0.000  -0.000   0.000  -0.000
   29       -0.000  -0.000   0.000  -0.000
   30       -0.000   0.000   0.000   0.000
   31       -0.000  -0.000   0.000  -0.000
   32       -0.000   0.000   0.000   0.000
   33        0.000   0.001  -0.001  -0.000
   34        0.000   0.001  -0.001  -0.000
   35        0.000   0.001  -0.001  -0.000
   36        0.000   0.001  -0.001  -0.000
   37       -0.000  -0.001   0.001   0.000
   38       -0.000  -0.001   0.001   0.000
   39       -0.000  -0.001   0.001   0.000
   40       -0.000  -0.001   0.001   0.000
   41        0.000   0.001  -0.001  -0.000
   42        0.000   0.001  -0.001  -0.000
   43        0.000   0.001  -0.001  -0.000
   44        0.000   0.001  -0.001  -0.000
   45       -0.000  -0.001   0.001   0.000
   46       -0.000  -0.001   0.001   0.000
   47       -0.000  -0.001   0.001   0.000
   48       -0.000  -0.001   0.001   0.000
   49        0.020   0.054   3.670   3.743
   50        0.020   0.054   3.670   3.743
   51        0.020   0.054   3.670   3.743
   52        0.020   0.054   3.670   3.743
   53       -0.020  -0.054  -3.670  -3.743
   54       -0.020  -0.054  -3.670  -3.743
   55       -0.020  -0.054  -3.670  -3.743
   56       -0.020  -0.054  -3.670  -3.743
   57        0.020   0.054   3.670   3.743
   58        0.020   0.054   3.670   3.743
   59        0.020   0.054   3.670   3.743
   60        0.020   0.054   3.670   3.743
   61       -0.020  -0.054  -3.670  -3.743
   62       -0.020  -0.054  -3.670  -3.743
   63       -0.020  -0.054  -3.670  -3.743
   64       -0.020  -0.054  -3.670  -3.743
--------------------------------------------------
tot         -0.000  -0.000   0.000  -0.000
 
 BZINTS: Fermi energy:  4.978824;688.000000 electrons
         Band energy:***********;  BLOECHL correction:  0.000000

 total amount of memory used by VASP MPI-rank0   349631. kBytes
=======================================================================

   base      :      30000. kBytes
   nonl-proj :     217907. kBytes
   fftplans  :       4588. kBytes
   grid      :      69719. kBytes
   one-center:       1990. kBytes
   wavefun   :      25427. kBytes
 
  
  
 General timing and accounting informations for this job:
 ========================================================
  
                  Total CPU time used (sec):     3834.118
                            User time (sec):     3822.965
                          System time (sec):       11.154
                         Elapsed time (sec):     3863.474
  
                   Maximum memory used (kb):      713744.
                   Average memory used (kb):           0.
  
                          Minor page faults:       699003
                          Major page faults:         5854
                 Voluntary context switches:         7311
