       N       E                     dE             d eps       ncg     rms          rms(c)
DAV:   1    -0.298474363071E+03   -0.29847E+03   -0.17612E+03 18944   0.243E+02    0.416E+01
DAV:   2    -0.327718503619E+03   -0.29244E+02   -0.29321E+02 13568   0.272E+01    0.169E+01
DAV:   3    -0.328041444777E+03   -0.32294E+00   -0.53856E+00 19456   0.505E+00    0.127E+01
DAV:   4    -0.328021067365E+03    0.20377E-01   -0.68602E-01 14336   0.230E+00    0.106E+01
DAV:   5    -0.328021307508E+03   -0.24014E-03   -0.42961E-02 15104   0.606E-01    0.912E+00
DAV:   6    -0.328020888794E+03    0.41871E-03   -0.35179E-03 16128   0.154E-01    0.735E+00
DAV:   7    -0.328018648395E+03    0.22404E-02   -0.83347E-03 15872   0.277E-01    0.135E+00
DAV:   8    -0.328018694081E+03   -0.45686E-04   -0.35470E-04 14336   0.458E-02    0.103E+00
DAV:   9    -0.328018676376E+03    0.17705E-04   -0.30325E-05 17408   0.132E-02    0.925E-01
DAV:  10    -0.328018629708E+03    0.46668E-04   -0.43444E-04 13824   0.466E-02    0.687E-02
DAV:  11    -0.328018631207E+03   -0.14994E-05   -0.13302E-05 16128   0.707E-03    0.135E-02
DAV:  12    -0.328018631724E+03   -0.51669E-06   -0.16680E-06 20736   0.231E-03    0.395E-02
DAV:  13    -0.328018632725E+03   -0.10009E-05   -0.19162E-06 16384   0.221E-03    0.328E-02
DAV:  14    -0.328018633213E+03   -0.48830E-06   -0.27267E-07 13824   0.627E-04    0.161E-02
DAV:  15    -0.328018633435E+03   -0.22145E-06   -0.30605E-07 16640   0.580E-04    0.117E-02
DAV:  16    -0.328018633530E+03   -0.95708E-07   -0.17154E-07 13568   0.545E-04    0.297E-03
DAV:  17    -0.328018633560E+03   -0.29686E-07   -0.16894E-08 12032   0.179E-04    0.109E-03
DAV:  18    -0.328018633571E+03   -0.10899E-07   -0.23696E-09  9728   0.970E-05    0.135E-03
DAV:  19    -0.328018633559E+03    0.12296E-07   -0.27151E-09 10752   0.634E-05    0.169E-04
DAV:  20    -0.328018633546E+03    0.13053E-07    0.32110E-10  9984   0.391E-05    0.817E-05
DAV:  21    -0.328018633544E+03    0.15134E-08    0.10715E-09  9472   0.174E-05
   1 F= -.32801863E+03 E0= -.32801863E+03  d E =-.141408E-12  mag=    -0.0000
