 vasp.5.4.4.18Apr17-6-g9f103f2a35 (build Oct 30 2023 17:30:16) complex          
  
 executed on             LinuxIFC date 2024.06.29  18:55:02
 running on  256 total cores
 distrk:  each k-point on  256 cores,    1 groups
 distr:  one band on NCORES_PER_BAND=   1 cores,  256 groups


--------------------------------------------------------------------------------------------------------


 INCAR:
 POTCAR:    PAW_PBE S 06Sep2000                   
 POTCAR:     PAW_PBE Cu_pv 06Sep2000              
 POTCAR:     PAW_PBE Fe_pv 02Aug2007              

 ----------------------------------------------------------------------------- 
|                                                                             |
|           W    W    AA    RRRRR   N    N  II  N    N   GGGG   !!!           |
|           W    W   A  A   R    R  NN   N  II  NN   N  G    G  !!!           |
|           W    W  A    A  R    R  N N  N  II  N N  N  G       !!!           |
|           W WW W  AAAAAA  RRRRR   N  N N  II  N  N N  G  GGG   !            |
|           WW  WW  A    A  R   R   N   NN  II  N   NN  G    G                |
|           W    W  A    A  R    R  N    N  II  N    N   GGGG   !!!           |
|                                                                             |
|      For optimal performance we recommend to set                            |
|        NCORE= 4 - approx SQRT( number of cores)                             |
|      NCORE specifies how many cores store one orbital (NPAR=cpu/NCORE).     |
|      This setting can  greatly improve the performance of VASP for DFT.     |
|      The default,   NCORE=1            might be grossly inefficient         |
|      on modern multi-core architectures or massively parallel machines.     |
|      Do your own testing !!!!                                               |
|      Unfortunately you need to use the default for GW and RPA calculations. |
|      (for HF NCORE is supported but not extensively tested yet)             |
|                                                                             |
 ----------------------------------------------------------------------------- 

 POTCAR:    PAW_PBE S 06Sep2000                   
   SHA256 =  0fc7481fb0695f01bdc6462160264c5c84044ae9ec85a907d398b887a2bc3132 S/
   COPYR  = (c) Copyright 06Sep2000 Georg Kresse                                
   COPYR  = This file is part of the software VASP. Any use, copying, and all ot
   COPYR  = If you do not have a valid VASP license, you may not use, copy or di
   VRHFIN =S : s2p4                                                             
   LEXCH  = PE                                                                  
   EATOM  =   276.8230 eV,   20.3459 Ry                                         
                                                                                
   TITEL  = PAW_PBE S 06Sep2000                                                 
   LULTRA =        F    use ultrasoft PP ?                                      
   IUNSCR =        1    unscreen: 0-lin 1-nonlin 2-no                           
   RPACOR =    1.500    partial core radius                                     
   POMASS =   32.066; ZVAL   =    6.000    mass and valenz                      
   RCORE  =    1.900    outmost cutoff radius                                   
   RWIGS  =    2.200; RWIGS  =    1.164    wigner-seitz radius (au A)           
   ENMAX  =  258.689; ENMIN  =  194.016 eV                                      
   ICORE  =        2    local potential                                         
   LCOR   =        T    correct aug charges                                     
   LPAW   =        T    paw PP                                                  
   EAUG   =  335.092                                                            
   DEXC   =    0.000                                                            
   RMAX   =    1.942    core radius for proj-oper                               
   RAUG   =    1.300    factor for augmentation sphere                          
   RDEP   =    1.954    radius for radial grids                                 
   RDEPT  =    1.744    core radius for aug-charge                              
                                                                                
   Atomic configuration                                                         
    6 entries                                                                   
     n  l   j            E        occ.                                          
     1  0  0.50     -2405.8406   2.0000                                         
     2  0  0.50      -211.7007   2.0000                                         
     2  1  1.50      -156.4958   6.0000                                         
     3  0  0.50       -17.2562   2.0000                                         
     3  1  0.50        -7.0085   4.0000                                         
     3  2  1.50        -6.8029   0.0000                                         
   Description                                                                  
     l       E           TYP  RCUT    TYP  RCUT                                 
     0    -17.2561641     23  1.900                                             
     0    -15.8743224     23  1.900                                             
     1     -7.0085400     23  1.900                                             
     1     -2.7779785     23  1.900                                             
     2     -6.8029130     23  1.900                                             
  local pseudopotential read in
  partial core-charges read in
  partial kinetic energy density read in
  atomic valenz-charges read in
  non local Contribution for L=           0  read in
    real space projection operators read in
  non local Contribution for L=           0  read in
    real space projection operators read in
  non local Contribution for L=           1  read in
    real space projection operators read in
  non local Contribution for L=           1  read in
    real space projection operators read in
    PAW grid and wavefunctions read in
 
   number of l-projection  operators is LMAX  =           4
   number of lm-projection operators is LMMAX =           8
 
 POTCAR:     PAW_PBE Cu_pv 06Sep2000              
   SHA256 =  cb7b504e2ea725fe1f25c85a9ac77d4012ce94cd394135b722c4e25ec297f1cb Cu
   COPYR  = (c) Copyright 06Sep2000 Georg Kresse                                
   COPYR  = This file is part of the software VASP. Any use, copying, and all ot
   COPYR  = If you do not have a valid VASP license, you may not use, copy or di
   VRHFIN =Cu: d10 p1                                                           
   LEXCH  = PE                                                                  
   EATOM  =  4120.1201 eV,  302.8203 Ry                                         
                                                                                
   TITEL  = PAW_PBE Cu_pv 06Sep2000                                             
   LULTRA =        F    use ultrasoft PP ?                                      
   IUNSCR =        1    unscreen: 0-lin 1-nonlin 2-no                           
   RPACOR =    1.500    partial core radius                                     
   POMASS =   63.546; ZVAL   =   17.000    mass and valenz                      
   RCORE  =    2.000    outmost cutoff radius                                   
   RWIGS  =    2.000; RWIGS  =    1.058    wigner-seitz radius (au A)           
   ENMAX  =  368.648; ENMIN  =  276.486 eV                                      
   RCLOC  =    1.304    cutoff for local pot                                    
   LCOR   =        T    correct aug charges                                     
   LPAW   =        T    paw PP                                                  
   EAUG   =  758.233                                                            
   DEXC   =    0.000                                                            
   RMAX   =    2.046    core radius for proj-oper                               
   RAUG   =    1.300    factor for augmentation sphere                          
   RDEP   =    2.025    radius for radial grids                                 
   RDEPT  =    1.558    core radius for aug-charge                              
                                                                                
   Atomic configuration                                                         
    8 entries                                                                   
     n  l   j            E        occ.                                          
     1  0  0.50     -8850.2467   2.0000                                         
     2  0  0.50     -1062.3498   2.0000                                         
     2  1  1.50      -916.8226   6.0000                                         
     3  0  0.50      -114.6929   2.0000                                         
     3  1  1.50       -72.1325   6.0000                                         
     3  2  2.50        -5.0394  10.0000                                         
     4  0  0.50        -4.6097   1.0000                                         
     4  3  2.50        -1.3606   0.0000                                         
   Description                                                                  
     l       E           TYP  RCUT    TYP  RCUT                                 
     1    -72.1324777     23  1.700                                             
     1     -1.3605826     23  1.700                                             
     2     -5.0393776     23  2.000                                             
     2     -6.3999602     23  2.000                                             
     0     -4.6097062     23  1.800                                             
     0     14.1620818     23  1.800                                             
  local pseudopotential read in
  partial core-charges read in
  partial kinetic energy density read in
  atomic valenz-charges read in
  non local Contribution for L=           1  read in
    real space projection operators read in
  non local Contribution for L=           1  read in
    real space projection operators read in
  non local Contribution for L=           2  read in
    real space projection operators read in
  non local Contribution for L=           2  read in
    real space projection operators read in
  non local Contribution for L=           0  read in
    real space projection operators read in
  non local Contribution for L=           0  read in
    real space projection operators read in
    PAW grid and wavefunctions read in
 
   number of l-projection  operators is LMAX  =           6
   number of lm-projection operators is LMMAX =          18
 
 POTCAR:     PAW_PBE Fe_pv 02Aug2007              
   SHA256 =  5d22e414b1f82158bf2c7ecb8b97b28fd0923e48cadc1c3bf74d524558f5dd32 Fe
   COPYR  = (c) Copyright 02Aug2007 Georg Kresse                                
   COPYR  = This file is part of the software VASP. Any use, copying, and all ot
   COPYR  = If you do not have a valid VASP license, you may not use, copy or di
   VRHFIN =Fe:  3pd7s1                                                          
   LEXCH  = PE                                                                  
   EATOM  =  2457.4239 eV,  180.6156 Ry                                         
                                                                                
   TITEL  = PAW_PBE Fe_pv 02Aug2007                                             
   LULTRA =        F    use ultrasoft PP ?                                      
   IUNSCR =        1    unscreen: 0-lin 1-nonlin 2-no                           
   RPACOR =    1.750    partial core radius                                     
   POMASS =   55.847; ZVAL   =   14.000    mass and valenz                      
   RCORE  =    2.200    outmost cutoff radius                                   
   RWIGS  =    2.200; RWIGS  =    1.164    wigner-seitz radius (au A)           
   ENMAX  =  293.238; ENMIN  =  219.928 eV                                      
   ICORE  =        3    local potential                                         
   LCOR   =        T    correct aug charges                                     
   LPAW   =        T    paw PP                                                  
   EAUG   =  578.342                                                            
   DEXC   =    0.000                                                            
   RMAX   =    2.249    core radius for proj-oper                               
   RAUG   =    1.300    factor for augmentation sphere                          
   RDEP   =    2.296    radius for radial grids                                 
   RDEPT  =    1.766    core radius for aug-charge                              
                                                                                
   Atomic configuration                                                         
    8 entries                                                                   
     n  l   j            E        occ.                                          
     1  0  0.50     -6993.8440   2.0000                                         
     2  0  0.50      -814.6047   2.0000                                         
     2  1  1.50      -693.3689   6.0000                                         
     3  0  0.50       -89.4732   2.0000                                         
     3  1  1.50       -55.6373   6.0000                                         
     3  2  2.50        -3.8151   7.0000                                         
     4  0  0.50        -4.2551   1.0000                                         
     4  3  2.50        -1.3606   0.0000                                         
   Description                                                                  
     l       E           TYP  RCUT    TYP  RCUT                                 
     1    -55.6372668     23  2.000                                             
     1     -5.4423304     23  2.000                                             
     2     -3.8151096     23  2.200                                             
     2     -5.1756922     23  2.200                                             
     0     -4.2550951     23  2.200                                             
     0     27.2116520     23  2.200                                             
     3     -1.3605826     23  2.200                                             
  local pseudopotential read in
  partial core-charges read in
  partial kinetic energy density read in
  atomic valenz-charges read in
  non local Contribution for L=           1  read in
    real space projection operators read in
  non local Contribution for L=           1  read in
    real space projection operators read in
  non local Contribution for L=           2  read in
    real space projection operators read in
  non local Contribution for L=           2  read in
    real space projection operators read in
  non local Contribution for L=           0  read in
    real space projection operators read in
  non local Contribution for L=           0  read in
    real space projection operators read in
    PAW grid and wavefunctions read in
 
   number of l-projection  operators is LMAX  =           6
   number of lm-projection operators is LMMAX =          18
 

 ----------------------------------------------------------------------------- 
|                                                                             |
|  ADVICE TO THIS USER RUNNING 'VASP/VAMP'   (HEAR YOUR MASTER'S VOICE ...):  |
|                                                                             |
|      You have a (more or less) 'large supercell' and for larger cells       |
|      it might be more efficient to use real space projection opertators     |
|      So try LREAL= Auto  in the INCAR   file.                               |
|      Mind:          For very  accurate calculation you might also keep the  |
|      reciprocal projection scheme          (i.e. LREAL=.FALSE.)             |
|                                                                             |
 ----------------------------------------------------------------------------- 


 ----------------------------------------------------------------------------- 
|                                                                             |
|  ADVICE TO THIS USER RUNNING 'VASP/VAMP'   (HEAR YOUR MASTER'S VOICE ...):  |
|                                                                             |
|      You enforced a specific xc-type in the INCAR file,                     |
|      a different type was found on the POTCAR file                          |
|          I HOPE YOU KNOW, WHAT YOU ARE  DOING                               |
|                                                                             |
 ----------------------------------------------------------------------------- 

  PAW_PBE S 06Sep2000                   :
 energy of atom  1       EATOM= -276.8230
 kinetic energy error for atom=    0.0007 (will be added to EATOM!!)
   PAW_PBE Cu_pv 06Sep2000              :
 energy of atom  2       EATOM=-4120.1201
 kinetic energy error for atom=    0.0094 (will be added to EATOM!!)
   PAW_PBE Fe_pv 02Aug2007              :
 energy of atom  3       EATOM=-2457.4239
 kinetic energy error for atom=    0.0025 (will be added to EATOM!!)
 
 
 POSCAR: Fe16 Cu16 S32                           
  positions in direct lattice
  No initial velocities read in
 exchange correlation table for  LEXCH =       14
   RHO(1)=    0.500       N(1)  =     2000
   RHO(2)=  100.500       N(2)  =     4000
 


--------------------------------------------------------------------------------------------------------


 ion  position               nearest neighbor table
   1  0.126  0.125  0.123-  37 2.26  41 2.27  61 2.27  49 2.28
   2  0.626  0.125  0.123-  38 2.26  42 2.27  62 2.27  50 2.28
   3  0.126  0.625  0.123-  39 2.26  43 2.27  63 2.27  51 2.28
   4  0.626  0.625  0.123-  40 2.26  44 2.27  64 2.27  52 2.28
   5  0.374  0.375  0.123-  39 2.26  41 2.27  62 2.27  52 2.28
   6  0.874  0.375  0.123-  40 2.26  42 2.27  61 2.27  51 2.28
   7  0.374  0.875  0.123-  37 2.26  43 2.27  64 2.27  50 2.28
   8  0.874  0.875  0.123-  38 2.26  44 2.27  63 2.27  49 2.28
   9  0.125  0.374  0.873-  41 2.26  45 2.27  51 2.27  55 2.28
  10  0.625  0.374  0.873-  42 2.26  46 2.27  52 2.27  56 2.28
  11  0.125  0.874  0.873-  43 2.26  47 2.27  49 2.27  53 2.28
  12  0.625  0.874  0.873-  44 2.26  48 2.27  50 2.27  54 2.28
  13  0.375  0.126  0.873-  41 2.26  46 2.27  50 2.27  53 2.28
  14  0.875  0.126  0.873-  42 2.26  45 2.27  49 2.27  54 2.28
  15  0.375  0.626  0.873-  43 2.26  48 2.27  52 2.27  55 2.28
  16  0.875  0.626  0.873-  44 2.26  47 2.27  51 2.27  56 2.28
  17  0.124  0.125  0.623-  45 2.26  33 2.27  53 2.27  57 2.28
  18  0.624  0.125  0.623-  46 2.26  34 2.27  54 2.27  58 2.28
  19  0.124  0.625  0.623-  47 2.26  35 2.27  55 2.27  59 2.28
  20  0.624  0.625  0.623-  48 2.26  36 2.27  56 2.27  60 2.28
  21  0.376  0.375  0.623-  46 2.26  36 2.27  55 2.27  57 2.28
  22  0.876  0.375  0.623-  45 2.26  35 2.27  56 2.27  58 2.28
  23  0.376  0.875  0.623-  48 2.26  34 2.27  53 2.27  59 2.28
  24  0.876  0.875  0.623-  47 2.26  33 2.27  54 2.27  60 2.28
  25  0.375  0.124  0.373-  34 2.26  37 2.27  57 2.27  62 2.28
  26  0.875  0.124  0.373-  33 2.26  38 2.27  58 2.27  61 2.28
  27  0.375  0.624  0.373-  36 2.26  39 2.27  59 2.27  64 2.28
  28  0.875  0.624  0.373-  35 2.26  40 2.27  60 2.27  63 2.28
  29  0.125  0.376  0.373-  35 2.26  39 2.27  57 2.27  61 2.28
  30  0.625  0.376  0.373-  36 2.26  40 2.27  58 2.27  62 2.28
  31  0.125  0.876  0.373-  33 2.26  37 2.27  59 2.27  63 2.28
  32  0.625  0.876  0.373-  34 2.26  38 2.27  60 2.27  64 2.28
  33  0.000  0.000  0.501-  26 2.26  31 2.26  17 2.27  24 2.27
  34  0.500  0.000  0.501-  25 2.26  32 2.26  18 2.27  23 2.27
  35  0.000  0.500  0.501-  28 2.26  29 2.26  19 2.27  22 2.27
  36  0.500  0.500  0.501-  27 2.26  30 2.26  20 2.27  21 2.27
  37  0.250  0.000  0.251-   1 2.26   7 2.26  25 2.27  31 2.27
  38  0.750  0.000  0.251-   2 2.26   8 2.26  26 2.27  32 2.27
  39  0.250  0.500  0.251-   3 2.26   5 2.26  27 2.27  29 2.27
  40  0.750  0.500  0.251-   4 2.26   6 2.26  28 2.27  30 2.27
  41  0.250  0.250  0.001-   9 2.26  13 2.26   1 2.27   5 2.27
  42  0.750  0.250  0.001-  10 2.26  14 2.26   2 2.27   6 2.27
  43  0.250  0.750  0.001-  11 2.26  15 2.26   3 2.27   7 2.27
  44  0.750  0.750  0.001-  12 2.26  16 2.26   4 2.27   8 2.27
  45  0.000  0.250  0.751-  17 2.26  22 2.26   9 2.27  14 2.27
  46  0.500  0.250  0.751-  18 2.26  21 2.26  10 2.27  13 2.27
  47  0.000  0.750  0.751-  19 2.26  24 2.26  11 2.27  16 2.27
  48  0.500  0.750  0.751-  20 2.26  23 2.26  12 2.27  15 2.27
  49  0.000  0.000  0.002-  11 2.27  14 2.27   1 2.28   8 2.28
  50  0.500  0.000  0.002-  12 2.27  13 2.27   2 2.28   7 2.28
  51  0.000  0.500  0.002-   9 2.27  16 2.27   3 2.28   6 2.28
  52  0.500  0.500  0.002-  10 2.27  15 2.27   4 2.28   5 2.28
  53  0.250  0.000  0.752-  17 2.27  23 2.27  11 2.28  13 2.28
  54  0.750  0.000  0.752-  18 2.27  24 2.27  12 2.28  14 2.28
  55  0.250  0.500  0.752-  19 2.27  21 2.27   9 2.28  15 2.28
  56  0.750  0.500  0.752-  20 2.27  22 2.27  10 2.28  16 2.28
  57  0.250  0.250  0.502-  25 2.27  29 2.27  17 2.28  21 2.28
  58  0.750  0.250  0.502-  26 2.27  30 2.27  18 2.28  22 2.28
  59  0.250  0.750  0.502-  27 2.27  31 2.27  19 2.28  23 2.28
  60  0.750  0.750  0.502-  28 2.27  32 2.27  20 2.28  24 2.28
  61  0.000  0.250  0.252-   1 2.27   6 2.27  26 2.28  29 2.28
  62  0.500  0.250  0.252-   2 2.27   5 2.27  25 2.28  30 2.28
  63  0.000  0.750  0.252-   3 2.27   8 2.27  28 2.28  31 2.28
  64  0.500  0.750  0.252-   4 2.27   7 2.27  27 2.28  32 2.28
 
  LATTYP: Found a base centered orthorhombic cell.
 ALAT       =    14.6282828495
 B/A-ratio  =     1.0318982714
 C/A-ratio  =     0.7123184660
  
  Lattice vectors:
  
 A1 = (  10.5087320000,   0.1649740000,   0.0000000000)
 A2 = (  -0.1649740000, -10.5087320000,   0.0000000000)
 A3 = (   0.0000000000,   0.0000000000, -10.4199960000)


Analysis of symmetry for initial positions (statically):
=====================================================================
 Subroutine PRICEL returns following result:
 
  LATTYP: Found a face centered orthorhombic cell.
 ALAT       =     7.3141414248
 B/A-ratio  =     1.0318982714
 C/A-ratio  =     1.4246369321
  
  Lattice vectors:
  
 A1 = (  -2.6684265000,  -2.6684265000,   5.2099980000)
 A2 = (  -2.5859395000,   2.5859395000,   5.2099980000)
 A3 = (  -5.2543660000,  -0.0824870000,   0.0000000000)
 
   8 primitive cells build up your supercell.
 

 Routine SETGRP: Setting up the symmetry group for a 
 base centered orthorhombic supercell.


 Subroutine GETGRP returns: Found  4 space group operations
 (whereof  2 operations were pure point group operations)
 out of a pool of  8 trial point group operations.


The static configuration has the point symmetry C_2 .
 The point group associated with its full space group is C_2v.


Analysis of symmetry for dynamics (positions and initial velocities):
=====================================================================
 Subroutine PRICEL returns following result:
 
  LATTYP: Found a face centered orthorhombic cell.
 ALAT       =     7.3141414248
 B/A-ratio  =     1.0318982714
 C/A-ratio  =     1.4246369321
  
  Lattice vectors:
  
 A1 = (  -2.6684265000,  -2.6684265000,   5.2099980000)
 A2 = (  -2.5859395000,   2.5859395000,   5.2099980000)
 A3 = (  -5.2543660000,  -0.0824870000,   0.0000000000)
 
   8 primitive cells build up your supercell.
 

 Routine SETGRP: Setting up the symmetry group for a 
 base centered orthorhombic supercell.


 Subroutine GETGRP returns: Found  4 space group operations
 (whereof  2 operations were pure point group operations)
 out of a pool of  8 trial point group operations.


The dynamic configuration has the point symmetry C_2 .
 The point group associated with its full space group is C_2v.


Analysis of structural, dynamic, and magnetic symmetry:
=====================================================================
 Subroutine PRICEL returns following result:
 
  LATTYP: Found a face centered orthorhombic cell.
 ALAT       =     7.3141414248
 B/A-ratio  =     1.0318982714
 C/A-ratio  =     1.4246369321
  
  Lattice vectors:
  
 A1 = (  -2.6684265000,  -2.6684265000,   5.2099980000)
 A2 = (  -2.5859395000,   2.5859395000,   5.2099980000)
 A3 = (  -5.2543660000,  -0.0824870000,   0.0000000000)
 
   8 primitive cells build up your supercell.
 

 Routine SETGRP: Setting up the symmetry group for a 
 base centered orthorhombic supercell.


 Subroutine GETGRP returns: Found  4 space group operations
 (whereof  2 operations were pure point group operations)
 out of a pool of  8 trial point group operations.


The magnetic configuration has the point symmetry C_2 .
 The point group associated with its full space group is C_2v.


 Subroutine INISYM returns: Found  4 space group operations
 (whereof  2 operations are pure point group operations),
 and found     8 'primitive' translations

 
 
 KPOINTS: Automatic mesh                          

Automatic generation of k-mesh.
Space group operators:
 irot       det(A)        alpha          n_x          n_y          n_z        tau_x        tau_y        tau_z
    1     1.000000     0.000000     1.000000     0.000000     0.000000     0.000000     0.000000     0.000000
    2     1.000000   180.000000     0.000000     0.000000     1.000000     0.000000     0.000000     0.000000
    3    -1.000000   180.000000     0.707107     0.707107     0.000000    -0.750000    -0.000000     0.750000
    4    -1.000000   180.000000     0.707107    -0.707107     0.000000    -0.750000    -0.000000     0.750000
 
 Subroutine IBZKPT returns following result:
 ===========================================
 
 Found      6 irreducible k-points:
 
 Following reciprocal coordinates:
            Coordinates               Weight
  0.000000  0.000000  0.000000      1.000000
  0.500000  0.000000  0.000000      2.000000
  0.500000  0.500000  0.000000      1.000000
  0.000000  0.000000  0.500000      1.000000
  0.500000  0.000000  0.500000      2.000000
  0.500000  0.500000  0.500000      1.000000
 
 Following cartesian coordinates:
            Coordinates               Weight
  0.000000  0.000000  0.000000      1.000000
  0.047591 -0.000747  0.000000      2.000000
  0.046844  0.046844  0.000000      1.000000
  0.000000  0.000000  0.047985      1.000000
  0.047591 -0.000747  0.047985      2.000000
  0.046844  0.046844  0.047985      1.000000
 
 
 Subroutine IBZKPT_HF returns following result:
 ==============================================
 
 Found      8 k-points in 1st BZ
 the following      8 k-points will be used (e.g. in the exchange kernel)
 Following reciprocal coordinates:   # in IRBZ
  0.000000  0.000000  0.000000    0.12500000   1 t-inv F
  0.500000  0.000000  0.000000    0.12500000   2 t-inv F
  0.500000  0.500000  0.000000    0.12500000   3 t-inv F
  0.000000  0.000000  0.500000    0.12500000   4 t-inv F
  0.500000  0.000000  0.500000    0.12500000   5 t-inv F
  0.500000  0.500000  0.500000    0.12500000   6 t-inv F
  0.000000 -0.500000  0.000000    0.12500000   2 t-inv F spinflp
  0.000000 -0.500000  0.500000    0.12500000   5 t-inv F spinflp


--------------------------------------------------------------------------------------------------------




 Dimension of arrays:
   k-points           NKPTS =      6   k-points in BZ     NKDIM =      6   number of bands    NBANDS=    512
   number of dos      NEDOS =    301   number of ions     NIONS =     64
   non local maximal  LDIM  =      6   non local SUM 2l+1 LMDIM =     18
   total plane-waves  NPLWV = 829440
   max r-space proj   IRMAX =      1   max aug-charges    IRDMAX=  22911
   dimension x,y,z NGX =    96 NGY =   96 NGZ =   90
   dimension x,y,z NGXF=   192 NGYF=  192 NGZF=  180
   support grid    NGXF=   192 NGYF=  192 NGZF=  180
   ions per type =              32  16  16
   NGX,Y,Z   is equivalent  to a cutoff of  15.19, 15.19, 14.36 a.u.
   NGXF,Y,Z  is equivalent  to a cutoff of  30.37, 30.37, 28.72 a.u.

 SYSTEM =  CuFeS2                                  
 POSCAR =  Fe16 Cu16 S32                           

 Startparameter for this run:
   NWRITE =      2    write-flag & timer
   PREC   = accura    normal or accurate (medium, high low for compatibility)
   ISTART =      1    job   : 0-new  1-cont  2-samecut
   ICHARG =      1    charge: 1-file 2-atom 10-const
   ISPIN  =      2    spin polarized calculation?
   LNONCOLLINEAR =      F non collinear calculations
   LSORBIT =      F    spin-orbit coupling
   INIWAV =      1    electr: 0-lowe 1-rand  2-diag
   LASPH  =      F    aspherical Exc in radial PAW
   METAGGA=      F    non-selfconsistent MetaGGA calc.

 Electronic Relaxation 1
   ENCUT  =  700.0 eV  51.45 Ry    7.17 a.u.  22.67 22.67 22.48*2*pi/ulx,y,z
   ENINI  =  700.0     initial cutoff
   ENAUG  =  758.2 eV  augmentation charge cutoff
   NELM   =    500;   NELMIN=  2; NELMDL=  0     # of ELM steps 
   EDIFF  = 0.1E-07   stopping-criterion for ELM
   LREAL  =      F    real-space projection
   NLSPLINE    = F    spline interpolate recip. space projectors
   LCOMPAT=      F    compatible to vasp.4.4
   GGA_COMPAT  = T    GGA compatible to vasp.4.4-vasp.4.6
   LMAXPAW     = -100 max onsite density
   LMAXMIX     =    4 max onsite mixed and CHGCAR
   VOSKOWN=      0    Vosko Wilk Nusair interpolation
   ROPT   =    0.00000   0.00000   0.00000
 Ionic relaxation
   EDIFFG = -.1E-04   stopping-criterion for IOM
   NSW    =      0    number of steps for IOM
   NBLOCK =      1;   KBLOCK =      1    inner block; outer block 
   IBRION =     -1    ionic relax: 0-MD 1-quasi-New 2-CG
   NFREE  =      0    steps in history (QN), initial steepest desc. (CG)
   ISIF   =      2    stress and relaxation
   IWAVPR =     10    prediction:  0-non 1-charg 2-wave 3-comb
   ISYM   =      2    0-nonsym 1-usesym 2-fastsym
   LCORR  =      T    Harris-Foulkes like correction to forces

   POTIM  = 0.5000    time-step for ionic-motion
   TEIN   =    0.0    initial temperature
   TEBEG  =    0.0;   TEEND  =   0.0 temperature during run
   SMASS  =  -3.00    Nose mass-parameter (am)
   estimated Nose-frequenzy (Omega)   =  0.10E-29 period in steps =****** mass=  -0.252E-26a.u.
   SCALEE = 1.0000    scale energy and forces
   NPACO  =    256;   APACO  = 16.0  distance and # of slots for P.C.
   PSTRESS=    0.0 pullay stress

  Mass of Ions in am
   POMASS =  32.07 63.55 55.85
  Ionic Valenz
   ZVAL   =   6.00 17.00 14.00
  Atomic Wigner-Seitz radii
   RWIGS  =  -1.00 -1.00 -1.00
  virtual crystal weights 
   VCA    =   1.00  1.00  1.00
   NELECT =     688.0000    total number of electrons
   NUPDOWN=      -1.0000    fix difference up-down

 DOS related values:
   EMIN   =  10.00;   EMAX   =-10.00  energy-range for DOS
   EFERMI =   0.00
   ISMEAR =     0;   SIGMA  =   0.03  broadening in eV -4-tet -1-fermi 0-gaus

 Electronic relaxation 2 (details)
   IALGO  =     38    algorithm
   LDIAG  =      T    sub-space diagonalisation (order eigenvalues)
   LSUBROT=      F    optimize rotation matrix (better conditioning)
   TURBO    =      0    0=normal 1=particle mesh
   IRESTART =      0    0=no restart 2=restart with 2 vectors
   NREBOOT  =      0    no. of reboots
   NMIN     =      0    reboot dimension
   EREF     =   0.00    reference energy to select bands
   IMIX   =      4    mixing-type and parameters
     AMIX     =   0.40;   BMIX     =  1.00
     AMIX_MAG =   1.60;   BMIX_MAG =  1.00
     AMIN     =   0.10
     WC   =   100.;   INIMIX=   1;  MIXPRE=   1;  MAXMIX= -45

 Intra band minimization:
   WEIMIN = 0.0000     energy-eigenvalue tresh-hold
   EBREAK =  0.49E-11  absolut break condition
   DEPER  =   0.30     relativ break condition  

   TIME   =   0.40     timestep for ELM

  volume/ion in A,a.u.               =      17.98       121.30
  Fermi-wavevector in a.u.,A,eV,Ry     =   1.379274  2.606450 25.883685  1.902397
  Thomas-Fermi vector in A             =   2.504259
 
 Write flags
   LWAVE        =      T    write WAVECAR
   LDOWNSAMPLE  =      F    k-point downsampling of WAVECAR
   LCHARG       =      T    write CHGCAR
   LVTOT        =      F    write LOCPOT, total local potential
   LVHAR        =      F    write LOCPOT, Hartree potential only
   LELF         =      F    write electronic localiz. function (ELF)
   LORBIT       =     11    0 simple, 1 ext, 2 COOP (PROOUT), +10 PAW based schemes


 Dipole corrections
   LMONO  =      F    monopole corrections only (constant potential shift)
   LDIPOL =      F    correct potential (dipole corrections)
   IDIPOL =      0    1-x, 2-y, 3-z, 4-all directions 
   EPSILON=  1.0000000 bulk dielectric constant

 LDA+U is selected, type is set to LDAUTYPE =  2
   angular momentum for each species LDAUL =     2    2    2
   U (eV)           for each species LDAUU =   0.0  0.1  4.7
   J (eV)           for each species LDAUJ =   0.0  0.0  0.0
 Exchange correlation treatment:
   GGA     =    PS    GGA type
   LEXCH   =    14    internal setting for exchange type
   VOSKOWN=      0    Vosko Wilk Nusair interpolation
   LHFCALC =     F    Hartree Fock is set to
   LHFONE  =     F    Hartree Fock one center treatment
   AEXX    =    0.0000 exact exchange contribution

 Linear response parameters
   LEPSILON=     F    determine dielectric tensor
   LRPA    =     F    only Hartree local field effects (RPA)
   LNABLA  =     F    use nabla operator in PAW spheres
   LVEL    =     F    velocity operator in full k-point grid
   LINTERFAST=   F  fast interpolation
   KINTER  =     0    interpolate to denser k-point grid
   CSHIFT  =0.1000    complex shift for real part using Kramers Kronig
   OMEGAMAX=  -1.0    maximum frequency
   DEG_THRESHOLD= 0.2000000E-02 threshold for treating states as degnerate
   RTIME   =   -0.100 relaxation time in fs
  (WPLASMAI=    0.000 imaginary part of plasma frequency in eV, 0.658/RTIME)
   DFIELD  = 0.0000000 0.0000000 0.0000000 field for delta impulse in time
 
 Orbital magnetization related:
   ORBITALMAG=     F  switch on orbital magnetization
   LCHIMAG   =     F  perturbation theory with respect to B field
   DQ        =  0.001000  dq finite difference perturbation B field
   LLRAUG    =     F  two centre corrections for induced B field

 PEAD related settings:
   LPEAD      =     T    switch on PEAD
   IPEAD      =     4    finite difference order for dpsi/dk
   LCALCPOL   =     T    calculate macroscopic polarization
   LCALCEPS   =     F    calculate dielectric tensor
   EFIELD_PEAD=    0.0000    0.0000    0.0000
   SKIP_EDOTP =     F
   LRPA       =     F
   SKIP_SCF   =     F


--------------------------------------------------------------------------------------------------------


 Static calculation
 charge density and potential will be updated during run
 spin polarized calculation
 Variant of blocked Davidson
 Davidson routine will perform the subspace rotation
 perform sub-space diagonalisation
    after iterative eigenvector-optimisation
 modified Broyden-mixing scheme, WC =      100.0
 initial mixing is a Kerker type mixing with AMIX =  0.4000 and BMIX =      1.0000
 Hartree-type preconditioning will be used
 using additional bands          168
 reciprocal scheme for non local part
 use partial core corrections
 calculate Harris-corrections to forces 
   (improved forces if not selfconsistent)
 use gradient corrections 
 use of overlap-Matrix (Vanderbilt PP)
 Gauss-broadening in eV      SIGMA  =   0.03


--------------------------------------------------------------------------------------------------------


  energy-cutoff  :      700.00
  volume of cell :     1150.43
      direct lattice vectors                 reciprocal lattice vectors
    10.508732000  0.164974000  0.000000000     0.095182417 -0.001494245  0.000000000
     0.164974000 10.508732000  0.000000000    -0.001494245  0.095182417  0.000000000
     0.000000000  0.000000000 10.419996000     0.000000000  0.000000000  0.095969327

  length of vectors
    10.510026863 10.510026863 10.419996000     0.095194145  0.095194145  0.095969327


 
 old parameters found on file WAVECAR:
  energy-cutoff  :      700.00
  volume of cell :     1150.43
      direct lattice vectors                 reciprocal lattice vectors
    10.508732000  0.164974000  0.000000000     0.095182417 -0.001494245  0.000000000
     0.164974000 10.508732000  0.000000000    -0.001494245  0.095182417  0.000000000
     0.000000000  0.000000000 10.419996000     0.000000000  0.000000000  0.095969327

  length of vectors

 
 k-points in units of 2pi/SCALE and weight: Automatic mesh                          
   0.00000000  0.00000000  0.00000000       0.125
   0.04759121 -0.00074712  0.00000000       0.250
   0.04684409  0.04684409  0.00000000       0.125
   0.00000000  0.00000000  0.04798466       0.125
   0.04759121 -0.00074712  0.04798466       0.250
   0.04684409  0.04684409  0.04798466       0.125
 
 k-points in reciprocal lattice and weights: Automatic mesh                          
   0.00000000  0.00000000  0.00000000       0.125
   0.50000000  0.00000000  0.00000000       0.250
   0.50000000  0.50000000  0.00000000       0.125
   0.00000000  0.00000000  0.50000000       0.125
   0.50000000  0.00000000  0.50000000       0.250
   0.50000000  0.50000000  0.50000000       0.125
 
 position of ions in fractional coordinates (direct lattice) 
   0.12614700  0.12520000  0.12324800
   0.62614700  0.12520000  0.12324800
   0.12614700  0.62520000  0.12324800
   0.62614700  0.62520000  0.12324800
   0.37385300  0.37480000  0.12324800
   0.87385300  0.37480000  0.12324800
   0.37385300  0.87480000  0.12324800
   0.87385300  0.87480000  0.12324800
   0.12480000  0.37385300  0.87324800
   0.62480000  0.37385300  0.87324800
   0.12480000  0.87385300  0.87324800
   0.62480000  0.87385300  0.87324800
   0.37520000  0.12614700  0.87324800
   0.87520000  0.12614700  0.87324800
   0.37520000  0.62614700  0.87324800
   0.87520000  0.62614700  0.87324800
   0.12385300  0.12480000  0.62324800
   0.62385300  0.12480000  0.62324800
   0.12385300  0.62480000  0.62324800
   0.62385300  0.62480000  0.62324800
   0.37614700  0.37520000  0.62324800
   0.87614700  0.37520000  0.62324800
   0.37614700  0.87520000  0.62324800
   0.87614700  0.87520000  0.62324800
   0.37480000  0.12385300  0.37324800
   0.87480000  0.12385300  0.37324800
   0.37480000  0.62385300  0.37324800
   0.87480000  0.62385300  0.37324800
   0.12520000  0.37614700  0.37324800
   0.62520000  0.37614700  0.37324800
   0.12520000  0.87614700  0.37324800
   0.62520000  0.87614700  0.37324800
   0.00000000  0.00000000  0.50149200
   0.50000000  0.00000000  0.50149200
   0.00000000  0.50000000  0.50149200
   0.50000000  0.50000000  0.50149200
   0.25000000  0.00000000  0.25149200
   0.75000000  0.00000000  0.25149200
   0.25000000  0.50000000  0.25149200
   0.75000000  0.50000000  0.25149200
   0.25000000  0.25000000  0.00149200
   0.75000000  0.25000000  0.00149200
   0.25000000  0.75000000  0.00149200
   0.75000000  0.75000000  0.00149200
   0.00000000  0.25000000  0.75149200
   0.50000000  0.25000000  0.75149200
   0.00000000  0.75000000  0.75149200
   0.50000000  0.75000000  0.75149200
   0.00000000  0.00000000  0.00201100
   0.50000000  0.00000000  0.00201100
   0.00000000  0.50000000  0.00201100
   0.50000000  0.50000000  0.00201100
   0.25000000  0.00000000  0.75201100
   0.75000000  0.00000000  0.75201100
   0.25000000  0.50000000  0.75201100
   0.75000000  0.50000000  0.75201100
   0.25000000  0.25000000  0.50201100
   0.75000000  0.25000000  0.50201100
   0.25000000  0.75000000  0.50201100
   0.75000000  0.75000000  0.50201100
   0.00000000  0.25000000  0.25201100
   0.50000000  0.25000000  0.25201100
   0.00000000  0.75000000  0.25201100
   0.50000000  0.75000000  0.25201100
 
 position of ions in cartesian coordinates  (Angst):
   1.34629976  1.33650422  1.28424367
   6.60066576  1.41899122  1.28424367
   1.42878676  6.59087022  1.28424367
   6.68315276  6.67335722  1.28424367
   3.99055324  4.00034878  1.28424367
   9.24491924  4.08283578  1.28424367
   4.07304024  9.25471478  1.28424367
   9.32740624  9.33720178  1.28424367
   1.37316578  3.94930974  9.09924067
   6.62753178  4.03179674  9.09924067
   1.45565278  9.20367574  9.09924067
   6.71001878  9.28616274  9.09924067
   3.96368722  1.38754326  9.09924067
   9.21805322  1.47003026  9.09924067
   4.04617422  6.64190926  9.09924067
   9.30054022  6.72439626  9.09924067
   1.32212674  1.33192228  6.49424167
   6.57649274  1.41440928  6.49424167
   1.40461374  6.58628828  6.49424167
   6.65897974  6.66877528  6.49424167
   4.01472626  4.00493072  6.49424167
   9.26909226  4.08741772  6.49424167
   4.09721326  9.25929672  6.49424167
   9.35157926  9.34178372  6.49424167
   3.95910528  1.36337024  3.88924267
   9.21347128  1.44585724  3.88924267
   4.04159228  6.61773624  3.88924267
   9.29595828  6.70022324  3.88924267
   1.37774772  3.97348276  3.88924267
   6.63211372  4.05596976  3.88924267
   1.46023472  9.22784876  3.88924267
   6.71460072  9.31033576  3.88924267
   0.00000000  0.00000000  5.22554463
   5.25436600  0.08248700  5.22554463
   0.08248700  5.25436600  5.22554463
   5.33685300  5.33685300  5.22554463
   2.62718300  0.04124350  2.62054563
   7.88154900  0.12373050  2.62054563
   2.70967000  5.29560950  2.62054563
   7.96403600  5.37809650  2.62054563
   2.66842650  2.66842650  0.01554663
   7.92279250  2.75091350  0.01554663
   2.75091350  7.92279250  0.01554663
   8.00527950  8.00527950  0.01554663
   0.04124350  2.62718300  7.83054363
   5.29560950  2.70967000  7.83054363
   0.12373050  7.88154900  7.83054363
   5.37809650  7.96403600  7.83054363
   0.00000000  0.00000000  0.02095461
   5.25436600  0.08248700  0.02095461
   0.08248700  5.25436600  0.02095461
   5.33685300  5.33685300  0.02095461
   2.62718300  0.04124350  7.83595161
   7.88154900  0.12373050  7.83595161
   2.70967000  5.29560950  7.83595161
   7.96403600  5.37809650  7.83595161
   2.66842650  2.66842650  5.23095261
   7.92279250  2.75091350  5.23095261
   2.75091350  7.92279250  5.23095261
   8.00527950  8.00527950  5.23095261
   0.04124350  2.62718300  2.62595361
   5.29560950  2.70967000  2.62595361
   0.12373050  7.88154900  2.62595361
   5.37809650  7.96403600  2.62595361
 


--------------------------------------------------------------------------------------------------------


 k-point  1 :   0.0000 0.0000 0.0000  plane waves:   48367
 k-point  2 :   0.5000 0.0000 0.0000  plane waves:   48372
 k-point  3 :   0.5000 0.5000 0.0000  plane waves:   48444
 k-point  4 :   0.0000 0.0000 0.5000  plane waves:   48436
 k-point  5 :   0.5000 0.0000 0.5000  plane waves:   48356
 k-point  6 :   0.5000 0.5000 0.5000  plane waves:   48300

 maximum and minimum number of plane-waves per node :     48444    48300

 maximum number of plane-waves:     48444
 maximum index in each direction: 
   IXMAX=   22   IYMAX=   22   IZMAX=   22
   IXMIN=  -23   IYMIN=  -23   IZMIN=  -22


 serial   3D FFT for wavefunctions
 parallel 3D FFT for charge:
    minimum data exchange during FFTs selected (reduces bandwidth)


 total amount of memory used by VASP MPI-rank0   301249. kBytes
=======================================================================

   base      :      30000. kBytes
   nonl-proj :     175882. kBytes
   fftplans  :       4588. kBytes
   grid      :      69719. kBytes
   one-center:       1990. kBytes
   wavefun   :      19070. kBytes
 
     INWAV:  cpu time   11.2651: real time   11.3579
 Broyden mixing: mesh for mixing (old mesh)
   NGX = 45   NGY = 45   NGZ = 45
  (NGX  =192   NGY  =192   NGZ  =180)
  gives a total of  91125 points

 initial charge density was supplied:
 number of electron     688.0000441 magnetization      -0.0000000
 keeping initial charge density in first step


--------------------------------------------------------------------------------------------------------


 Maximum index for augmentation-charges          897 (set IRDMAX)


--------------------------------------------------------------------------------------------------------


 First call to EWALD:  gamma=   0.169
 Maximum number of real-space cells 3x 3x 3
 Maximum number of reciprocal cells 3x 3x 3

    FEWALD:  cpu time    0.0038: real time    0.0043


--------------------------------------- Iteration      1(   1)  ---------------------------------------


    POTLOK:  cpu time    0.3484: real time    0.4201
    SETDIJ:  cpu time    0.0148: real time    0.0150
     EDDAV:  cpu time  141.4031: real time  142.4002
       DOS:  cpu time    0.0017: real time    0.0018
    CHARGE:  cpu time    1.1847: real time    1.1932
    MIXING:  cpu time    0.0059: real time    0.0060
    --------------------------------------------
      LOOP:  cpu time  142.9587: real time  144.0362

 eigenvalue-minimisations  : 18944
 total energy-change (2. order) :-0.2984744E+03  (-0.1761184E+03)
 number of electron     688.0000443 magnetization      -0.0000000
 augmentation part      283.1617161 magnetization      -0.0000000

 Broyden mixing:
  rms(total) = 0.41574E+01    rms(broyden)= 0.41574E+01
  rms(prec ) = 0.41591E+01
  weight for this iteration     100.00

 Free energy of the ion-electron system (eV)
  ---------------------------------------------------
  alpha Z        PSCENC =      2356.63592519
  Ewald energy   TEWEN  =    -62476.26449675
  -Hartree energ DENC   =    -42959.92170632
  -exchange      EXHF   =         0.00000000
  -V(xc)+E(xc)   XCENC  =      3287.10553193
  PAW double counting   =    112314.63605812  -116007.36035438
  entropy T*S    EENTRO =        -0.00000000
  eigenvalues    EBANDS =    -10833.37042848
  atomic energy  EATOM  =    114020.06510763
  Solvation  Ediel_sol  =         0.00000000
  ---------------------------------------------------
  free energy    TOTEN  =      -298.47436307 eV

  energy without entropy =     -298.47436307  energy(sigma->0) =     -298.47436307


--------------------------------------------------------------------------------------------------------




--------------------------------------- Iteration      1(   2)  ---------------------------------------


    POTLOK:  cpu time    0.1411: real time    0.1443
    SETDIJ:  cpu time    0.0131: real time    0.0132
     EDDAV:  cpu time   77.9945: real time   78.5742
       DOS:  cpu time    0.0008: real time    0.0008
    CHARGE:  cpu time    1.1825: real time    1.1909
    MIXING:  cpu time    0.0049: real time    0.0550
    --------------------------------------------
      LOOP:  cpu time   79.3369: real time   79.9785

 eigenvalue-minimisations  : 13568
 total energy-change (2. order) :-0.2924414E+02  (-0.2932076E+02)
 number of electron     688.0000441 magnetization      -0.0000000
 augmentation part      281.4586557 magnetization      -0.0000000

 Broyden mixing:
  rms(total) = 0.16911E+01    rms(broyden)= 0.16911E+01
  rms(prec ) = 0.17069E+01
  weight for this iteration     100.00

 eigenvalues of (default mixing * dielectric matrix)
  average eigenvalue GAMMA=   0.7002
  0.7002

 Free energy of the ion-electron system (eV)
  ---------------------------------------------------
  alpha Z        PSCENC =      2356.63592519
  Ewald energy   TEWEN  =    -62476.26449675
  -Hartree energ DENC   =    -42972.31133424
  -exchange      EXHF   =         0.00000000
  -V(xc)+E(xc)   XCENC  =      3287.44781384
  PAW double counting   =    115878.92837744  -119588.57346456
  entropy T*S    EENTRO =        -0.00000000
  eigenvalues    EBANDS =    -10833.64643216
  atomic energy  EATOM  =    114020.06510763
  Solvation  Ediel_sol  =         0.00000000
  ---------------------------------------------------
  free energy    TOTEN  =      -327.71850362 eV

  energy without entropy =     -327.71850362  energy(sigma->0) =     -327.71850362


--------------------------------------------------------------------------------------------------------




--------------------------------------- Iteration      1(   3)  ---------------------------------------


    POTLOK:  cpu time    0.1412: real time    0.1422
    SETDIJ:  cpu time    0.0132: real time    0.0133
     EDDAV:  cpu time  144.1789: real time  145.1504
       DOS:  cpu time    0.0008: real time    0.0008
    CHARGE:  cpu time    1.1854: real time    1.1934
    MIXING:  cpu time    0.0017: real time    0.0142
    --------------------------------------------
      LOOP:  cpu time  145.5212: real time  146.5143

 eigenvalue-minimisations  : 19456
 total energy-change (2. order) :-0.3229412E+00  (-0.5385572E+00)
 number of electron     688.0000442 magnetization      -0.0000000
 augmentation part      282.3342967 magnetization      -0.0000000

 Broyden mixing:
  rms(total) = 0.12683E+01    rms(broyden)= 0.12683E+01
  rms(prec ) = 0.12843E+01
  weight for this iteration     100.00

 eigenvalues of (default mixing * dielectric matrix)
  average eigenvalue GAMMA=   0.5069
  0.5069  0.5069

 Free energy of the ion-electron system (eV)
  ---------------------------------------------------
  alpha Z        PSCENC =      2356.63592519
  Ewald energy   TEWEN  =    -62476.26449675
  -Hartree energ DENC   =    -42936.26503173
  -exchange      EXHF   =         0.00000000
  -V(xc)+E(xc)   XCENC  =      3286.76752173
  PAW double counting   =    114881.13536377  -118581.07199377
  entropy T*S    EENTRO =        -0.00000000
  eigenvalues    EBANDS =    -10879.04384083
  atomic energy  EATOM  =    114020.06510763
  Solvation  Ediel_sol  =         0.00000000
  ---------------------------------------------------
  free energy    TOTEN  =      -328.04144478 eV

  energy without entropy =     -328.04144478  energy(sigma->0) =     -328.04144478


--------------------------------------------------------------------------------------------------------




--------------------------------------- Iteration      1(   4)  ---------------------------------------


    POTLOK:  cpu time    0.1447: real time    0.1457
    SETDIJ:  cpu time    0.0131: real time    0.0132
     EDDAV:  cpu time   89.7130: real time   90.3619
       DOS:  cpu time    0.0008: real time    0.0008
    CHARGE:  cpu time    1.4743: real time    1.4828
    MIXING:  cpu time    0.0017: real time    0.0028
    --------------------------------------------
      LOOP:  cpu time   91.3477: real time   92.0073

 eigenvalue-minimisations  : 14336
 total energy-change (2. order) : 0.2037741E-01  (-0.6860173E-01)
 number of electron     688.0000442 magnetization      -0.0000000
 augmentation part      282.1807965 magnetization      -0.0000000

 Broyden mixing:
  rms(total) = 0.10576E+01    rms(broyden)= 0.10576E+01
  rms(prec ) = 0.10586E+01
  weight for this iteration     100.00

 eigenvalues of (default mixing * dielectric matrix)
  average eigenvalue GAMMA=   0.5323
  0.6264  0.6264  0.3441

 Free energy of the ion-electron system (eV)
  ---------------------------------------------------
  alpha Z        PSCENC =      2356.63592519
  Ewald energy   TEWEN  =    -62476.26449675
  -Hartree energ DENC   =    -42937.38742282
  -exchange      EXHF   =         0.00000000
  -V(xc)+E(xc)   XCENC  =      3286.40558223
  PAW double counting   =    114580.39947163  -118280.98095174
  entropy T*S    EENTRO =        -0.00000000
  eigenvalues    EBANDS =    -10876.89428272
  atomic energy  EATOM  =    114020.06510763
  Solvation  Ediel_sol  =         0.00000000
  ---------------------------------------------------
  free energy    TOTEN  =      -328.02106737 eV

  energy without entropy =     -328.02106737  energy(sigma->0) =     -328.02106737


--------------------------------------------------------------------------------------------------------




--------------------------------------- Iteration      1(   5)  ---------------------------------------


    POTLOK:  cpu time    0.1538: real time    0.1552
    SETDIJ:  cpu time    0.0156: real time    0.0157
     EDDAV:  cpu time   97.1224: real time   97.8195
       DOS:  cpu time    0.0008: real time    0.0008
    CHARGE:  cpu time    1.1833: real time    1.1904
    MIXING:  cpu time    0.0015: real time    0.0015
    --------------------------------------------
      LOOP:  cpu time   98.4775: real time   99.1832

 eigenvalue-minimisations  : 15104
 total energy-change (2. order) :-0.2401429E-03  (-0.4296063E-02)
 number of electron     688.0000442 magnetization      -0.0000000
 augmentation part      282.1169748 magnetization      -0.0000000

 Broyden mixing:
  rms(total) = 0.91210E+00    rms(broyden)= 0.91210E+00
  rms(prec ) = 0.91235E+00
  weight for this iteration     100.00

 eigenvalues of (default mixing * dielectric matrix)
  average eigenvalue GAMMA=   0.5687
  0.7825  0.7825  0.3549  0.3549

 Free energy of the ion-electron system (eV)
  ---------------------------------------------------
  alpha Z        PSCENC =      2356.63592519
  Ewald energy   TEWEN  =    -62476.26449675
  -Hartree energ DENC   =    -42945.35221533
  -exchange      EXHF   =         0.00000000
  -V(xc)+E(xc)   XCENC  =      3286.61876756
  PAW double counting   =    114232.31179366  -117932.58084234
  entropy T*S    EENTRO =        -0.00000000
  eigenvalues    EBANDS =    -10869.45534712
  atomic energy  EATOM  =    114020.06510763
  Solvation  Ediel_sol  =         0.00000000
  ---------------------------------------------------
  free energy    TOTEN  =      -328.02130751 eV

  energy without entropy =     -328.02130751  energy(sigma->0) =     -328.02130751


--------------------------------------------------------------------------------------------------------




--------------------------------------- Iteration      1(   6)  ---------------------------------------


    POTLOK:  cpu time    0.1428: real time    0.1437
    SETDIJ:  cpu time    0.0131: real time    0.0132
     EDDAV:  cpu time  109.9862: real time  110.7534
       DOS:  cpu time    0.0008: real time    0.0008
    CHARGE:  cpu time    1.1855: real time    1.1926
    MIXING:  cpu time    0.0016: real time    0.0016
    --------------------------------------------
      LOOP:  cpu time  111.3300: real time  112.1054

 eigenvalue-minimisations  : 16128
 total energy-change (2. order) : 0.4187145E-03  (-0.3517851E-03)
 number of electron     688.0000442 magnetization      -0.0000000
 augmentation part      282.1095512 magnetization      -0.0000000

 Broyden mixing:
  rms(total) = 0.73526E+00    rms(broyden)= 0.73526E+00
  rms(prec ) = 0.73568E+00
  weight for this iteration     100.00

 eigenvalues of (default mixing * dielectric matrix)
  average eigenvalue GAMMA=   0.8249
  1.3484  1.3484  0.5487  0.5487  0.3304

 Free energy of the ion-electron system (eV)
  ---------------------------------------------------
  alpha Z        PSCENC =      2356.63592519
  Ewald energy   TEWEN  =    -62476.26449675
  -Hartree energ DENC   =    -42946.84262068
  -exchange      EXHF   =         0.00000000
  -V(xc)+E(xc)   XCENC  =      3286.60109915
  PAW double counting   =    113826.25681126  -117525.19672458
  entropy T*S    EENTRO =        -0.00000000
  eigenvalues    EBANDS =    -10869.27599000
  atomic energy  EATOM  =    114020.06510763
  Solvation  Ediel_sol  =         0.00000000
  ---------------------------------------------------
  free energy    TOTEN  =      -328.02088879 eV

  energy without entropy =     -328.02088879  energy(sigma->0) =     -328.02088879


--------------------------------------------------------------------------------------------------------




--------------------------------------- Iteration      1(   7)  ---------------------------------------


    POTLOK:  cpu time    0.1394: real time    0.1434
    SETDIJ:  cpu time    0.0132: real time    0.0132
     EDDAV:  cpu time  109.7742: real time  110.5322
       DOS:  cpu time    0.0008: real time    0.0008
    CHARGE:  cpu time    1.1835: real time    1.1917
    MIXING:  cpu time    0.0016: real time    0.0016
    --------------------------------------------
      LOOP:  cpu time  111.1126: real time  111.8830

 eigenvalue-minimisations  : 15872
 total energy-change (2. order) : 0.2240399E-02  (-0.8334660E-03)
 number of electron     688.0000442 magnetization      -0.0000000
 augmentation part      282.2155508 magnetization      -0.0000000

 Broyden mixing:
  rms(total) = 0.13456E+00    rms(broyden)= 0.13456E+00
  rms(prec ) = 0.13477E+00
  weight for this iteration     100.00

 eigenvalues of (default mixing * dielectric matrix)
  average eigenvalue GAMMA=   0.8711
  1.5519  1.5519  0.6114  0.6114  0.5617  0.3383

 Free energy of the ion-electron system (eV)
  ---------------------------------------------------
  alpha Z        PSCENC =      2356.63592519
  Ewald energy   TEWEN  =    -62476.26449675
  -Hartree energ DENC   =    -42947.93890228
  -exchange      EXHF   =         0.00000000
  -V(xc)+E(xc)   XCENC  =      3286.51690791
  PAW double counting   =    112482.70580665  -116176.81012403
  entropy T*S    EENTRO =        -0.00000000
  eigenvalues    EBANDS =    -10872.92887271
  atomic energy  EATOM  =    114020.06510763
  Solvation  Ediel_sol  =         0.00000000
  ---------------------------------------------------
  free energy    TOTEN  =      -328.01864839 eV

  energy without entropy =     -328.01864839  energy(sigma->0) =     -328.01864839


--------------------------------------------------------------------------------------------------------




--------------------------------------- Iteration      1(   8)  ---------------------------------------


    POTLOK:  cpu time    0.1424: real time    0.1433
    SETDIJ:  cpu time    0.0133: real time    0.0133
     EDDAV:  cpu time   89.3735: real time   90.0165
       DOS:  cpu time    0.0008: real time    0.0008
    CHARGE:  cpu time    1.1826: real time    1.1909
    MIXING:  cpu time    0.0016: real time    0.0016
    --------------------------------------------
      LOOP:  cpu time   90.7141: real time   91.3665

 eigenvalue-minimisations  : 14336
 total energy-change (2. order) :-0.4568628E-04  (-0.3547035E-04)
 number of electron     688.0000442 magnetization      -0.0000000
 augmentation part      282.2069108 magnetization      -0.0000000

 Broyden mixing:
  rms(total) = 0.10292E+00    rms(broyden)= 0.10292E+00
  rms(prec ) = 0.10319E+00
  weight for this iteration     100.00

 eigenvalues of (default mixing * dielectric matrix)
  average eigenvalue GAMMA=   0.7964
  1.5730  1.5730  0.6212  0.6212  0.5165  0.3624  0.3078

 Free energy of the ion-electron system (eV)
  ---------------------------------------------------
  alpha Z        PSCENC =      2356.63592519
  Ewald energy   TEWEN  =    -62476.26449675
  -Hartree energ DENC   =    -42948.54340006
  -exchange      EXHF   =         0.00000000
  -V(xc)+E(xc)   XCENC  =      3286.53078121
  PAW double counting   =    112431.40493916  -116125.52306131
  entropy T*S    EENTRO =        -0.00000000
  eigenvalues    EBANDS =    -10872.32448915
  atomic energy  EATOM  =    114020.06510763
  Solvation  Ediel_sol  =         0.00000000
  ---------------------------------------------------
  free energy    TOTEN  =      -328.01869408 eV

  energy without entropy =     -328.01869408  energy(sigma->0) =     -328.01869408


--------------------------------------------------------------------------------------------------------




--------------------------------------- Iteration      1(   9)  ---------------------------------------


    POTLOK:  cpu time    0.1417: real time    0.1452
    SETDIJ:  cpu time    0.0131: real time    0.0131
     EDDAV:  cpu time  128.7055: real time  129.5830
       DOS:  cpu time    0.0008: real time    0.0008
    CHARGE:  cpu time    1.1820: real time    1.1903
    MIXING:  cpu time    0.0017: real time    0.0017
    --------------------------------------------
      LOOP:  cpu time  130.0448: real time  130.9341

 eigenvalue-minimisations  : 17408
 total energy-change (2. order) : 0.1770537E-04  (-0.3032456E-05)
 number of electron     688.0000442 magnetization      -0.0000000
 augmentation part      282.2081032 magnetization      -0.0000000

 Broyden mixing:
  rms(total) = 0.92459E-01    rms(broyden)= 0.92459E-01
  rms(prec ) = 0.92673E-01
  weight for this iteration     100.00

 eigenvalues of (default mixing * dielectric matrix)
  average eigenvalue GAMMA=   1.1315
  2.4165  2.4165  1.0306  1.0306  0.3358  0.5949  0.5949  0.6323

 Free energy of the ion-electron system (eV)
  ---------------------------------------------------
  alpha Z        PSCENC =      2356.63592519
  Ewald energy   TEWEN  =    -62476.26449675
  -Hartree energ DENC   =    -42948.40636123
  -exchange      EXHF   =         0.00000000
  -V(xc)+E(xc)   XCENC  =      3286.52985544
  PAW double counting   =    112422.12993847  -116116.25927274
  entropy T*S    EENTRO =        -0.00000000
  eigenvalues    EBANDS =    -10872.44937238
  atomic energy  EATOM  =    114020.06510763
  Solvation  Ediel_sol  =         0.00000000
  ---------------------------------------------------
  free energy    TOTEN  =      -328.01867638 eV

  energy without entropy =     -328.01867638  energy(sigma->0) =     -328.01867638


--------------------------------------------------------------------------------------------------------




--------------------------------------- Iteration      1(  10)  ---------------------------------------


    POTLOK:  cpu time    0.1428: real time    0.1438
    SETDIJ:  cpu time    0.0131: real time    0.0131
     EDDAV:  cpu time   83.5532: real time   84.1651
       DOS:  cpu time    0.0008: real time    0.0008
    CHARGE:  cpu time    1.1819: real time    1.1903
    MIXING:  cpu time    0.0018: real time    0.0018
    --------------------------------------------
      LOOP:  cpu time   84.8936: real time   85.5150

 eigenvalue-minimisations  : 13824
 total energy-change (2. order) : 0.4666757E-04  (-0.4344433E-04)
 number of electron     688.0000442 magnetization      -0.0000000
 augmentation part      282.2200202 magnetization      -0.0000000

 Broyden mixing:
  rms(total) = 0.68719E-02    rms(broyden)= 0.68717E-02
  rms(prec ) = 0.68941E-02
  weight for this iteration     100.00

 eigenvalues of (default mixing * dielectric matrix)
  average eigenvalue GAMMA=   1.0531
  2.7329  1.8651  1.2666  0.8806  0.3358  0.7000  0.5839  0.5839  0.5293

 Free energy of the ion-electron system (eV)
  ---------------------------------------------------
  alpha Z        PSCENC =      2356.63592519
  Ewald energy   TEWEN  =    -62476.26449675
  -Hartree energ DENC   =    -42947.91331221
  -exchange      EXHF   =         0.00000000
  -V(xc)+E(xc)   XCENC  =      3286.52082503
  PAW double counting   =    112291.82161169  -115985.72530598
  entropy T*S    EENTRO =        -0.00000000
  eigenvalues    EBANDS =    -10873.15898429
  atomic energy  EATOM  =    114020.06510763
  Solvation  Ediel_sol  =         0.00000000
  ---------------------------------------------------
  free energy    TOTEN  =      -328.01862971 eV

  energy without entropy =     -328.01862971  energy(sigma->0) =     -328.01862971


--------------------------------------------------------------------------------------------------------




--------------------------------------- Iteration      1(  11)  ---------------------------------------


    POTLOK:  cpu time    0.1438: real time    0.1459
    SETDIJ:  cpu time    0.0133: real time    0.0133
     EDDAV:  cpu time  115.8555: real time  116.6495
       DOS:  cpu time    0.0008: real time    0.0008
    CHARGE:  cpu time    1.1809: real time    1.1892
    MIXING:  cpu time    0.0018: real time    0.0019
    --------------------------------------------
      LOOP:  cpu time  117.1962: real time  118.0005

 eigenvalue-minimisations  : 16128
 total energy-change (2. order) :-0.1499386E-05  (-0.1330236E-05)
 number of electron     688.0000442 magnetization       0.0000000
 augmentation part      282.2216486 magnetization       0.0000000

 Broyden mixing:
  rms(total) = 0.13501E-02    rms(broyden)= 0.13500E-02
  rms(prec ) = 0.13799E-02
  weight for this iteration     100.00

 eigenvalues of (default mixing * dielectric matrix)
  average eigenvalue GAMMA=   1.0423
  2.9138  1.5410  1.5410  0.3358  0.7219  0.7219  0.6037  0.6037  0.7203  0.7203

 Free energy of the ion-electron system (eV)
  ---------------------------------------------------
  alpha Z        PSCENC =      2356.63592519
  Ewald energy   TEWEN  =    -62476.26449675
  -Hartree energ DENC   =    -42947.91590896
  -exchange      EXHF   =         0.00000000
  -V(xc)+E(xc)   XCENC  =      3286.51929838
  PAW double counting   =    112278.48807729  -115972.36637242
  entropy T*S    EENTRO =        -0.00000000
  eigenvalues    EBANDS =    -10873.18026156
  atomic energy  EATOM  =    114020.06510763
  Solvation  Ediel_sol  =         0.00000000
  ---------------------------------------------------
  free energy    TOTEN  =      -328.01863121 eV

  energy without entropy =     -328.01863121  energy(sigma->0) =     -328.01863121


--------------------------------------------------------------------------------------------------------




--------------------------------------- Iteration      1(  12)  ---------------------------------------


    POTLOK:  cpu time    0.1424: real time    0.1434
    SETDIJ:  cpu time    0.0129: real time    0.0130
     EDDAV:  cpu time  161.2376: real time  162.3046
       DOS:  cpu time    0.0008: real time    0.0008
    CHARGE:  cpu time    1.1812: real time    1.1893
    MIXING:  cpu time    0.0022: real time    0.0029
    --------------------------------------------
      LOOP:  cpu time  162.5771: real time  163.6540

 eigenvalue-minimisations  : 20736
 total energy-change (2. order) :-0.5166949E-06  (-0.1667971E-06)
 number of electron     688.0000442 magnetization       0.0000000
 augmentation part      282.2217896 magnetization       0.0000000

 Broyden mixing:
  rms(total) = 0.39512E-02    rms(broyden)= 0.39512E-02
  rms(prec ) = 0.39585E-02
  weight for this iteration     100.00

 eigenvalues of (default mixing * dielectric matrix)
  average eigenvalue GAMMA=   1.1380
  3.1311  1.7685  1.7685  1.1275  1.1275  0.3358  0.5970  0.5970  0.7249  0.7249
  0.6152

 Free energy of the ion-electron system (eV)
  ---------------------------------------------------
  alpha Z        PSCENC =      2356.63592519
  Ewald energy   TEWEN  =    -62476.26449675
  -Hartree energ DENC   =    -42947.92884790
  -exchange      EXHF   =         0.00000000
  -V(xc)+E(xc)   XCENC  =      3286.51906875
  PAW double counting   =    112269.53872973  -115963.41025623
  entropy T*S    EENTRO =        -0.00000000
  eigenvalues    EBANDS =    -10873.17386214
  atomic energy  EATOM  =    114020.06510763
  Solvation  Ediel_sol  =         0.00000000
  ---------------------------------------------------
  free energy    TOTEN  =      -328.01863172 eV

  energy without entropy =     -328.01863172  energy(sigma->0) =     -328.01863172


--------------------------------------------------------------------------------------------------------




--------------------------------------- Iteration      1(  13)  ---------------------------------------


    POTLOK:  cpu time    0.1426: real time    0.1436
    SETDIJ:  cpu time    0.0130: real time    0.0130
     EDDAV:  cpu time  118.3709: real time  119.1752
       DOS:  cpu time    0.0008: real time    0.0008
    CHARGE:  cpu time    1.1805: real time    1.1884
    MIXING:  cpu time    0.0019: real time    0.0019
    --------------------------------------------
      LOOP:  cpu time  119.7097: real time  120.5230

 eigenvalue-minimisations  : 16384
 total energy-change (2. order) :-0.1000866E-05  (-0.1916236E-06)
 number of electron     688.0000442 magnetization       0.0000000
 augmentation part      282.2212559 magnetization       0.0000000

 Broyden mixing:
  rms(total) = 0.32789E-02    rms(broyden)= 0.32789E-02
  rms(prec ) = 0.32806E-02
  weight for this iteration     100.00

 eigenvalues of (default mixing * dielectric matrix)
  average eigenvalue GAMMA=   1.1312
  2.9783  1.9559  1.9559  1.1520  1.1520  0.3358  0.8064  0.8064  0.5975  0.5975
  0.6181  0.6181

 Free energy of the ion-electron system (eV)
  ---------------------------------------------------
  alpha Z        PSCENC =      2356.63592519
  Ewald energy   TEWEN  =    -62476.26449675
  -Hartree energ DENC   =    -42947.96358462
  -exchange      EXHF   =         0.00000000
  -V(xc)+E(xc)   XCENC  =      3286.51985943
  PAW double counting   =    112269.63088591  -115963.52532561
  entropy T*S    EENTRO =        -0.00000000
  eigenvalues    EBANDS =    -10873.11700390
  atomic energy  EATOM  =    114020.06510763
  Solvation  Ediel_sol  =         0.00000000
  ---------------------------------------------------
  free energy    TOTEN  =      -328.01863272 eV

  energy without entropy =     -328.01863272  energy(sigma->0) =     -328.01863272


--------------------------------------------------------------------------------------------------------




--------------------------------------- Iteration      1(  14)  ---------------------------------------


    POTLOK:  cpu time    0.1418: real time    0.1429
    SETDIJ:  cpu time    0.0130: real time    0.0131
     EDDAV:  cpu time   86.4476: real time   87.0698
       DOS:  cpu time    0.0008: real time    0.0008
    CHARGE:  cpu time    1.1803: real time    1.1872
    MIXING:  cpu time    0.0021: real time    0.0021
    --------------------------------------------
      LOOP:  cpu time   87.7856: real time   88.4159

 eigenvalue-minimisations  : 13824
 total energy-change (2. order) :-0.4883041E-06  (-0.2726686E-07)
 number of electron     688.0000442 magnetization       0.0000000
 augmentation part      282.2213770 magnetization       0.0000000

 Broyden mixing:
  rms(total) = 0.16054E-02    rms(broyden)= 0.16054E-02
  rms(prec ) = 0.16062E-02
  weight for this iteration     100.00

 eigenvalues of (default mixing * dielectric matrix)
  average eigenvalue GAMMA=   1.1758
  3.1925  2.1893  2.1893  1.1836  1.1836  0.9145  0.9145  0.3358  0.5985  0.5985
  0.6908  0.6908  0.6033

 Free energy of the ion-electron system (eV)
  ---------------------------------------------------
  alpha Z        PSCENC =      2356.63592519
  Ewald energy   TEWEN  =    -62476.26449675
  -Hartree energ DENC   =    -42947.95262902
  -exchange      EXHF   =         0.00000000
  -V(xc)+E(xc)   XCENC  =      3286.51960360
  PAW double counting   =    112272.31489794  -115966.21951490
  entropy T*S    EENTRO =        -0.00000000
  eigenvalues    EBANDS =    -10873.11752690
  atomic energy  EATOM  =    114020.06510763
  Solvation  Ediel_sol  =         0.00000000
  ---------------------------------------------------
  free energy    TOTEN  =      -328.01863321 eV

  energy without entropy =     -328.01863321  energy(sigma->0) =     -328.01863321


--------------------------------------------------------------------------------------------------------




--------------------------------------- Iteration      1(  15)  ---------------------------------------


    POTLOK:  cpu time    0.1402: real time    0.1448
    SETDIJ:  cpu time    0.0131: real time    0.0131
     EDDAV:  cpu time  120.1109: real time  120.9232
       DOS:  cpu time    0.0008: real time    0.0008
    CHARGE:  cpu time    1.1819: real time    1.1890
    MIXING:  cpu time    0.0021: real time    0.0022
    --------------------------------------------
      LOOP:  cpu time  121.4490: real time  122.2731

 eigenvalue-minimisations  : 16640
 total energy-change (2. order) :-0.2214510E-06  (-0.3060512E-07)
 number of electron     688.0000442 magnetization       0.0000000
 augmentation part      282.2214873 magnetization       0.0000000

 Broyden mixing:
  rms(total) = 0.11695E-02    rms(broyden)= 0.11695E-02
  rms(prec ) = 0.11704E-02
  weight for this iteration     100.00

 eigenvalues of (default mixing * dielectric matrix)
  average eigenvalue GAMMA=   1.2412
  3.7258  2.3408  2.3408  1.3482  1.3482  1.0145  1.0145  0.3358  0.5974  0.5974
  0.7364  0.7364  0.6200  0.6200

 Free energy of the ion-electron system (eV)
  ---------------------------------------------------
  alpha Z        PSCENC =      2356.63592519
  Ewald energy   TEWEN  =    -62476.26449675
  -Hartree energ DENC   =    -42947.93801938
  -exchange      EXHF   =         0.00000000
  -V(xc)+E(xc)   XCENC  =      3286.51913522
  PAW double counting   =    112273.09531964  -115967.00561715
  entropy T*S    EENTRO =        -0.00000000
  eigenvalues    EBANDS =    -10873.12598782
  atomic energy  EATOM  =    114020.06510763
  Solvation  Ediel_sol  =         0.00000000
  ---------------------------------------------------
  free energy    TOTEN  =      -328.01863343 eV

  energy without entropy =     -328.01863343  energy(sigma->0) =     -328.01863343


--------------------------------------------------------------------------------------------------------




--------------------------------------- Iteration      1(  16)  ---------------------------------------


    POTLOK:  cpu time    0.1402: real time    0.1441
    SETDIJ:  cpu time    0.0130: real time    0.0130
     EDDAV:  cpu time   83.9688: real time   84.5743
       DOS:  cpu time    0.0008: real time    0.0008
    CHARGE:  cpu time    1.1824: real time    1.1898
    MIXING:  cpu time    0.0022: real time    0.0022
    --------------------------------------------
      LOOP:  cpu time   85.3075: real time   85.9243

 eigenvalue-minimisations  : 13568
 total energy-change (2. order) :-0.9570795E-07  (-0.1715366E-07)
 number of electron     688.0000442 magnetization       0.0000000
 augmentation part      282.2213288 magnetization       0.0000000

 Broyden mixing:
  rms(total) = 0.29690E-03    rms(broyden)= 0.29690E-03
  rms(prec ) = 0.29716E-03
  weight for this iteration     100.00

 eigenvalues of (default mixing * dielectric matrix)
  average eigenvalue GAMMA=   1.2532
  4.1164  2.5645  1.9063  1.9063  1.1939  1.1939  0.3358  0.9395  0.7767  0.7767
  0.5980  0.5980  0.6733  0.6095  0.6095

 Free energy of the ion-electron system (eV)
  ---------------------------------------------------
  alpha Z        PSCENC =      2356.63592519
  Ewald energy   TEWEN  =    -62476.26449675
  -Hartree energ DENC   =    -42947.93425698
  -exchange      EXHF   =         0.00000000
  -V(xc)+E(xc)   XCENC  =      3286.51912697
  PAW double counting   =    112274.91813480  -115968.83479370
  entropy T*S    EENTRO =        -0.00000000
  eigenvalues    EBANDS =    -10873.12338069
  atomic energy  EATOM  =    114020.06510763
  Solvation  Ediel_sol  =         0.00000000
  ---------------------------------------------------
  free energy    TOTEN  =      -328.01863353 eV

  energy without entropy =     -328.01863353  energy(sigma->0) =     -328.01863353


--------------------------------------------------------------------------------------------------------




--------------------------------------- Iteration      1(  17)  ---------------------------------------


    POTLOK:  cpu time    0.1425: real time    0.1436
    SETDIJ:  cpu time    0.0129: real time    0.0130
     EDDAV:  cpu time   83.6473: real time   84.2292
       DOS:  cpu time    0.0008: real time    0.0008
    CHARGE:  cpu time    1.1830: real time    1.1906
    MIXING:  cpu time    0.0023: real time    0.0024
    --------------------------------------------
      LOOP:  cpu time   84.9888: real time   85.5795

 eigenvalue-minimisations  : 12032
 total energy-change (2. order) :-0.2968591E-07  (-0.1689441E-08)
 number of electron     688.0000442 magnetization       0.0000000
 augmentation part      282.2212855 magnetization       0.0000000

 Broyden mixing:
  rms(total) = 0.10910E-03    rms(broyden)= 0.10910E-03
  rms(prec ) = 0.10932E-03
  weight for this iteration     100.00

 eigenvalues of (default mixing * dielectric matrix)
  average eigenvalue GAMMA=   1.2399
  4.0929  2.7457  1.9317  1.9317  1.2156  1.2156  0.3358  0.8250  0.8250  0.8078
  0.8078  0.5978  0.5978  0.6571  0.6571  0.5936

 Free energy of the ion-electron system (eV)
  ---------------------------------------------------
  alpha Z        PSCENC =      2356.63592519
  Ewald energy   TEWEN  =    -62476.26449675
  -Hartree energ DENC   =    -42947.93321034
  -exchange      EXHF   =         0.00000000
  -V(xc)+E(xc)   XCENC  =      3286.51917312
  PAW double counting   =    112275.70608303  -115969.62430004
  entropy T*S    EENTRO =        -0.00000000
  eigenvalues    EBANDS =    -10873.12291540
  atomic energy  EATOM  =    114020.06510763
  Solvation  Ediel_sol  =         0.00000000
  ---------------------------------------------------
  free energy    TOTEN  =      -328.01863356 eV

  energy without entropy =     -328.01863356  energy(sigma->0) =     -328.01863356


--------------------------------------------------------------------------------------------------------




--------------------------------------- Iteration      1(  18)  ---------------------------------------


    POTLOK:  cpu time    0.1408: real time    0.1442
    SETDIJ:  cpu time    0.0129: real time    0.0130
     EDDAV:  cpu time   65.0895: real time   65.5562
       DOS:  cpu time    0.0008: real time    0.0008
    CHARGE:  cpu time    1.1848: real time    1.1918
    MIXING:  cpu time    0.0025: real time    0.0025
    --------------------------------------------
      LOOP:  cpu time   66.4314: real time   66.9085

 eigenvalue-minimisations  :  9728
 total energy-change (2. order) :-0.1089938E-07  (-0.2369586E-09)
 number of electron     688.0000442 magnetization       0.0000000
 augmentation part      282.2213030 magnetization       0.0000000

 Broyden mixing:
  rms(total) = 0.13532E-03    rms(broyden)= 0.13532E-03
  rms(prec ) = 0.13540E-03
  weight for this iteration     100.00

 eigenvalues of (default mixing * dielectric matrix)
  average eigenvalue GAMMA=   1.2758
  4.3052  2.6082  1.9555  1.7530  1.7530  1.2928  1.0554  1.0554  0.3358  0.8899
  0.7814  0.7814  0.5979  0.5979  0.6586  0.6586  0.6094

 Free energy of the ion-electron system (eV)
  ---------------------------------------------------
  alpha Z        PSCENC =      2356.63592519
  Ewald energy   TEWEN  =    -62476.26449675
  -Hartree energ DENC   =    -42947.93337186
  -exchange      EXHF   =         0.00000000
  -V(xc)+E(xc)   XCENC  =      3286.51920856
  PAW double counting   =    112275.74563666  -115969.66336474
  entropy T*S    EENTRO =        -0.00000000
  eigenvalues    EBANDS =    -10873.12327825
  atomic energy  EATOM  =    114020.06510763
  Solvation  Ediel_sol  =         0.00000000
  ---------------------------------------------------
  free energy    TOTEN  =      -328.01863357 eV

  energy without entropy =     -328.01863357  energy(sigma->0) =     -328.01863357


--------------------------------------------------------------------------------------------------------




--------------------------------------- Iteration      1(  19)  ---------------------------------------


    POTLOK:  cpu time    0.1422: real time    0.1430
    SETDIJ:  cpu time    0.0129: real time    0.0130
     EDDAV:  cpu time   77.7637: real time   78.3062
       DOS:  cpu time    0.0008: real time    0.0008
    CHARGE:  cpu time    1.1836: real time    1.1906
    MIXING:  cpu time    0.0025: real time    0.0026
    --------------------------------------------
      LOOP:  cpu time   79.1058: real time   79.6562

 eigenvalue-minimisations  : 10752
 total energy-change (2. order) : 0.1229637E-07  (-0.2715107E-09)
 number of electron     688.0000442 magnetization      -0.0000000
[...]
   -.328E+00 0.421E+02 0.968E+01   0.318E+00 -.430E+02 -.978E+01   0.107E-01 0.861E+00 0.965E-01   0.188E-06 0.164E-05 -.464E-06
   -.421E+02 0.328E+00 0.968E+01   0.430E+02 -.318E+00 -.978E+01   -.861E+00 -.107E-01 0.965E-01   -.164E-05 -.188E-06 -.464E-06
   -.421E+02 0.328E+00 0.968E+01   0.430E+02 -.318E+00 -.978E+01   -.861E+00 -.107E-01 0.965E-01   -.164E-05 -.188E-06 -.464E-06
   -.421E+02 0.328E+00 0.968E+01   0.430E+02 -.318E+00 -.978E+01   -.861E+00 -.107E-01 0.965E-01   -.164E-05 -.188E-06 -.464E-06
   -.421E+02 0.328E+00 0.968E+01   0.430E+02 -.318E+00 -.978E+01   -.861E+00 -.107E-01 0.965E-01   -.164E-05 -.188E-06 -.464E-06
   0.421E+02 -.328E+00 0.968E+01   -.430E+02 0.318E+00 -.978E+01   0.861E+00 0.107E-01 0.965E-01   0.164E-05 0.188E-06 -.464E-06
   0.421E+02 -.328E+00 0.968E+01   -.430E+02 0.318E+00 -.978E+01   0.861E+00 0.107E-01 0.965E-01   0.164E-05 0.188E-06 -.464E-06
   0.421E+02 -.328E+00 0.968E+01   -.430E+02 0.318E+00 -.978E+01   0.861E+00 0.107E-01 0.965E-01   0.164E-05 0.188E-06 -.464E-06
   0.421E+02 -.328E+00 0.968E+01   -.430E+02 0.318E+00 -.978E+01   0.861E+00 0.107E-01 0.965E-01   0.164E-05 0.188E-06 -.464E-06
   0.328E+00 -.421E+02 0.968E+01   -.318E+00 0.430E+02 -.978E+01   -.107E-01 -.861E+00 0.965E-01   -.188E-06 -.164E-05 -.464E-06
   0.328E+00 -.421E+02 0.968E+01   -.318E+00 0.430E+02 -.978E+01   -.107E-01 -.861E+00 0.965E-01   -.188E-06 -.164E-05 -.464E-06
   0.328E+00 -.421E+02 0.968E+01   -.318E+00 0.430E+02 -.978E+01   -.107E-01 -.861E+00 0.965E-01   -.188E-06 -.164E-05 -.464E-06
   0.328E+00 -.421E+02 0.968E+01   -.318E+00 0.430E+02 -.978E+01   -.107E-01 -.861E+00 0.965E-01   -.188E-06 -.164E-05 -.464E-06
   -.328E+00 0.421E+02 0.968E+01   0.318E+00 -.430E+02 -.978E+01   0.107E-01 0.861E+00 0.965E-01   0.188E-06 0.164E-05 -.464E-06
   -.328E+00 0.421E+02 0.968E+01   0.318E+00 -.430E+02 -.978E+01   0.107E-01 0.861E+00 0.965E-01   0.188E-06 0.164E-05 -.464E-06
   -.328E+00 0.421E+02 0.968E+01   0.318E+00 -.430E+02 -.978E+01   0.107E-01 0.861E+00 0.965E-01   0.188E-06 0.164E-05 -.464E-06
   -.328E+00 0.421E+02 0.968E+01   0.318E+00 -.430E+02 -.978E+01   0.107E-01 0.861E+00 0.965E-01   0.188E-06 0.164E-05 -.464E-06
   -.224E-06 0.227E-07 -.114E+02   -.844E-14 -.426E-13 0.109E+02   0.237E-26 0.275E-25 0.461E+00   0.154E-12 0.786E-13 -.335E-05
   -.224E-06 0.227E-07 -.114E+02   0.520E-13 0.000E+00 0.109E+02   0.710E-26 0.664E-25 0.461E+00   -.573E-12 0.587E-13 -.335E-05
   -.224E-06 0.227E-07 -.114E+02   0.200E-13 0.142E-13 0.109E+02   -.818E-26 0.452E-25 0.461E+00   0.103E-12 -.516E-12 -.335E-05
   -.224E-06 0.227E-07 -.114E+02   0.235E-13 0.284E-13 0.109E+02   0.108E-25 -.388E-25 0.461E+00   -.360E-12 -.520E-12 -.335E-05
   0.227E-07 -.224E-06 -.114E+02   0.853E-13 0.000E+00 0.109E+02   0.380E-25 -.323E-26 0.461E+00   -.252E-12 0.111E-12 -.335E-05
   0.227E-07 -.224E-06 -.114E+02   0.568E-13 0.000E+00 0.109E+02   -.385E-25 -.194E-25 0.461E+00   -.175E-12 0.785E-14 -.335E-05
   0.227E-07 -.224E-06 -.114E+02   0.284E-13 -.284E-13 0.109E+02   0.626E-26 0.372E-25 0.461E+00   -.375E-12 -.525E-12 -.335E-05
   0.227E-07 -.224E-06 -.114E+02   0.853E-13 0.284E-13 0.109E+02   0.227E-25 0.162E-26 0.461E+00   -.626E-13 -.486E-12 -.335E-05
   -.224E-06 0.227E-07 -.114E+02   0.121E-12 -.324E-13 0.109E+02   0.253E-25 0.388E-25 0.461E+00   -.117E-12 0.854E-13 -.335E-05
   -.224E-06 0.227E-07 -.114E+02   0.121E-12 -.751E-13 0.109E+02   -.130E-25 0.707E-25 0.461E+00   -.254E-12 0.195E-12 -.335E-05
   -.224E-06 0.228E-07 -.114E+02   0.853E-13 -.262E-13 0.109E+02   -.466E-26 -.162E-26 0.461E+00   -.811E-13 -.396E-12 -.335E-05
   -.224E-06 0.228E-07 -.114E+02   0.142E-12 -.404E-13 0.109E+02   0.694E-28 -.404E-26 0.461E+00   -.192E-12 -.509E-12 -.335E-05
   0.227E-07 -.224E-06 -.114E+02   0.122E-12 -.149E-12 0.109E+02   0.212E-25 -.323E-25 0.461E+00   0.819E-13 0.614E-13 -.335E-05
   0.227E-07 -.224E-06 -.114E+02   0.181E-12 -.922E-13 0.109E+02   0.626E-26 0.178E-25 0.461E+00   -.399E-12 0.694E-13 -.335E-05
   0.227E-07 -.224E-06 -.114E+02   0.179E-12 -.576E-13 0.109E+02   0.856E-26 0.162E-26 0.461E+00   0.413E-13 -.393E-12 -.335E-05
   0.227E-07 -.224E-06 -.114E+02   0.181E-12 -.809E-15 0.109E+02   0.122E-25 0.113E-25 0.461E+00   -.457E-12 -.421E-12 -.335E-05
   0.424E-07 -.728E-07 -.917E+01   -.746E-13 0.107E-12 0.862E+01   -.309E-25 0.517E-25 0.551E+00   0.174E-12 0.238E-12 -.268E-05
   0.424E-07 -.728E-07 -.917E+01   -.997E-13 0.853E-13 0.862E+01   0.218E-25 0.000E+00 0.551E+00   -.394E-12 0.214E-12 -.268E-05
   0.424E-07 -.728E-07 -.917E+01   -.103E-12 0.853E-13 0.862E+01   0.746E-26 -.388E-25 0.551E+00   0.801E-13 -.225E-12 -.268E-05
   0.424E-07 -.727E-07 -.917E+01   -.997E-13 0.114E-12 0.862E+01   0.121E-24 0.250E-25 0.551E+00   -.232E-12 -.235E-12 -.268E-05
   -.728E-07 0.424E-07 -.917E+01   0.128E-12 0.320E-13 0.862E+01   -.687E-26 0.000E+00 0.551E+00   0.552E-13 0.254E-12 -.268E-05
   -.728E-07 0.424E-07 -.917E+01   0.128E-12 -.178E-13 0.862E+01   -.614E-25 -.258E-25 0.551E+00   -.106E-12 0.268E-12 -.268E-05
   -.728E-07 0.424E-07 -.917E+01   0.131E-12 0.000E+00 0.862E+01   0.384E-25 -.258E-25 0.551E+00   0.241E-13 -.220E-12 -.268E-05
   -.728E-07 0.424E-07 -.917E+01   0.131E-12 0.000E+00 0.862E+01   -.242E-26 -.388E-25 0.551E+00   -.119E-12 -.195E-12 -.268E-05
   0.424E-07 -.728E-07 -.917E+01   -.995E-13 0.132E-12 0.862E+01   -.160E-25 -.517E-25 0.551E+00   -.760E-13 0.176E-12 -.268E-05
   0.424E-07 -.728E-07 -.917E+01   -.995E-13 0.238E-12 0.862E+01   0.248E-25 -.388E-25 0.551E+00   -.105E-12 0.219E-12 -.268E-05
   0.424E-07 -.728E-07 -.917E+01   -.711E-13 0.173E-12 0.862E+01   -.220E-25 0.226E-25 0.551E+00   -.781E-13 -.119E-12 -.268E-05
   0.424E-07 -.728E-07 -.917E+01   -.995E-13 0.179E-12 0.862E+01   -.501E-25 0.258E-25 0.551E+00   -.748E-13 -.207E-12 -.268E-05
   -.728E-07 0.424E-07 -.917E+01   0.112E-12 0.587E-13 0.862E+01   -.186E-25 0.517E-25 0.551E+00   0.262E-12 0.273E-12 -.268E-05
   -.728E-07 0.424E-07 -.917E+01   0.140E-12 0.517E-13 0.862E+01   0.101E-26 0.517E-25 0.551E+00   -.333E-12 0.209E-12 -.268E-05
   -.728E-07 0.424E-07 -.917E+01   0.115E-12 0.117E-12 0.862E+01   -.205E-25 0.551E-25 0.551E+00   0.213E-12 -.166E-12 -.268E-05
   -.728E-07 0.424E-07 -.917E+01   0.129E-12 0.597E-13 0.862E+01   -.396E-25 -.129E-25 0.551E+00   -.273E-12 -.114E-12 -.268E-05
 -----------------------------------------------------------------------------------------------
   -.161E-05 -.161E-05 -.193E+02   -.138E-13 -.140E-12 0.120E-11   -.227E-15 0.270E-24 0.193E+02   -.189E-11 -.186E-11 -.111E-03
 
 
 POSITION                                       TOTAL-FORCE (eV/Angst)
 -----------------------------------------------------------------------------------
      1.34630      1.33650      1.28424         0.000475     -0.000255     -0.000094
      6.60067      1.41899      1.28424         0.000475     -0.000255     -0.000094
      1.42879      6.59087      1.28424         0.000475     -0.000255     -0.000094
      6.68315      6.67336      1.28424         0.000475     -0.000255     -0.000094
      3.99055      4.00035      1.28424        -0.000475      0.000255     -0.000094
      9.24492      4.08284      1.28424        -0.000475      0.000255     -0.000094
      4.07304      9.25471      1.28424        -0.000475      0.000255     -0.000094
      9.32741      9.33720      1.28424        -0.000475      0.000255     -0.000094
      1.37317      3.94931      9.09924         0.000255     -0.000475     -0.000094
      6.62753      4.03180      9.09924         0.000255     -0.000475     -0.000094
      1.45565      9.20368      9.09924         0.000255     -0.000475     -0.000094
      6.71002      9.28616      9.09924         0.000255     -0.000475     -0.000094
      3.96369      1.38754      9.09924        -0.000255      0.000475     -0.000094
      9.21805      1.47003      9.09924        -0.000255      0.000475     -0.000094
      4.04617      6.64191      9.09924        -0.000255      0.000475     -0.000094
      9.30054      6.72440      9.09924        -0.000255      0.000475     -0.000094
      1.32213      1.33192      6.49424        -0.000475      0.000255     -0.000094
      6.57649      1.41441      6.49424        -0.000475      0.000255     -0.000094
      1.40461      6.58629      6.49424        -0.000475      0.000255     -0.000094
      6.65898      6.66878      6.49424        -0.000475      0.000255     -0.000094
      4.01473      4.00493      6.49424         0.000475     -0.000255     -0.000094
      9.26909      4.08742      6.49424         0.000475     -0.000255     -0.000094
      4.09721      9.25930      6.49424         0.000475     -0.000255     -0.000094
      9.35158      9.34178      6.49424         0.000475     -0.000255     -0.000094
      3.95911      1.36337      3.88924         0.000255     -0.000475     -0.000094
      9.21347      1.44586      3.88924         0.000255     -0.000475     -0.000094
      4.04159      6.61774      3.88924         0.000255     -0.000475     -0.000094
      9.29596      6.70022      3.88924         0.000255     -0.000475     -0.000094
      1.37775      3.97348      3.88924        -0.000255      0.000475     -0.000094
      6.63211      4.05597      3.88924        -0.000255      0.000475     -0.000094
      1.46023      9.22785      3.88924        -0.000255      0.000475     -0.000094
      6.71460      9.31034      3.88924        -0.000255      0.000475     -0.000094
      0.00000      0.00000      5.22554        -0.000000     -0.000000     -0.001096
      5.25437      0.08249      5.22554        -0.000000     -0.000000     -0.001096
      0.08249      5.25437      5.22554        -0.000000     -0.000000     -0.001096
      5.33685      5.33685      5.22554        -0.000000     -0.000000     -0.001096
      2.62718      0.04124      2.62055        -0.000000     -0.000000     -0.001096
      7.88155      0.12373      2.62055        -0.000000     -0.000000     -0.001096
      2.70967      5.29561      2.62055        -0.000000     -0.000000     -0.001096
      7.96404      5.37810      2.62055        -0.000000     -0.000000     -0.001096
      2.66843      2.66843      0.01555        -0.000000     -0.000000     -0.001096
      7.92279      2.75091      0.01555        -0.000000     -0.000000     -0.001096
      2.75091      7.92279      0.01555        -0.000000     -0.000000     -0.001096
      8.00528      8.00528      0.01555        -0.000000     -0.000000     -0.001096
      0.04124      2.62718      7.83054        -0.000000     -0.000000     -0.001096
      5.29561      2.70967      7.83054        -0.000000     -0.000000     -0.001096
      0.12373      7.88155      7.83054        -0.000000     -0.000000     -0.001096
      5.37810      7.96404      7.83054        -0.000000     -0.000000     -0.001096
      0.00000      0.00000      0.02095        -0.000000     -0.000000      0.001285
      5.25437      0.08249      0.02095        -0.000000     -0.000000      0.001285
      0.08249      5.25437      0.02095        -0.000000     -0.000000      0.001285
      5.33685      5.33685      0.02095        -0.000000     -0.000000      0.001285
      2.62718      0.04124      7.83595        -0.000000     -0.000000      0.001285
      7.88155      0.12373      7.83595        -0.000000     -0.000000      0.001285
      2.70967      5.29561      7.83595        -0.000000     -0.000000      0.001285
      7.96404      5.37810      7.83595        -0.000000     -0.000000      0.001285
      2.66843      2.66843      5.23095        -0.000000     -0.000000      0.001285
      7.92279      2.75091      5.23095        -0.000000     -0.000000      0.001285
      2.75091      7.92279      5.23095        -0.000000     -0.000000      0.001285
      8.00528      8.00528      5.23095        -0.000000     -0.000000      0.001285
      0.04124      2.62718      2.62595        -0.000000     -0.000000      0.001285
      5.29561      2.70967      2.62595        -0.000000     -0.000000      0.001285
      0.12373      7.88155      2.62595        -0.000000     -0.000000      0.001285
      5.37810      7.96404      2.62595        -0.000000     -0.000000      0.001285
 -----------------------------------------------------------------------------------
    total drift:                               -0.000002     -0.000002     -0.032997


--------------------------------------------------------------------------------------------------------



  FREE ENERGIE OF THE ION-ELECTRON SYSTEM (eV)
  ---------------------------------------------------
  free  energy   TOTEN  =      -328.01863354 eV

  energy  without entropy=     -328.01863354  energy(sigma->0) =     -328.01863354
 


--------------------------------------------------------------------------------------------------------


    POTLOK:  cpu time    0.1549: real time    0.1556


--------------------------------------------------------------------------------------------------------


 writing wavefunctions
     LOOP+:  cpu time 2271.3570: real time 2535.6127
    4ORBIT:  cpu time    0.0000: real time    0.0000
 


 total charge     
 
# of ion       s       p       d       tot
------------------------------------------
    1        1.314   2.410   0.000   3.723
    2        1.314   2.410   0.000   3.723
    3        1.314   2.410   0.000   3.723
    4        1.314   2.410   0.000   3.723
    5        1.314   2.410   0.000   3.723
    6        1.314   2.410   0.000   3.723
    7        1.314   2.410   0.000   3.723
    8        1.314   2.410   0.000   3.723
    9        1.314   2.410   0.000   3.724
   10        1.314   2.410   0.000   3.724
   11        1.314   2.410   0.000   3.724
   12        1.314   2.410   0.000   3.724
   13        1.314   2.410   0.000   3.724
   14        1.314   2.410   0.000   3.724
   15        1.314   2.410   0.000   3.724
   16        1.314   2.410   0.000   3.724
   17        1.314   2.410   0.000   3.723
   18        1.314   2.410   0.000   3.723
   19        1.314   2.410   0.000   3.723
   20        1.314   2.410   0.000   3.723
   21        1.314   2.410   0.000   3.723
   22        1.314   2.410   0.000   3.723
   23        1.314   2.410   0.000   3.723
   24        1.314   2.410   0.000   3.723
   25        1.314   2.410   0.000   3.724
   26        1.314   2.410   0.000   3.724
   27        1.314   2.410   0.000   3.724
   28        1.314   2.410   0.000   3.724
   29        1.314   2.410   0.000   3.724
   30        1.314   2.410   0.000   3.724
   31        1.314   2.410   0.000   3.724
   32        1.314   2.410   0.000   3.724
   33        0.260   6.202   8.916  15.378
   34        0.260   6.202   8.916  15.378
   35        0.260   6.202   8.916  15.378
   36        0.260   6.202   8.916  15.378
   37        0.260   6.202   8.917  15.378
   38        0.260   6.202   8.917  15.378
   39        0.260   6.202   8.917  15.378
   40        0.260   6.202   8.917  15.378
   41        0.260   6.202   8.916  15.378
   42        0.260   6.202   8.916  15.378
   43        0.260   6.202   8.916  15.378
   44        0.260   6.202   8.916  15.378
   45        0.260   6.202   8.917  15.378
   46        0.260   6.202   8.917  15.378
   47        0.260   6.202   8.917  15.378
   48        0.260   6.202   8.917  15.378
   49        0.350   6.351   5.820  12.521
   50        0.350   6.351   5.820  12.521
   51        0.350   6.351   5.820  12.521
   52        0.350   6.351   5.820  12.521
   53        0.350   6.351   5.820  12.521
   54        0.350   6.351   5.820  12.521
   55        0.350   6.351   5.820  12.521
   56        0.350   6.351   5.820  12.521
   57        0.350   6.351   5.820  12.521
   58        0.350   6.351   5.820  12.521
   59        0.350   6.351   5.820  12.521
   60        0.350   6.351   5.820  12.521
   61        0.350   6.351   5.820  12.521
   62        0.350   6.351   5.820  12.521
   63        0.350   6.351   5.820  12.521
   64        0.350   6.351   5.820  12.521
--------------------------------------------------
tot         51.789 277.968 235.784 565.540
 


 magnetization (x)
 
# of ion       s       p       d       tot
------------------------------------------
    1       -0.000  -0.008   0.000  -0.008
    2       -0.000  -0.008   0.000  -0.008
    3       -0.000  -0.008   0.000  -0.008
    4       -0.000  -0.008   0.000  -0.008
    5       -0.000  -0.008   0.000  -0.008
    6       -0.000  -0.008   0.000  -0.008
    7       -0.000  -0.008   0.000  -0.008
    8       -0.000  -0.008   0.000  -0.008
    9        0.000   0.008   0.000   0.008
   10        0.000   0.008   0.000   0.008
   11        0.000   0.008   0.000   0.008
   12        0.000   0.008   0.000   0.008
   13        0.000   0.008   0.000   0.008
   14        0.000   0.008   0.000   0.008
   15        0.000   0.008   0.000   0.008
   16        0.000   0.008   0.000   0.008
   17       -0.000  -0.008   0.000  -0.008
   18       -0.000  -0.008   0.000  -0.008
   19       -0.000  -0.008   0.000  -0.008
   20       -0.000  -0.008   0.000  -0.008
   21       -0.000  -0.008   0.000  -0.008
   22       -0.000  -0.008   0.000  -0.008
   23       -0.000  -0.008   0.000  -0.008
   24       -0.000  -0.008   0.000  -0.008
   25        0.000   0.008   0.000   0.008
   26        0.000   0.008   0.000   0.008
   27        0.000   0.008   0.000   0.008
   28        0.000   0.008   0.000   0.008
   29        0.000   0.008   0.000   0.008
   30        0.000   0.008   0.000   0.008
   31        0.000   0.008   0.000   0.008
   32        0.000   0.008   0.000   0.008
   33        0.000   0.000  -0.000   0.000
   34        0.000   0.000  -0.000   0.000
   35        0.000   0.000  -0.000   0.000
   36        0.000   0.000  -0.000   0.000
   37       -0.000  -0.000   0.000  -0.000
   38       -0.000  -0.000   0.000  -0.000
   39       -0.000  -0.000   0.000  -0.000
   40       -0.000  -0.000   0.000  -0.000
   41        0.000   0.000  -0.000   0.000
   42        0.000   0.000  -0.000   0.000
   43        0.000   0.000  -0.000   0.000
   44        0.000   0.000  -0.000   0.000
   45       -0.000  -0.000   0.000  -0.000
   46       -0.000  -0.000   0.000  -0.000
   47       -0.000  -0.000   0.000  -0.000
   48       -0.000  -0.000   0.000  -0.000
   49        0.020   0.054   3.671   3.744
   50        0.020   0.054   3.671   3.744
   51        0.020   0.054   3.671   3.744
   52        0.020   0.054   3.671   3.744
   53       -0.020  -0.054  -3.671  -3.744
   54       -0.020  -0.054  -3.671  -3.744
   55       -0.020  -0.054  -3.671  -3.744
   56       -0.020  -0.054  -3.671  -3.744
   57        0.020   0.054   3.671   3.744
   58        0.020   0.054   3.671   3.744
   59        0.020   0.054   3.671   3.744
   60        0.020   0.054   3.671   3.744
   61       -0.020  -0.054  -3.671  -3.744
   62       -0.020  -0.054  -3.671  -3.744
   63       -0.020  -0.054  -3.671  -3.744
   64       -0.020  -0.054  -3.671  -3.744
--------------------------------------------------
tot         -0.001   0.001  -0.000  -0.000
 

 total amount of memory used by VASP MPI-rank0   301249. kBytes
=======================================================================

   base      :      30000. kBytes
   nonl-proj :     175882. kBytes
   fftplans  :       4588. kBytes
   grid      :      69719. kBytes
   one-center:       1990. kBytes
   wavefun   :      19070. kBytes
 
  
  
 General timing and accounting informations for this job:
 ========================================================
  
                  Total CPU time used (sec):     2321.857
                            User time (sec):     2309.414
                          System time (sec):       12.443
                         Elapsed time (sec):     2587.748
  
                   Maximum memory used (kb):      658128.
                   Average memory used (kb):           0.
  
                          Minor page faults:       570615
                          Major page faults:         5645
                 Voluntary context switches:         8075
