 vasp.5.4.4.18Apr17-6-g9f103f2a35 (build Oct 30 2023 17:30:16) complex          
  
 executed on             LinuxIFC date 2024.04.25  16:17:16
 running on  256 total cores
 distrk:  each k-point on  256 cores,    1 groups
 distr:  one band on NCORES_PER_BAND=   1 cores,  256 groups


--------------------------------------------------------------------------------------------------------


 INCAR:
 POTCAR:    PAW_PBE S 06Sep2000                   
 POTCAR:     PAW_PBE Cu_pv 06Sep2000              
 POTCAR:     PAW_PBE Fe_pv 02Aug2007              

 ----------------------------------------------------------------------------- 
|                                                                             |
|           W    W    AA    RRRRR   N    N  II  N    N   GGGG   !!!           |
|           W    W   A  A   R    R  NN   N  II  NN   N  G    G  !!!           |
|           W    W  A    A  R    R  N N  N  II  N N  N  G       !!!           |
|           W WW W  AAAAAA  RRRRR   N  N N  II  N  N N  G  GGG   !            |
|           WW  WW  A    A  R   R   N   NN  II  N   NN  G    G                |
|           W    W  A    A  R    R  N    N  II  N    N   GGGG   !!!           |
|                                                                             |
|      For optimal performance we recommend to set                            |
|        NCORE= 4 - approx SQRT( number of cores)                             |
|      NCORE specifies how many cores store one orbital (NPAR=cpu/NCORE).     |
|      This setting can  greatly improve the performance of VASP for DFT.     |
|      The default,   NCORE=1            might be grossly inefficient         |
|      on modern multi-core architectures or massively parallel machines.     |
|      Do your own testing !!!!                                               |
|      Unfortunately you need to use the default for GW and RPA calculations. |
|      (for HF NCORE is supported but not extensively tested yet)             |
|                                                                             |
 ----------------------------------------------------------------------------- 

 POTCAR:    PAW_PBE S 06Sep2000                   
   SHA256 =  0fc7481fb0695f01bdc6462160264c5c84044ae9ec85a907d398b887a2bc3132 S/
   COPYR  = (c) Copyright 06Sep2000 Georg Kresse                                
   COPYR  = This file is part of the software VASP. Any use, copying, and all ot
   COPYR  = If you do not have a valid VASP license, you may not use, copy or di
   VRHFIN =S : s2p4                                                             
   LEXCH  = PE                                                                  
   EATOM  =   276.8230 eV,   20.3459 Ry                                         
                                                                                
   TITEL  = PAW_PBE S 06Sep2000                                                 
   LULTRA =        F    use ultrasoft PP ?                                      
   IUNSCR =        1    unscreen: 0-lin 1-nonlin 2-no                           
   RPACOR =    1.500    partial core radius                                     
   POMASS =   32.066; ZVAL   =    6.000    mass and valenz                      
   RCORE  =    1.900    outmost cutoff radius                                   
   RWIGS  =    2.200; RWIGS  =    1.164    wigner-seitz radius (au A)           
   ENMAX  =  258.689; ENMIN  =  194.016 eV                                      
   ICORE  =        2    local potential                                         
   LCOR   =        T    correct aug charges                                     
   LPAW   =        T    paw PP                                                  
   EAUG   =  335.092                                                            
   DEXC   =    0.000                                                            
   RMAX   =    1.942    core radius for proj-oper                               
   RAUG   =    1.300    factor for augmentation sphere                          
   RDEP   =    1.954    radius for radial grids                                 
   RDEPT  =    1.744    core radius for aug-charge                              
                                                                                
   Atomic configuration                                                         
    6 entries                                                                   
     n  l   j            E        occ.                                          
     1  0  0.50     -2405.8406   2.0000                                         
     2  0  0.50      -211.7007   2.0000                                         
     2  1  1.50      -156.4958   6.0000                                         
     3  0  0.50       -17.2562   2.0000                                         
     3  1  0.50        -7.0085   4.0000                                         
     3  2  1.50        -6.8029   0.0000                                         
   Description                                                                  
     l       E           TYP  RCUT    TYP  RCUT                                 
     0    -17.2561641     23  1.900                                             
     0    -15.8743224     23  1.900                                             
     1     -7.0085400     23  1.900                                             
     1     -2.7779785     23  1.900                                             
     2     -6.8029130     23  1.900                                             
  local pseudopotential read in
  partial core-charges read in
  partial kinetic energy density read in
  atomic valenz-charges read in
  non local Contribution for L=           0  read in
    real space projection operators read in
  non local Contribution for L=           0  read in
    real space projection operators read in
  non local Contribution for L=           1  read in
    real space projection operators read in
  non local Contribution for L=           1  read in
    real space projection operators read in
    PAW grid and wavefunctions read in
 
   number of l-projection  operators is LMAX  =           4
   number of lm-projection operators is LMMAX =           8
 
 POTCAR:     PAW_PBE Cu_pv 06Sep2000              
   SHA256 =  cb7b504e2ea725fe1f25c85a9ac77d4012ce94cd394135b722c4e25ec297f1cb Cu
   COPYR  = (c) Copyright 06Sep2000 Georg Kresse                                
   COPYR  = This file is part of the software VASP. Any use, copying, and all ot
   COPYR  = If you do not have a valid VASP license, you may not use, copy or di
   VRHFIN =Cu: d10 p1                                                           
   LEXCH  = PE                                                                  
   EATOM  =  4120.1201 eV,  302.8203 Ry                                         
                                                                                
   TITEL  = PAW_PBE Cu_pv 06Sep2000                                             
   LULTRA =        F    use ultrasoft PP ?                                      
   IUNSCR =        1    unscreen: 0-lin 1-nonlin 2-no                           
   RPACOR =    1.500    partial core radius                                     
   POMASS =   63.546; ZVAL   =   17.000    mass and valenz                      
   RCORE  =    2.000    outmost cutoff radius                                   
   RWIGS  =    2.000; RWIGS  =    1.058    wigner-seitz radius (au A)           
   ENMAX  =  368.648; ENMIN  =  276.486 eV                                      
   RCLOC  =    1.304    cutoff for local pot                                    
   LCOR   =        T    correct aug charges                                     
   LPAW   =        T    paw PP                                                  
   EAUG   =  758.233                                                            
   DEXC   =    0.000                                                            
   RMAX   =    2.046    core radius for proj-oper                               
   RAUG   =    1.300    factor for augmentation sphere                          
   RDEP   =    2.025    radius for radial grids                                 
   RDEPT  =    1.558    core radius for aug-charge                              
                                                                                
   Atomic configuration                                                         
    8 entries                                                                   
     n  l   j            E        occ.                                          
     1  0  0.50     -8850.2467   2.0000                                         
     2  0  0.50     -1062.3498   2.0000                                         
     2  1  1.50      -916.8226   6.0000                                         
     3  0  0.50      -114.6929   2.0000                                         
     3  1  1.50       -72.1325   6.0000                                         
     3  2  2.50        -5.0394  10.0000                                         
     4  0  0.50        -4.6097   1.0000                                         
     4  3  2.50        -1.3606   0.0000                                         
   Description                                                                  
     l       E           TYP  RCUT    TYP  RCUT                                 
     1    -72.1324777     23  1.700                                             
     1     -1.3605826     23  1.700                                             
     2     -5.0393776     23  2.000                                             
     2     -6.3999602     23  2.000                                             
     0     -4.6097062     23  1.800                                             
     0     14.1620818     23  1.800                                             
  local pseudopotential read in
  partial core-charges read in
  partial kinetic energy density read in
  atomic valenz-charges read in
  non local Contribution for L=           1  read in
    real space projection operators read in
  non local Contribution for L=           1  read in
    real space projection operators read in
  non local Contribution for L=           2  read in
    real space projection operators read in
  non local Contribution for L=           2  read in
    real space projection operators read in
  non local Contribution for L=           0  read in
    real space projection operators read in
  non local Contribution for L=           0  read in
    real space projection operators read in
    PAW grid and wavefunctions read in
 
   number of l-projection  operators is LMAX  =           6
   number of lm-projection operators is LMMAX =          18
 
 POTCAR:     PAW_PBE Fe_pv 02Aug2007              
   SHA256 =  5d22e414b1f82158bf2c7ecb8b97b28fd0923e48cadc1c3bf74d524558f5dd32 Fe
   COPYR  = (c) Copyright 02Aug2007 Georg Kresse                                
   COPYR  = This file is part of the software VASP. Any use, copying, and all ot
   COPYR  = If you do not have a valid VASP license, you may not use, copy or di
   VRHFIN =Fe:  3pd7s1                                                          
   LEXCH  = PE                                                                  
   EATOM  =  2457.4239 eV,  180.6156 Ry                                         
                                                                                
   TITEL  = PAW_PBE Fe_pv 02Aug2007                                             
   LULTRA =        F    use ultrasoft PP ?                                      
   IUNSCR =        1    unscreen: 0-lin 1-nonlin 2-no                           
   RPACOR =    1.750    partial core radius                                     
   POMASS =   55.847; ZVAL   =   14.000    mass and valenz                      
   RCORE  =    2.200    outmost cutoff radius                                   
   RWIGS  =    2.200; RWIGS  =    1.164    wigner-seitz radius (au A)           
   ENMAX  =  293.238; ENMIN  =  219.928 eV                                      
   ICORE  =        3    local potential                                         
   LCOR   =        T    correct aug charges                                     
   LPAW   =        T    paw PP                                                  
   EAUG   =  578.342                                                            
   DEXC   =    0.000                                                            
   RMAX   =    2.249    core radius for proj-oper                               
   RAUG   =    1.300    factor for augmentation sphere                          
   RDEP   =    2.296    radius for radial grids                                 
   RDEPT  =    1.766    core radius for aug-charge                              
                                                                                
   Atomic configuration                                                         
    8 entries                                                                   
     n  l   j            E        occ.                                          
     1  0  0.50     -6993.8440   2.0000                                         
     2  0  0.50      -814.6047   2.0000                                         
     2  1  1.50      -693.3689   6.0000                                         
     3  0  0.50       -89.4732   2.0000                                         
     3  1  1.50       -55.6373   6.0000                                         
     3  2  2.50        -3.8151   7.0000                                         
     4  0  0.50        -4.2551   1.0000                                         
     4  3  2.50        -1.3606   0.0000                                         
   Description                                                                  
     l       E           TYP  RCUT    TYP  RCUT                                 
     1    -55.6372668     23  2.000                                             
     1     -5.4423304     23  2.000                                             
     2     -3.8151096     23  2.200                                             
     2     -5.1756922     23  2.200                                             
     0     -4.2550951     23  2.200                                             
     0     27.2116520     23  2.200                                             
     3     -1.3605826     23  2.200                                             
  local pseudopotential read in
  partial core-charges read in
  partial kinetic energy density read in
  atomic valenz-charges read in
  non local Contribution for L=           1  read in
    real space projection operators read in
  non local Contribution for L=           1  read in
    real space projection operators read in
  non local Contribution for L=           2  read in
    real space projection operators read in
  non local Contribution for L=           2  read in
    real space projection operators read in
  non local Contribution for L=           0  read in
    real space projection operators read in
  non local Contribution for L=           0  read in
    real space projection operators read in
    PAW grid and wavefunctions read in
 
   number of l-projection  operators is LMAX  =           6
   number of lm-projection operators is LMMAX =          18
 

 ----------------------------------------------------------------------------- 
|                                                                             |
|  ADVICE TO THIS USER RUNNING 'VASP/VAMP'   (HEAR YOUR MASTER'S VOICE ...):  |
|                                                                             |
|      You have a (more or less) 'large supercell' and for larger cells       |
|      it might be more efficient to use real space projection opertators     |
|      So try LREAL= Auto  in the INCAR   file.                               |
|      Mind:          For very  accurate calculation you might also keep the  |
|      reciprocal projection scheme          (i.e. LREAL=.FALSE.)             |
|                                                                             |
 ----------------------------------------------------------------------------- 


 ----------------------------------------------------------------------------- 
|                                                                             |
|  ADVICE TO THIS USER RUNNING 'VASP/VAMP'   (HEAR YOUR MASTER'S VOICE ...):  |
|                                                                             |
|      You enforced a specific xc-type in the INCAR file,                     |
|      a different type was found on the POTCAR file                          |
|          I HOPE YOU KNOW, WHAT YOU ARE  DOING                               |
|                                                                             |
 ----------------------------------------------------------------------------- 

  PAW_PBE S 06Sep2000                   :
 energy of atom  1       EATOM= -276.8230
 kinetic energy error for atom=    0.0007 (will be added to EATOM!!)
   PAW_PBE Cu_pv 06Sep2000              :
 energy of atom  2       EATOM=-4120.1201
 kinetic energy error for atom=    0.0094 (will be added to EATOM!!)
   PAW_PBE Fe_pv 02Aug2007              :
 energy of atom  3       EATOM=-2457.4239
 kinetic energy error for atom=    0.0025 (will be added to EATOM!!)
 
 
 POSCAR: generated by phonopy                    
  positions in direct lattice
  velocities in cartesian coordinates
 exchange correlation table for  LEXCH =       14
   RHO(1)=    0.500       N(1)  =     2000
   RHO(2)=  100.500       N(2)  =     4000
 


--------------------------------------------------------------------------------------------------------


 ion  position               nearest neighbor table
   1  0.126  0.119  0.126-  41 2.26  61 2.26  37 2.27  49 2.29
   2  0.626  0.119  0.126-  42 2.26  62 2.26  38 2.27  50 2.29
   3  0.126  0.619  0.126-  43 2.26  63 2.26  39 2.27  51 2.29
   4  0.626  0.619  0.126-  44 2.26  64 2.26  40 2.27  52 2.29
   5  0.374  0.369  0.124-  39 2.26  52 2.26  41 2.27  62 2.29
   6  0.874  0.369  0.124-  40 2.26  51 2.26  42 2.27  61 2.29
   7  0.374  0.869  0.124-  37 2.26  50 2.26  43 2.27  64 2.29
   8  0.874  0.869  0.124-  38 2.26  49 2.26  44 2.27  63 2.29
   9  0.125  0.370  0.875-  41 2.27  45 2.27  51 2.27  55 2.27
  10  0.625  0.370  0.875-  42 2.27  46 2.27  56 2.27  52 2.27
  11  0.125  0.870  0.875-  43 2.27  47 2.27  49 2.27  53 2.27
  12  0.625  0.870  0.875-  44 2.27  48 2.27  54 2.27  50 2.27
  13  0.375  0.122  0.875-  41 2.26  46 2.26  50 2.29  53 2.29
  14  0.875  0.122  0.875-  42 2.26  45 2.26  49 2.29  54 2.29
  15  0.375  0.622  0.875-  43 2.26  48 2.26  52 2.29  55 2.29
  16  0.875  0.622  0.875-  44 2.26  47 2.26  51 2.29  56 2.29
  17  0.124  0.119  0.624-  45 2.26  57 2.26  33 2.27  53 2.29
  18  0.624  0.119  0.624-  46 2.26  58 2.26  34 2.27  54 2.29
  19  0.124  0.619  0.624-  47 2.26  59 2.26  35 2.27  55 2.29
  20  0.624  0.619  0.624-  48 2.26  60 2.26  36 2.27  56 2.29
  21  0.376  0.369  0.626-  36 2.26  55 2.26  46 2.27  57 2.29
  22  0.876  0.369  0.626-  35 2.26  56 2.26  45 2.27  58 2.29
  23  0.376  0.869  0.626-  34 2.26  53 2.26  48 2.27  59 2.29
  24  0.876  0.869  0.626-  33 2.26  54 2.26  47 2.27  60 2.29
  25  0.375  0.120  0.375-  34 2.27  37 2.27  62 2.27  57 2.27
  26  0.875  0.120  0.375-  33 2.27  38 2.27  58 2.27  61 2.27
  27  0.375  0.620  0.375-  36 2.27  39 2.27  64 2.27  59 2.27
  28  0.875  0.620  0.375-  35 2.27  40 2.27  60 2.27  63 2.27
  29  0.125  0.372  0.375-  39 2.26  35 2.26  57 2.29  61 2.29
  30  0.625  0.372  0.375-  36 2.26  40 2.26  58 2.29  62 2.29
  31  0.125  0.872  0.375-  37 2.26  33 2.26  59 2.29  63 2.29
  32  0.625  0.872  0.375-  34 2.26  38 2.26  60 2.29  64 2.29
  33  0.998  0.005  0.500-  24 2.26  31 2.26  26 2.27  17 2.27
  34  0.498  0.005  0.500-  23 2.26  32 2.26  25 2.27  18 2.27
  35  0.998  0.505  0.500-  22 2.26  29 2.26  28 2.27  19 2.27
  36  0.498  0.505  0.500-  21 2.26  30 2.26  27 2.27  20 2.27
  37  0.252  0.005  0.250-   7 2.26  31 2.26  25 2.27   1 2.27
  38  0.752  0.005  0.250-   8 2.26  32 2.26  26 2.27   2 2.27
  39  0.252  0.505  0.250-   5 2.26  29 2.26  27 2.27   3 2.27
  40  0.752  0.505  0.250-   6 2.26  30 2.26  28 2.27   4 2.27
  41  0.248  0.255  0.000-   1 2.26  13 2.26   9 2.27   5 2.27
  42  0.748  0.255  0.000-   2 2.26  14 2.26  10 2.27   6 2.27
  43  0.248  0.755  0.000-   3 2.26  15 2.26  11 2.27   7 2.27
  44  0.748  0.755  0.000-   4 2.26  16 2.26  12 2.27   8 2.27
  45  0.002  0.255  0.750-  17 2.26  14 2.26   9 2.27  22 2.27
  46  0.502  0.255  0.750-  18 2.26  13 2.26  10 2.27  21 2.27
  47  0.002  0.755  0.750-  19 2.26  16 2.26  11 2.27  24 2.27
  48  0.502  0.755  0.750-  20 2.26  15 2.26  12 2.27  23 2.27
  49  0.999  0.005  0.000-   8 2.26  11 2.27  14 2.29   1 2.29
  50  0.499  0.005  0.000-   7 2.26  12 2.27  13 2.29   2 2.29
  51  0.999  0.505  0.000-   6 2.26   9 2.27  16 2.29   3 2.29
  52  0.499  0.505  0.000-   5 2.26  10 2.27  15 2.29   4 2.29
  53  0.251  0.005  0.750-  23 2.26  11 2.27  13 2.29  17 2.29
  54  0.751  0.005  0.750-  24 2.26  12 2.27  14 2.29  18 2.29
  55  0.251  0.505  0.750-  21 2.26   9 2.27  15 2.29  19 2.29
  56  0.751  0.505  0.750-  22 2.26  10 2.27  16 2.29  20 2.29
  57  0.249  0.255  0.500-  17 2.26  25 2.27  29 2.29  21 2.29
  58  0.749  0.255  0.500-  18 2.26  26 2.27  30 2.29  22 2.29
  59  0.249  0.755  0.500-  19 2.26  27 2.27  31 2.29  23 2.29
  60  0.749  0.755  0.500-  20 2.26  28 2.27  32 2.29  24 2.29
  61  0.001  0.255  0.250-   1 2.26  26 2.27  29 2.29   6 2.29
  62  0.501  0.255  0.250-   2 2.26  25 2.27  30 2.29   5 2.29
  63  0.001  0.755  0.250-   3 2.26  28 2.27  31 2.29   8 2.29
  64  0.501  0.755  0.250-   4 2.26  27 2.27  32 2.29   7 2.29
 
  LATTYP: Found a simple monoclinic cell.
 ALAT       =    15.4290107936
 B/A-ratio  =     0.6819988677
 C/A-ratio  =     1.5639889668
 COS(beta)  =    -0.9561329010
  
  Lattice vectors:
  
 A1 = ( -11.4233006868,   0.0000000000, -10.3712378957)
 A2 = (   0.0000000000, -10.5225678906,   0.0000000000)
 A3 = (  12.3306664294,   0.0000000000,  20.7424757914)


Analysis of symmetry for initial positions (statically):
=====================================================================
 Subroutine PRICEL returns following result:
 
  LATTYP: Found a base centered monoclinic cell.
 ALAT       =    11.2467911378
 B/A-ratio  =     0.4678031165
 C/A-ratio  =     0.9256733065
 COS(beta)  =    -0.8015567528
  
  Lattice vectors:
  
 A1 = (  -2.1753008647,  -2.6306419727,   5.1856189479)
 A2 = (  -2.1753008647,   2.6306419727,   5.1856189479)
 A3 = (  -0.9073657426,   0.0000000000, -10.3712378957)
 
   8 primitive cells build up your supercell.
 

 Routine SETGRP: Setting up the symmetry group for a 
 simple monoclinic supercell.


 Subroutine GETGRP returns: Found  2 space group operations
 (whereof  1 operations were pure point group operations)
 out of a pool of  4 trial point group operations.


The static configuration has the point symmetry C_1 .
 The point group associated with its full space group is C_2 .


Analysis of symmetry for dynamics (positions and initial velocities):
=====================================================================
 Subroutine PRICEL returns following result:
 
  LATTYP: Found a base centered monoclinic cell.
 ALAT       =    11.2467911378
 B/A-ratio  =     0.4678031165
 C/A-ratio  =     0.9256733065
 COS(beta)  =    -0.8015567528
  
  Lattice vectors:
  
 A1 = (  -2.1753008647,  -2.6306419727,   5.1856189479)
 A2 = (  -2.1753008647,   2.6306419727,   5.1856189479)
 A3 = (  -0.9073657426,   0.0000000000, -10.3712378957)
 
   8 primitive cells build up your supercell.
 

 Routine SETGRP: Setting up the symmetry group for a 
 simple monoclinic supercell.


 Subroutine GETGRP returns: Found  2 space group operations
 (whereof  1 operations were pure point group operations)
 out of a pool of  4 trial point group operations.


The dynamic configuration has the point symmetry C_1 .
 The point group associated with its full space group is C_2 .


Analysis of structural, dynamic, and magnetic symmetry:
=====================================================================
 Subroutine PRICEL returns following result:
 
  LATTYP: Found a base centered monoclinic cell.
 ALAT       =    11.2467911378
 B/A-ratio  =     0.4678031165
 C/A-ratio  =     0.9256733065
 COS(beta)  =    -0.8015567528
  
  Lattice vectors:
  
 A1 = (  -2.1753008647,  -2.6306419727,   5.1856189479)
 A2 = (  -2.1753008647,   2.6306419727,   5.1856189479)
 A3 = (  -0.9073657426,   0.0000000000, -10.3712378957)
 
   8 primitive cells build up your supercell.
 

 Routine SETGRP: Setting up the symmetry group for a 
 simple monoclinic supercell.


 Subroutine GETGRP returns: Found  2 space group operations
 (whereof  1 operations were pure point group operations)
 out of a pool of  4 trial point group operations.


The magnetic configuration has the point symmetry C_1 .
 The point group associated with its full space group is C_2 .


 Subroutine INISYM returns: Found  2 space group operations
 (whereof  1 operations are pure point group operations),
 and found     8 'primitive' translations

 
 
 KPOINTS: Automatic mesh                          

Automatic generation of k-mesh.
Space group operators:
 irot       det(A)        alpha          n_x          n_y          n_z        tau_x        tau_y        tau_z
    1     1.000000     0.000000     1.000000     0.000000     0.000000     0.000000     0.000000     0.000000
    2     1.000000   179.999999     0.000000     1.000000     0.000000    -0.250000    -0.000000    -0.250000
 
 Subroutine IBZKPT returns following result:
 ===========================================
 
 Found     30 irreducible k-points:
 
 Following reciprocal coordinates:
            Coordinates               Weight
  0.000000  0.000000  0.000000      1.000000
  0.250000  0.000000  0.000000      2.000000
  0.500000  0.000000  0.000000      1.000000
  0.000000  0.250000  0.000000      2.000000
  0.250000  0.250000  0.000000      4.000000
  0.500000  0.250000  0.000000      2.000000
  0.000000  0.500000  0.000000      1.000000
  0.250000  0.500000  0.000000      2.000000
  0.500000  0.500000  0.000000      1.000000
  0.000000  0.000000  0.250000      2.000000
  0.250000  0.000000  0.250000      2.000000
  0.500000  0.000000  0.250000      2.000000
 -0.250000  0.000000  0.250000      2.000000
  0.000000  0.250000  0.250000      4.000000
  0.250000  0.250000  0.250000      4.000000
  0.500000  0.250000  0.250000      4.000000
 -0.250000  0.250000  0.250000      4.000000
  0.000000  0.500000  0.250000      2.000000
  0.250000  0.500000  0.250000      2.000000
  0.500000  0.500000  0.250000      2.000000
 -0.250000  0.500000  0.250000      2.000000
  0.000000  0.000000  0.500000      1.000000
  0.250000  0.000000  0.500000      2.000000
  0.500000  0.000000  0.500000      1.000000
  0.000000  0.250000  0.500000      2.000000
  0.250000  0.250000  0.500000      4.000000
  0.500000  0.250000  0.500000      2.000000
  0.000000  0.500000  0.500000      1.000000
  0.250000  0.500000  0.500000      2.000000
  0.500000  0.500000  0.500000      1.000000
 
 Following cartesian coordinates:
            Coordinates               Weight
  0.000000  0.000000  0.000000      1.000000
  0.023773  0.000000 -0.002080      2.000000
  0.047547  0.000000 -0.004160      1.000000
  0.000000  0.023758  0.000000      2.000000
  0.023773  0.023758 -0.002080      4.000000
  0.047547  0.023758 -0.004160      2.000000
  0.000000  0.047517  0.000000      1.000000
  0.023773  0.047517 -0.002080      2.000000
  0.047547  0.047517 -0.004160      1.000000
  0.000000  0.000000  0.024105      2.000000
  0.023773  0.000000  0.022025      2.000000
  0.047547  0.000000  0.019945      2.000000
 -0.023773  0.000000  0.026185      2.000000
  0.000000  0.023758  0.024105      4.000000
  0.023773  0.023758  0.022025      4.000000
  0.047547  0.023758  0.019945      4.000000
 -0.023773  0.023758  0.026185      4.000000
  0.000000  0.047517  0.024105      2.000000
  0.023773  0.047517  0.022025      2.000000
  0.047547  0.047517  0.019945      2.000000
 -0.023773  0.047517  0.026185      2.000000
  0.000000  0.000000  0.048210      1.000000
  0.023773  0.000000  0.046130      2.000000
  0.047547  0.000000  0.044050      1.000000
  0.000000  0.023758  0.048210      2.000000
  0.023773  0.023758  0.046130      4.000000
  0.047547  0.023758  0.044050      2.000000
  0.000000  0.047517  0.048210      1.000000
  0.023773  0.047517  0.046130      2.000000
  0.047547  0.047517  0.044050      1.000000
 
 TETIRR: Found    192 inequivalent tetrahedra from      384
 
 Subroutine IBZKPT_HF returns following result:
 ==============================================
 
 Found     64 k-points in 1st BZ
 the following     64 k-points will be used (e.g. in the exchange kernel)
 Following reciprocal coordinates:   # in IRBZ
  0.000000  0.000000  0.000000    0.01562500   1 t-inv F
  0.250000  0.000000  0.000000    0.01562500   2 t-inv F
  0.500000  0.000000  0.000000    0.01562500   3 t-inv F
  0.000000  0.250000  0.000000    0.01562500   4 t-inv F
  0.250000  0.250000  0.000000    0.01562500   5 t-inv F
  0.500000  0.250000  0.000000    0.01562500   6 t-inv F
  0.000000  0.500000  0.000000    0.01562500   7 t-inv F
  0.250000  0.500000  0.000000    0.01562500   8 t-inv F
  0.500000  0.500000  0.000000    0.01562500   9 t-inv F
  0.000000  0.000000  0.250000    0.01562500  10 t-inv F
  0.250000  0.000000  0.250000    0.01562500  11 t-inv F
  0.500000  0.000000  0.250000    0.01562500  12 t-inv F
 -0.250000  0.000000  0.250000    0.01562500  13 t-inv F
  0.000000  0.250000  0.250000    0.01562500  14 t-inv F
  0.250000  0.250000  0.250000    0.01562500  15 t-inv F
  0.500000  0.250000  0.250000    0.01562500  16 t-inv F
 -0.250000  0.250000  0.250000    0.01562500  17 t-inv F
  0.000000  0.500000  0.250000    0.01562500  18 t-inv F
  0.250000  0.500000  0.250000    0.01562500  19 t-inv F
  0.500000  0.500000  0.250000    0.01562500  20 t-inv F
 -0.250000  0.500000  0.250000    0.01562500  21 t-inv F
  0.000000  0.000000  0.500000    0.01562500  22 t-inv F
  0.250000  0.000000  0.500000    0.01562500  23 t-inv F
  0.500000  0.000000  0.500000    0.01562500  24 t-inv F
  0.000000  0.250000  0.500000    0.01562500  25 t-inv F
  0.250000  0.250000  0.500000    0.01562500  26 t-inv F
  0.500000  0.250000  0.500000    0.01562500  27 t-inv F
  0.000000  0.500000  0.500000    0.01562500  28 t-inv F
  0.250000  0.500000  0.500000    0.01562500  29 t-inv F
  0.500000  0.500000  0.500000    0.01562500  30 t-inv F
 -0.250000  0.000000  0.000000    0.01562500   2 t-inv F spinflp
 -0.250000  0.250000  0.000000    0.01562500   5 t-inv F spinflp
 -0.250000  0.500000  0.000000    0.01562500   8 t-inv F spinflp
  0.000000  0.000000 -0.250000    0.01562500  10 t-inv F spinflp
 -0.250000  0.000000 -0.250000    0.01562500  11 t-inv F spinflp
 -0.500000  0.000000 -0.250000    0.01562500  12 t-inv F spinflp
  0.250000  0.000000 -0.250000    0.01562500  13 t-inv F spinflp
  0.000000  0.250000 -0.250000    0.01562500  14 t-inv F spinflp
 -0.250000  0.250000 -0.250000    0.01562500  15 t-inv F spinflp
 -0.500000  0.250000 -0.250000    0.01562500  16 t-inv F spinflp
  0.250000  0.250000 -0.250000    0.01562500  17 t-inv F spinflp
  0.000000  0.500000 -0.250000    0.01562500  18 t-inv F spinflp
 -0.250000  0.500000 -0.250000    0.01562500  19 t-inv F spinflp
 -0.500000  0.500000 -0.250000    0.01562500  20 t-inv F spinflp
  0.250000  0.500000 -0.250000    0.01562500  21 t-inv F spinflp
 -0.250000  0.000000 -0.500000    0.01562500  23 t-inv F spinflp
 -0.250000  0.250000 -0.500000    0.01562500  26 t-inv F spinflp
 -0.250000  0.500000 -0.500000    0.01562500  29 t-inv F spinflp
  0.000000 -0.250000  0.000000    0.01562500   4 t-inv T
 -0.250000 -0.250000  0.000000    0.01562500   5 t-inv T
  0.250000 -0.250000  0.000000    0.01562500   5 t-inv T spinflp
 -0.500000 -0.250000  0.000000    0.01562500   6 t-inv T
  0.000000 -0.250000 -0.250000    0.01562500  14 t-inv T
  0.000000 -0.250000  0.250000    0.01562500  14 t-inv T spinflp
 -0.250000 -0.250000 -0.250000    0.01562500  15 t-inv T
  0.250000 -0.250000  0.250000    0.01562500  15 t-inv T spinflp
 -0.500000 -0.250000 -0.250000    0.01562500  16 t-inv T
  0.500000 -0.250000  0.250000    0.01562500  16 t-inv T spinflp
  0.250000 -0.250000 -0.250000    0.01562500  17 t-inv T
 -0.250000 -0.250000  0.250000    0.01562500  17 t-inv T spinflp
  0.000000 -0.250000 -0.500000    0.01562500  25 t-inv T
 -0.250000 -0.250000 -0.500000    0.01562500  26 t-inv T
  0.250000 -0.250000  0.500000    0.01562500  26 t-inv T spinflp
 -0.500000 -0.250000 -0.500000    0.01562500  27 t-inv T


--------------------------------------------------------------------------------------------------------




 Dimension of arrays:
   k-points           NKPTS =     30   k-points in BZ     NKDIM =     30   number of bands    NBANDS=    512
   number of dos      NEDOS =    301   number of ions     NIONS =     64
   non local maximal  LDIM  =      6   non local SUM 2l+1 LMDIM =     18
   total plane-waves  NPLWV = 829440
   max r-space proj   IRMAX =      1   max aug-charges    IRDMAX=  22967
   dimension x,y,z NGX =    96 NGY =   96 NGZ =   90
   dimension x,y,z NGXF=   192 NGYF=  192 NGZF=  180
   support grid    NGXF=   192 NGYF=  192 NGZF=  180
   ions per type =              32  16  16
   NGX,Y,Z   is equivalent  to a cutoff of  15.18, 15.17, 14.37 a.u.
   NGXF,Y,Z  is equivalent  to a cutoff of  30.35, 30.33, 28.74 a.u.

 SYSTEM =  CuFeS2                                  
 POSCAR =  generated by phonopy                    

 Startparameter for this run:
   NWRITE =      2    write-flag & timer
   PREC   = accura    normal or accurate (medium, high low for compatibility)
   ISTART =      1    job   : 0-new  1-cont  2-samecut
   ICHARG =      1    charge: 1-file 2-atom 10-const
   ISPIN  =      2    spin polarized calculation?
   LNONCOLLINEAR =      F non collinear calculations
   LSORBIT =      F    spin-orbit coupling
   INIWAV =      1    electr: 0-lowe 1-rand  2-diag
   LASPH  =      F    aspherical Exc in radial PAW
   METAGGA=      F    non-selfconsistent MetaGGA calc.

 Electronic Relaxation 1
   ENCUT  =  700.0 eV  51.45 Ry    7.17 a.u.  22.69 22.70 22.46*2*pi/ulx,y,z
   ENINI  =  700.0     initial cutoff
   ENAUG  =  758.2 eV  augmentation charge cutoff
   NELM   =    500;   NELMIN=  2; NELMDL=  0     # of ELM steps 
   EDIFF  = 0.1E-07   stopping-criterion for ELM
   LREAL  =      F    real-space projection
   NLSPLINE    = F    spline interpolate recip. space projectors
   LCOMPAT=      F    compatible to vasp.4.4
   GGA_COMPAT  = T    GGA compatible to vasp.4.4-vasp.4.6
   LMAXPAW     = -100 max onsite density
   LMAXMIX     =    4 max onsite mixed and CHGCAR
   VOSKOWN=      0    Vosko Wilk Nusair interpolation
   ROPT   =    0.00000   0.00000   0.00000
 Ionic relaxation
   EDIFFG = -.1E-04   stopping-criterion for IOM
   NSW    =      0    number of steps for IOM
   NBLOCK =      1;   KBLOCK =      1    inner block; outer block 
   IBRION =     -1    ionic relax: 0-MD 1-quasi-New 2-CG
   NFREE  =      0    steps in history (QN), initial steepest desc. (CG)
   ISIF   =      2    stress and relaxation
   IWAVPR =     10    prediction:  0-non 1-charg 2-wave 3-comb
   ISYM   =      2    0-nonsym 1-usesym 2-fastsym
   LCORR  =      T    Harris-Foulkes like correction to forces

   POTIM  = 0.5000    time-step for ionic-motion
   TEIN   =    0.0    initial temperature
   TEBEG  =    0.0;   TEEND  =   0.0 temperature during run
   SMASS  =  -3.00    Nose mass-parameter (am)
   estimated Nose-frequenzy (Omega)   =  0.10E-29 period in steps =****** mass=  -0.253E-26a.u.
   SCALEE = 1.0000    scale energy and forces
   NPACO  =    256;   APACO  = 16.0  distance and # of slots for P.C.
   PSTRESS=    0.0 pullay stress

  Mass of Ions in am
   POMASS =  32.07 63.55 55.85
  Ionic Valenz
   ZVAL   =   6.00 17.00 14.00
  Atomic Wigner-Seitz radii
   RWIGS  =  -1.00 -1.00 -1.00
  virtual crystal weights 
   VCA    =   1.00  1.00  1.00
   NELECT =     688.0000    total number of electrons
   NUPDOWN=      -1.0000    fix difference up-down

 DOS related values:
   EMIN   =  10.00;   EMAX   =-10.00  energy-range for DOS
   EFERMI =   0.00
   ISMEAR =    -5;   SIGMA  =   0.03  broadening in eV -4-tet -1-fermi 0-gaus

 Electronic relaxation 2 (details)
   IALGO  =     38    algorithm
   LDIAG  =      T    sub-space diagonalisation (order eigenvalues)
   LSUBROT=      F    optimize rotation matrix (better conditioning)
   TURBO    =      0    0=normal 1=particle mesh
   IRESTART =      0    0=no restart 2=restart with 2 vectors
   NREBOOT  =      0    no. of reboots
   NMIN     =      0    reboot dimension
   EREF     =   0.00    reference energy to select bands
   IMIX   =      4    mixing-type and parameters
     AMIX     =   0.40;   BMIX     =  1.00
     AMIX_MAG =   1.60;   BMIX_MAG =  1.00
     AMIN     =   0.10
     WC   =   100.;   INIMIX=   1;  MIXPRE=   1;  MAXMIX= -45

 Intra band minimization:
   WEIMIN = 0.0000     energy-eigenvalue tresh-hold
   EBREAK =  0.49E-11  absolut break condition
   DEPER  =   0.30     relativ break condition  

   TIME   =   0.40     timestep for ELM

  volume/ion in A,a.u.               =      17.93       121.01
  Fermi-wavevector in a.u.,A,eV,Ry     =   1.380398  2.608573 25.925873  1.905498
  Thomas-Fermi vector in A             =   2.505279
 
 Write flags
   LWAVE        =      T    write WAVECAR
   LDOWNSAMPLE  =      F    k-point downsampling of WAVECAR
   LCHARG       =      T    write CHGCAR
   LVTOT        =      F    write LOCPOT, total local potential
   LVHAR        =      F    write LOCPOT, Hartree potential only
   LELF         =      F    write electronic localiz. function (ELF)
   LORBIT       =     11    0 simple, 1 ext, 2 COOP (PROOUT), +10 PAW based schemes


 Dipole corrections
   LMONO  =      F    monopole corrections only (constant potential shift)
   LDIPOL =      F    correct potential (dipole corrections)
   IDIPOL =      0    1-x, 2-y, 3-z, 4-all directions 
   EPSILON=  1.0000000 bulk dielectric constant

 LDA+U is selected, type is set to LDAUTYPE =  2
   angular momentum for each species LDAUL =     2    2    2
   U (eV)           for each species LDAUU =   0.0  0.1  4.7
   J (eV)           for each species LDAUJ =   0.0  0.0  0.0
 Exchange correlation treatment:
   GGA     =    PS    GGA type
   LEXCH   =    14    internal setting for exchange type
   VOSKOWN=      0    Vosko Wilk Nusair interpolation
   LHFCALC =     F    Hartree Fock is set to
   LHFONE  =     F    Hartree Fock one center treatment
   AEXX    =    0.0000 exact exchange contribution

 Linear response parameters
   LEPSILON=     T    determine dielectric tensor
   LRPA    =     F    only Hartree local field effects (RPA)
   LNABLA  =     F    use nabla operator in PAW spheres
   LVEL    =     F    velocity operator in full k-point grid
   LINTERFAST=   F  fast interpolation
   KINTER  =     0    interpolate to denser k-point grid
   CSHIFT  =0.1000    complex shift for real part using Kramers Kronig
   OMEGAMAX=  -1.0    maximum frequency
   DEG_THRESHOLD= 0.2000000E-02 threshold for treating states as degnerate
   RTIME   =   -0.100 relaxation time in fs
  (WPLASMAI=    0.000 imaginary part of plasma frequency in eV, 0.658/RTIME)
   DFIELD  = 0.0000000 0.0000000 0.0000000 field for delta impulse in time
 
 Orbital magnetization related:
   ORBITALMAG=     F  switch on orbital magnetization
   LCHIMAG   =     F  perturbation theory with respect to B field
   DQ        =  0.001000  dq finite difference perturbation B field
   LLRAUG    =     F  two centre corrections for induced B field

 PEAD related settings:
   LPEAD      =     T    switch on PEAD
   IPEAD      =     4    finite difference order for dpsi/dk
   LCALCPOL   =     T    calculate macroscopic polarization
   LCALCEPS   =     F    calculate dielectric tensor
   EFIELD_PEAD=    0.0000    0.0000    0.0000
   SKIP_EDOTP =     F
   LRPA       =     F
   SKIP_SCF   =     F


--------------------------------------------------------------------------------------------------------


 Static calculation
 charge density and potential will be updated during run
 spin polarized calculation
 Variant of blocked Davidson
 Davidson routine will perform the subspace rotation
 perform sub-space diagonalisation
    after iterative eigenvector-optimisation
 modified Broyden-mixing scheme, WC =      100.0
 initial mixing is a Kerker type mixing with AMIX =  0.4000 and BMIX =      1.0000
 Hartree-type preconditioning will be used
 using additional bands          168
 reciprocal scheme for non local part
 use partial core corrections
 calculate Harris-corrections to forces 
   (improved forces if not selfconsistent)
 use gradient corrections 
 use of overlap-Matrix (Vanderbilt PP)
 Fermi weights with tetrahedron method with Bloechl corrections


--------------------------------------------------------------------------------------------------------


  energy-cutoff  :      700.00
  volume of cell :     1147.63
      direct lattice vectors                 reciprocal lattice vectors
    10.515934944  0.000000000  0.000000000     0.095093780  0.000000000 -0.008319628
     0.000000000 10.522567891  0.000000000     0.000000000  0.095033837  0.000000000
     0.907365743  0.000000000 10.371237896     0.000000000  0.000000000  0.096420505

  length of vectors
    10.515934944 10.522567891 10.410854340     0.095457022  0.095033837  0.096420505


 
 old parameters found on file WAVECAR:
  energy-cutoff  :      700.00
  volume of cell :     1147.63
      direct lattice vectors                 reciprocal lattice vectors
    10.515934944  0.000000000  0.000000000     0.095093780  0.000000000 -0.008319628
     0.000000000 10.522571764  0.000000000     0.000000000  0.095033802  0.000000000
     0.907365743  0.000000000 10.371237896     0.000000000  0.000000000  0.096420505

  length of vectors

 
 k-points in units of 2pi/SCALE and weight: Automatic mesh                          
   0.00000000  0.00000000  0.00000000       0.016
   0.02377344  0.00000000 -0.00207991       0.031
   0.04754689  0.00000000 -0.00415981       0.016
   0.00000000  0.02375846  0.00000000       0.031
   0.02377344  0.02375846 -0.00207991       0.062
   0.04754689  0.02375846 -0.00415981       0.031
   0.00000000  0.04751692  0.00000000       0.016
   0.02377344  0.04751692 -0.00207991       0.031
   0.04754689  0.04751692 -0.00415981       0.016
   0.00000000  0.00000000  0.02410513       0.031
   0.02377344  0.00000000  0.02202522       0.031
   0.04754689  0.00000000  0.01994531       0.031
  -0.02377344  0.00000000  0.02618503       0.031
   0.00000000  0.02375846  0.02410513       0.062
   0.02377344  0.02375846  0.02202522       0.062
   0.04754689  0.02375846  0.01994531       0.062
  -0.02377344  0.02375846  0.02618503       0.062
   0.00000000  0.04751692  0.02410513       0.031
   0.02377344  0.04751692  0.02202522       0.031
   0.04754689  0.04751692  0.01994531       0.031
  -0.02377344  0.04751692  0.02618503       0.031
   0.00000000  0.00000000  0.04821025       0.016
   0.02377344  0.00000000  0.04613035       0.031
   0.04754689  0.00000000  0.04405044       0.016
   0.00000000  0.02375846  0.04821025       0.031
   0.02377344  0.02375846  0.04613035       0.062
   0.04754689  0.02375846  0.04405044       0.031
   0.00000000  0.04751692  0.04821025       0.016
   0.02377344  0.04751692  0.04613035       0.031
   0.04754689  0.04751692  0.04405044       0.016
 
 k-points in reciprocal lattice and weights: Automatic mesh                          
   0.00000000  0.00000000  0.00000000       0.016
   0.25000000  0.00000000  0.00000000       0.031
   0.50000000  0.00000000  0.00000000       0.016
   0.00000000  0.25000000  0.00000000       0.031
   0.25000000  0.25000000  0.00000000       0.062
   0.50000000  0.25000000  0.00000000       0.031
   0.00000000  0.50000000  0.00000000       0.016
   0.25000000  0.50000000  0.00000000       0.031
   0.50000000  0.50000000  0.00000000       0.016
   0.00000000  0.00000000  0.25000000       0.031
   0.25000000  0.00000000  0.25000000       0.031
   0.50000000  0.00000000  0.25000000       0.031
  -0.25000000  0.00000000  0.25000000       0.031
   0.00000000  0.25000000  0.25000000       0.062
   0.25000000  0.25000000  0.25000000       0.062
   0.50000000  0.25000000  0.25000000       0.062
  -0.25000000  0.25000000  0.25000000       0.062
   0.00000000  0.50000000  0.25000000       0.031
   0.25000000  0.50000000  0.25000000       0.031
   0.50000000  0.50000000  0.25000000       0.031
  -0.25000000  0.50000000  0.25000000       0.031
   0.00000000  0.00000000  0.50000000       0.016
   0.25000000  0.00000000  0.50000000       0.031
   0.50000000  0.00000000  0.50000000       0.016
   0.00000000  0.25000000  0.50000000       0.031
   0.25000000  0.25000000  0.50000000       0.062
   0.50000000  0.25000000  0.50000000       0.031
   0.00000000  0.50000000  0.50000000       0.016
   0.25000000  0.50000000  0.50000000       0.031
   0.50000000  0.50000000  0.50000000       0.016
 
 position of ions in fractional coordinates (direct lattice) 
   0.12631712  0.11943949  0.12586214
   0.62631711  0.11943949  0.12586214
   0.12631712  0.61943949  0.12586214
   0.62631711  0.61943949  0.12586214
   0.37368289  0.36943949  0.12413786
   0.87368289  0.36943949  0.12413786
   0.37368289  0.86943949  0.12413786
   0.87368289  0.86943949  0.12413786
   0.12500000  0.37039403  0.87500000
   0.62500000  0.37039403  0.87500000
   0.12500000  0.87039403  0.87500000
   0.62500000  0.87039403  0.87500000
   0.37500000  0.12224633  0.87500000
   0.87500000  0.12224633  0.87500000
   0.37500000  0.62224632  0.87500000
   0.87500000  0.62224632  0.87500000
   0.12368288  0.11943949  0.62413786
   0.62368289  0.11943949  0.62413786
   0.12368288  0.61943949  0.62413786
   0.62368289  0.61943949  0.62413786
   0.37631711  0.36943949  0.62586214
   0.87631711  0.36943949  0.62586214
   0.37631711  0.86943949  0.62586214
   0.87631711  0.86943949  0.62586214
   0.37500000  0.12039402  0.37500000
   0.87500000  0.12039402  0.37500000
   0.37500000  0.62039403  0.37500000
   0.87500000  0.62039403  0.37500000
   0.12500000  0.37224632  0.37500000
   0.62500000  0.37224632  0.37500000
   0.12500000  0.87224632  0.37500000
   0.62500000  0.87224632  0.37500000
   0.99812222  0.00470686  0.50001239
   0.49812222  0.00470686  0.50001239
   0.99812222  0.50470686  0.50001239
   0.49812222  0.50470686  0.50001239
   0.25187778  0.00470686  0.24998761
   0.75187778  0.00470686  0.24998761
   0.25187778  0.50470686  0.24998761
   0.75187778  0.50470686  0.24998761
   0.24812222  0.25470686  0.00001239
   0.74812222  0.25470686  0.00001239
   0.24812222  0.75470686  0.00001239
   0.74812222  0.75470686  0.00001239
   0.00187778  0.25470686  0.74998761
   0.50187778  0.25470686  0.74998761
   0.00187778  0.75470686  0.74998761
   0.50187778  0.75470686  0.74998761
   0.99897762  0.00453348  0.00043919
   0.49897762  0.00453348  0.00043919
   0.99897762  0.50453348  0.00043919
   0.49897762  0.50453348  0.00043919
   0.25102238  0.00453348  0.74956081
   0.75102238  0.00453348  0.74956081
   0.25102238  0.50453348  0.74956081
   0.75102238  0.50453348  0.74956081
   0.24897762  0.25453348  0.50043919
   0.74897762  0.25453348  0.50043919
   0.24897762  0.75453348  0.50043919
   0.74897762  0.75453348  0.50043919
   0.00102238  0.25453348  0.24956081
   0.50102238  0.25453348  0.24956081
   0.00102238  0.75453348  0.24956081
   0.50102238  0.75453348  0.24956081
 
 position of ions in cartesian coordinates  (Angst):
   1.44254565  1.25681014  1.30534622
   6.70051297  1.25681014  1.30534622
   1.44254565  6.51809409  1.30534622
   6.70051297  6.51809409  1.30534622
   4.04226341  3.88745211  1.28746325
   9.30023089  3.88745211  1.28746325
   4.04226341  9.14873606  1.28746325
   9.30023089  9.14873606  1.28746325
   2.10843689  3.89749635  9.07483316
   7.36640436  3.89749635  9.07483316
   2.10843689  9.15878030  9.07483316
   7.36640436  9.15878030  9.07483316
   4.73742063  1.28634531  9.07483316
   9.99538810  1.28634531  9.07483316
   4.73742063  6.54762910  9.07483316
   9.99538810  6.54762910  9.07483316
   1.86696246  1.25681014  6.47308220
   7.12493002  1.25681014  6.47308220
   1.86696246  6.51809409  6.47308220
   7.12493002  6.51809409  6.47308220
   4.52521210  3.88745211  6.49096517
   9.78317957  3.88745211  6.49096517
   4.52521210  9.14873606  6.49096517
   9.78317957  9.14873606  6.49096517
   4.28373776  1.26685429  3.88921421
   9.54170523  1.26685429  3.88921421
   4.28373776  6.52813832  3.88921421
   9.54170523  6.52813832  3.88921421
   1.65475402  3.91698713  3.88921421
   6.91272149  3.91698713  3.88921421
   1.65475402  9.17827107  3.88921421
   6.91272149  9.17827107  3.88921421
  10.94988244  0.04952820  5.18574744
   5.69191497  0.04952820  5.18574744
  10.94988244  5.31081215  5.18574744
   5.69191497  5.31081215  5.18574744
   2.87556054  0.04952820  2.59268098
   8.13352802  0.04952820  2.59268098
   2.87556054  5.31081215  2.59268098
   8.13352802  5.31081215  2.59268098
   2.60924836  2.68017018  0.00012849
   7.86721584  2.68017018  0.00012849
   2.60924836  7.94145412  0.00012849
   7.86721584  7.94145412  0.00012849
   0.70025968  2.68017018  7.77829993
   5.95822715  2.68017018  7.77829993
   0.70025968  7.94145412  7.77829993
   5.95822715  7.94145412  7.77829993
  10.50558218  0.04770386  0.00455491
   5.24761471  0.04770386  0.00455491
  10.50558218  5.30898781  0.00455491
   5.24761471  5.30898781  0.00455491
   3.31986081  0.04770386  7.77387351
   8.57782828  0.04770386  7.77387351
   3.31986081  5.30898781  7.77387351
   8.57782828  5.30898781  7.77387351
   3.07231384  2.67834584  5.19017386
   8.33028132  2.67834584  5.19017386
   3.07231384  7.93962978  5.19017386
   8.33028132  7.93962978  5.19017386
   0.23719420  2.67834584  2.58825456
   5.49516167  2.67834584  2.58825456
   0.23719420  7.93962978  2.58825456
   5.49516167  7.93962978  2.58825456
 


--------------------------------------------------------------------------------------------------------


 k-point  1 :   0.0000 0.0000 0.0000  plane waves:   48295
 k-point  2 :   0.2500 0.0000 0.0000  plane waves:   48270
 k-point  3 :   0.5000 0.0000 0.0000  plane waves:   48248
 k-point  4 :   0.0000 0.2500 0.0000  plane waves:   48291
 k-point  5 :   0.2500 0.2500 0.0000  plane waves:   48276
 k-point  6 :   0.5000 0.2500 0.0000  plane waves:   48258
 k-point  7 :   0.0000 0.5000 0.0000  plane waves:   48330
 k-point  8 :   0.2500 0.5000 0.0000  plane waves:   48282
 k-point  9 :   0.5000 0.5000 0.0000  plane waves:   48260
 k-point 10 :   0.0000 0.0000 0.2500  plane waves:   48244
 k-point 11 :   0.2500 0.0000 0.2500  plane waves:   48257
 k-point 12 :   0.5000 0.0000 0.2500  plane waves:   48269
 k-point 13 :  -0.2500 0.0000 0.2500  plane waves:   48290
 k-point 14 :   0.0000 0.2500 0.2500  plane waves:   48268
 k-point 15 :   0.2500 0.2500 0.2500  plane waves:   48254
 k-point 16 :   0.5000 0.2500 0.2500  plane waves:   48230
 k-point 17 :  -0.2500 0.2500 0.2500  plane waves:   48260
 k-point 18 :   0.0000 0.5000 0.2500  plane waves:   48292
 k-point 19 :   0.2500 0.5000 0.2500  plane waves:   48292
 k-point 20 :   0.5000 0.5000 0.2500  plane waves:   48274
 k-point 21 :  -0.2500 0.5000 0.2500  plane waves:   48240
 k-point 22 :   0.0000 0.0000 0.5000  plane waves:   48298
 k-point 23 :   0.2500 0.0000 0.5000  plane waves:   48256
 k-point 24 :   0.5000 0.0000 0.5000  plane waves:   48276
 k-point 25 :   0.0000 0.2500 0.5000  plane waves:   48248
 k-point 26 :   0.2500 0.2500 0.5000  plane waves:   48237
 k-point 27 :   0.5000 0.2500 0.5000  plane waves:   48248
 k-point 28 :   0.0000 0.5000 0.5000  plane waves:   48192
 k-point 29 :   0.2500 0.5000 0.5000  plane waves:   48216
 k-point 30 :   0.5000 0.5000 0.5000  plane waves:   48240

 maximum and minimum number of plane-waves per node :     48330    48192

 maximum number of plane-waves:     48330
 maximum index in each direction: 
   IXMAX=   22   IYMAX=   22   IZMAX=   22
   IXMIN=  -23   IYMIN=  -23   IZMIN=  -22


 serial   3D FFT for wavefunctions
 parallel 3D FFT for charge:
    minimum data exchange during FFTs selected (reduces bandwidth)


 total amount of memory used by VASP MPI-rank0   877761. kBytes
=======================================================================

   base      :      30000. kBytes
   nonl-proj :     676601. kBytes
   fftplans  :       4588. kBytes
   grid      :      69719. kBytes
   one-center:       1990. kBytes
   wavefun   :      94863. kBytes
 
     INWAV:  cpu time   58.9869: real time   59.3478
 Broyden mixing: mesh for mixing (old mesh)
   NGX = 45   NGY = 45   NGZ = 45
  (NGX  =192   NGY  =192   NGZ  =180)
  gives a total of  91125 points

 initial charge density was supplied:
 number of electron     688.0000147 magnetization       0.0000000
 keeping initial charge density in first step


--------------------------------------------------------------------------------------------------------


 Maximum index for augmentation-charges          897 (set IRDMAX)


--------------------------------------------------------------------------------------------------------


 First call to EWALD:  gamma=   0.169
 Maximum number of real-space cells 3x 3x 3
 Maximum number of reciprocal cells 3x 3x 3

    FEWALD:  cpu time    0.0026: real time    0.0026


--------------------------------------- Iteration      1(   1)  ---------------------------------------


    POTLOK:  cpu time    0.3317: real time    0.3665
    SETDIJ:  cpu time    0.0140: real time    0.0142
     EDDAV:  cpu time  677.0015: real time  685.1124
 BZINTS: Fermi energy:  5.047791;688.000000 electrons
         Band energy:***********;  BLOECHL correction:  0.000000
       DOS:  cpu time    0.0487: real time    0.0496
    CHARGE:  cpu time    3.9321: real time    3.9692
    MIXING:  cpu time    0.0045: real time    0.0055
    --------------------------------------------
      LOOP:  cpu time  681.3327: real time  689.5176

 eigenvalue-minimisations  : 92160
 total energy-change (2. order) :-0.3273085E+03  (-0.1465297E-05)
 number of electron     688.0000147 magnetization       0.0000000
 augmentation part      282.2403360 magnetization       0.0000000

 Broyden mixing:
  rms(total) = 0.12734E-02    rms(broyden)= 0.12734E-02
  rms(prec ) = 0.15947E-02
  weight for this iteration     100.00

 Free energy of the ion-electron system (eV)
  ---------------------------------------------------
  alpha Z        PSCENC =      2362.39987166
  Ewald energy   TEWEN  =    -62554.74084289
  -Hartree energ DENC   =    -42899.62580060
  -exchange      EXHF   =         0.00000000
  -V(xc)+E(xc)   XCENC  =      3286.46602652
  PAW double counting   =    112202.21731202  -115894.96889697
  entropy T*S    EENTRO =         0.00000000
  eigenvalues    EBANDS =    -10849.12128167
  atomic energy  EATOM  =    114020.06510763
  Solvation  Ediel_sol  =         0.00000000
  ---------------------------------------------------
  free energy    TOTEN  =      -327.30850432 eV

  energy without entropy =     -327.30850432  energy(sigma->0) =     -327.30850432


--------------------------------------------------------------------------------------------------------




--------------------------------------- Iteration      1(   2)  ---------------------------------------


    POTLOK:  cpu time    0.1310: real time    0.1359
    SETDIJ:  cpu time    0.0135: real time    0.0136
     EDDAV:  cpu time  511.8528: real time  515.5467
 BZINTS: Fermi energy:  4.935843;688.000000 electrons
         Band energy:***********;  BLOECHL correction:  0.000000
       DOS:  cpu time    0.0472: real time    0.0474
    CHARGE:  cpu time    3.9247: real time    3.9578
    MIXING:  cpu time    0.0038: real time    0.2274
    --------------------------------------------
      LOOP:  cpu time  515.9729: real time  519.9286

 eigenvalue-minimisations  : 81152
 total energy-change (2. order) : 0.4934496E-05  (-0.6349154E-06)
 number of electron     688.0000147 magnetization       0.0000000
 augmentation part      282.2402094 magnetization       0.0000000

 Broyden mixing:
  rms(total) = 0.79715E-03    rms(broyden)= 0.79714E-03
  rms(prec ) = 0.96635E-03
  weight for this iteration     100.00

 eigenvalues of (default mixing * dielectric matrix)
  average eigenvalue GAMMA=   0.8167
  0.8167

 Free energy of the ion-electron system (eV)
  ---------------------------------------------------
  alpha Z        PSCENC =      2362.39987166
  Ewald energy   TEWEN  =    -62554.74084289
  -Hartree energ DENC   =    -42899.61453242
  -exchange      EXHF   =         0.00000000
  -V(xc)+E(xc)   XCENC  =      3286.46545378
  PAW double counting   =    112202.12068176  -115894.87176962
  entropy T*S    EENTRO =         0.00000000
  eigenvalues    EBANDS =    -10849.13246929
  atomic energy  EATOM  =    114020.06510763
  Solvation  Ediel_sol  =         0.00000000
  ---------------------------------------------------
  free energy    TOTEN  =      -327.30849939 eV

  energy without entropy =     -327.30849939  energy(sigma->0) =     -327.30849939


--------------------------------------------------------------------------------------------------------




--------------------------------------- Iteration      1(   3)  ---------------------------------------


    POTLOK:  cpu time    0.1220: real time    0.1229
    SETDIJ:  cpu time    0.0127: real time    0.0128
     EDDAV:  cpu time  798.7084: real time  804.0662
 BZINTS: Fermi energy:  5.041625;688.000000 electrons
         Band energy:***********;  BLOECHL correction:  0.000000
       DOS:  cpu time    0.0474: real time    0.0476
    CHARGE:  cpu time    3.9312: real time    3.9634
    MIXING:  cpu time    0.0016: real time    0.4371
    --------------------------------------------
      LOOP:  cpu time  802.8233: real time  808.6499

 eigenvalue-minimisations  :106240
 total energy-change (2. order) : 0.9741780E-06  (-0.1009363E-05)
 number of electron     688.0000147 magnetization       0.0000000
 augmentation part      282.2404387 magnetization       0.0000000

 Broyden mixing:
  rms(total) = 0.11183E-02    rms(broyden)= 0.11183E-02
  rms(prec ) = 0.13043E-02
  weight for this iteration     100.00

 eigenvalues of (default mixing * dielectric matrix)
  average eigenvalue GAMMA=   0.9440
  1.5522  0.3357

 Free energy of the ion-electron system (eV)
  ---------------------------------------------------
  alpha Z        PSCENC =      2362.39987166
  Ewald energy   TEWEN  =    -62554.74084289
  -Hartree energ DENC   =    -42899.63831177
  -exchange      EXHF   =         0.00000000
  -V(xc)+E(xc)   XCENC  =      3286.46738279
  PAW double counting   =    112202.23204060  -115894.98235394
  entropy T*S    EENTRO =         0.00000000
  eigenvalues    EBANDS =    -10849.11139247
  atomic energy  EATOM  =    114020.06510763
  Solvation  Ediel_sol  =         0.00000000
  ---------------------------------------------------
  free energy    TOTEN  =      -327.30849841 eV

  energy without entropy =     -327.30849841  energy(sigma->0) =     -327.30849841


--------------------------------------------------------------------------------------------------------




--------------------------------------- Iteration      1(   4)  ---------------------------------------


    POTLOK:  cpu time    0.1219: real time    0.1228
    SETDIJ:  cpu time    0.0127: real time    0.0128
     EDDAV:  cpu time  330.3341: real time  332.8867
 BZINTS: Fermi energy:  4.976317;688.000000 electrons
         Band energy:***********;  BLOECHL correction:  0.000000
       DOS:  cpu time    0.0473: real time    0.0475
    CHARGE:  cpu time    3.9254: real time    3.9582
    MIXING:  cpu time    0.0015: real time    0.0185
    --------------------------------------------
      LOOP:  cpu time  334.4429: real time  337.0465

 eigenvalue-minimisations  : 62976
 total energy-change (2. order) : 0.7167109E-06  (-0.5141648E-06)
 number of electron     688.0000147 magnetization       0.0000000
 augmentation part      282.2404181 magnetization       0.0000000

 Broyden mixing:
  rms(total) = 0.20631E-03    rms(broyden)= 0.20628E-03
  rms(prec ) = 0.22336E-03
  weight for this iteration     100.00

 eigenvalues of (default mixing * dielectric matrix)
  average eigenvalue GAMMA=   0.9622
  1.8318  0.7163  0.3386

 Free energy of the ion-electron system (eV)
  ---------------------------------------------------
  alpha Z        PSCENC =      2362.39987166
  Ewald energy   TEWEN  =    -62554.74084289
  -Hartree energ DENC   =    -42899.61417439
  -exchange      EXHF   =         0.00000000
  -V(xc)+E(xc)   XCENC  =      3286.46585789
  PAW double counting   =    112202.24575275  -115894.99579220
  entropy T*S    EENTRO =         0.00000000
  eigenvalues    EBANDS =    -10849.13427813
  atomic energy  EATOM  =    114020.06510763
  Solvation  Ediel_sol  =         0.00000000
  ---------------------------------------------------
  free energy    TOTEN  =      -327.30849769 eV

  energy without entropy =     -327.30849769  energy(sigma->0) =     -327.30849769


--------------------------------------------------------------------------------------------------------




--------------------------------------- Iteration      1(   5)  ---------------------------------------


    POTLOK:  cpu time    0.1209: real time    0.1219
    SETDIJ:  cpu time    0.0127: real time    0.0128
     EDDAV:  cpu time  671.9265: real time  676.4513
 BZINTS: Fermi energy:  4.960015;688.000000 electrons
         Band energy:***********;  BLOECHL correction:  0.000000
       DOS:  cpu time    0.0483: real time    0.0485
    CHARGE:  cpu time    3.9532: real time    3.9863
    MIXING:  cpu time    0.0018: real time    0.0472
    --------------------------------------------
      LOOP:  cpu time  676.0635: real time  680.6679

 eigenvalue-minimisations  : 91904
 total energy-change (2. order) :-0.1709850E-07  (-0.4672348E-07)
 number of electron     688.0000147 magnetization       0.0000000
 augmentation part      282.2402966 magnetization       0.0000000

 Broyden mixing:
  rms(total) = 0.11082E-03    rms(broyden)= 0.11081E-03
  rms(prec ) = 0.12006E-03
  weight for this iteration     100.00

 eigenvalues of (default mixing * dielectric matrix)
  average eigenvalue GAMMA=   1.0167
  1.7246  1.2968  0.3429  0.7024

 Free energy of the ion-electron system (eV)
  ---------------------------------------------------
  alpha Z        PSCENC =      2362.39987166
  Ewald energy   TEWEN  =    -62554.74084289
  -Hartree energ DENC   =    -42899.62078960
  -exchange      EXHF   =         0.00000000
  -V(xc)+E(xc)   XCENC  =      3286.46599155
  PAW double counting   =    112202.24434123  -115894.99542905
  entropy T*S    EENTRO =         0.00000000
  eigenvalues    EBANDS =    -10849.12674824
  atomic energy  EATOM  =    114020.06510763
  Solvation  Ediel_sol  =         0.00000000
  ---------------------------------------------------
  free energy    TOTEN  =      -327.30849771 eV

  energy without entropy =     -327.30849771  energy(sigma->0) =     -327.30849771


--------------------------------------------------------------------------------------------------------




--------------------------------------- Iteration      1(   6)  ---------------------------------------


    POTLOK:  cpu time    0.1216: real time    0.1226
    SETDIJ:  cpu time    0.0127: real time    0.0128
     EDDAV:  cpu time  520.2108: real time  523.8888
 BZINTS: Fermi energy:  4.956689;688.000000 electrons
         Band energy:***********;  BLOECHL correction:  0.000000
       DOS:  cpu time    0.0472: real time    0.0474
    --------------------------------------------
      LOOP:  cpu time  520.3924: real time  524.0715

 eigenvalue-minimisations  : 81152
 total energy-change (2. order) :-0.4001777E-08  (-0.5061213E-08)
 number of electron     688.0000147 magnetization       0.0000000
 augmentation part      282.2402966 magnetization       0.0000000

 Free energy of the ion-electron system (eV)
  ---------------------------------------------------
  alpha Z        PSCENC =      2362.39987166
  Ewald energy   TEWEN  =    -62554.74084289
  -Hartree energ DENC   =    -42899.62091443
  -exchange      EXHF   =         0.00000000
  -V(xc)+E(xc)   XCENC  =      3286.46600844
  PAW double counting   =    112202.21270174  -115894.96343087
  entropy T*S    EENTRO =         0.00000000
  eigenvalues    EBANDS =    -10849.12699898
  atomic energy  EATOM  =    114020.06510763
  Solvation  Ediel_sol  =         0.00000000
  ---------------------------------------------------
  free energy    TOTEN  =      -327.30849772 eV

  energy without entropy =     -327.30849772  energy(sigma->0) =     -327.30849772


--------------------------------------------------------------------------------------------------------




 average (electrostatic) potential at core
  the test charge radii are     0.9698  0.8297  0.9500
  (the norm of the test charge is              1.0000)
       1 -86.5924       2 -86.5924       3 -86.5924       4 -86.5924       5 -86.5924
       6 -86.5924       7 -86.5924       8 -86.5924       9 -86.6441      10 -86.6441
      11 -86.6441      12 -86.6441      13 -86.5330      14 -86.5330      15 -86.5330
      16 -86.5330      17 -86.5924      18 -86.5924      19 -86.5924      20 -86.5924
      21 -86.5924      22 -86.5924      23 -86.5924      24 -86.5924      25 -86.6441
      26 -86.6441      27 -86.6441      28 -86.6441      29 -86.5330      30 -86.5330
      31 -86.5330      32 -86.5330      33 -80.6705      34 -80.6705      35 -80.6705
      36 -80.6705      37 -80.6705      38 -80.6705      39 -80.6705      40 -80.6705
      41 -80.6705      42 -80.6705      43 -80.6705      44 -80.6705      45 -80.6705
      46 -80.6705      47 -80.6705      48 -80.6705      49 -80.1786      50 -80.1786
      51 -80.1786      52 -80.1786      53 -80.1786      54 -80.1786      55 -80.1786
      56 -80.1786      57 -80.1786      58 -80.1786      59 -80.1786      60 -80.1786
      61 -80.1786      62 -80.1786      63 -80.1786      64 -80.1786
 
 
 
 E-fermi :   4.9567     XC(G=0): -10.4853     alpha+bet :-10.5743


 spin component 1

 k-point     1 :       0.0000    0.0000    0.0000
  band No.  band energies     occupation 
      1     -64.2777      1.00000
      2     -64.2777      1.00000
      3     -64.2777      1.00000
      4     -64.2777      1.00000
      5     -64.2777      1.00000
      6     -64.2777      1.00000
      7     -64.2777      1.00000
      8     -64.2777      1.00000
      9     -64.2573      1.00000
     10     -64.2573      1.00000
     11     -64.2573      1.00000
     12     -64.2573      1.00000
     13     -64.2573      1.00000
     14     -64.2573      1.00000
     15     -64.2573      1.00000
     16     -64.2573      1.00000
     17     -64.2508      1.00000
     18     -64.2508      1.00000
     19     -64.2508      1.00000
     20     -64.2508      1.00000
     21     -64.2508      1.00000
     22     -64.2508      1.00000
     23     -64.2508      1.00000
     24     -64.2508      1.00000
     25     -64.2395      1.00000
     26     -64.2395      1.00000
     27     -64.2395      1.00000
     28     -64.2395      1.00000
     29     -64.2395      1.00000
     30     -64.2395      1.00000
     31     -64.2395      1.00000
     32     -64.2395      1.00000
     33     -64.2336      1.00000
     34     -64.2336      1.00000
     35     -64.2336      1.00000
     36     -64.2336      1.00000
     37     -64.2336      1.00000
     38     -64.2336      1.00000
     39     -64.2336      1.00000
     40     -64.2336      1.00000
     41     -64.2270      1.00000
     42     -64.2270      1.00000
     43     -64.2270      1.00000
     44     -64.2270      1.00000
     45     -64.2270      1.00000
     46     -64.2270      1.00000
     47     -64.2270      1.00000
     48     -64.2270      1.00000
     49     -51.8725      1.00000
     50     -51.8725      1.00000
     51     -51.8725      1.00000
     52     -51.8725      1.00000
     53     -51.8725      1.00000
     54     -51.8725      1.00000
     55     -51.8725      1.00000
     56     -51.8725      1.00000
     57     -51.7796      1.00000
     58     -51.7796      1.00000
     59     -51.7796      1.00000
     60     -51.7796      1.00000
     61     -51.7796      1.00000
     62     -51.7796      1.00000
     63     -51.7796      1.00000
     64     -51.7796      1.00000
     65     -51.7724      1.00000
     66     -51.7724      1.00000
     67     -51.7724      1.00000
     68     -51.7724      1.00000
     69     -51.7724      1.00000
     70     -51.7724      1.00000
     71     -51.7724      1.00000
     72     -51.7724      1.00000
     73     -47.6975      1.00000
     74     -47.6975      1.00000
     75     -47.6975      1.00000
     76     -47.6975      1.00000
     77     -47.6975      1.00000
     78     -47.6975      1.00000
     79     -47.6975      1.00000
     80     -47.6975      1.00000
     81     -47.6738      1.00000
     82     -47.6738      1.00000
     83     -47.6738      1.00000
     84     -47.6738      1.00000
     85     -47.6738      1.00000
     86     -47.6738      1.00000
     87     -47.6738      1.00000
     88     -47.6738      1.00000
     89     -47.6707      1.00000
     90     -47.6707      1.00000
     91     -47.6707      1.00000
     92     -47.6707      1.00000
     93     -47.6707      1.00000
     94     -47.6707      1.00000
     95     -47.6707      1.00000
     96     -47.6707      1.00000
     97      -9.0906      1.00000
     98      -8.4824      1.00000
     99      -8.4824      1.00000
    100      -8.4670      1.00000
    101      -8.4670      1.00000
    102      -8.4661      1.00000
    103      -8.4440      1.00000
    104      -8.1833      1.00000
    105      -8.1833      1.00000
    106      -8.1629      1.00000
    107      -8.1559      1.00000
    108      -8.1137      1.00000
    109      -8.1035      1.00000
    110      -8.1035      1.00000
    111      -8.0996      1.00000
    112      -8.0890      1.00000
    113      -8.0839      1.00000
    114      -8.0808      1.00000
    115      -8.0808      1.00000
    116      -7.9968      1.00000
    117      -7.9968      1.00000
    118      -7.9550      1.00000
    119      -7.9531      1.00000
    120      -7.7546      1.00000
    121      -7.7518      1.00000
    122      -7.7302      1.00000
    123      -7.7145      1.00000
    124      -7.7145      1.00000
    125      -7.7104      1.00000
    126      -7.6936      1.00000
    127      -7.6936      1.00000
    128      -7.6624      1.00000
    129      -2.0205      1.00000
    130      -2.0205      1.00000
    131      -2.0175      1.00000
    132      -2.0010      1.00000
    133      -2.0010      1.00000
    134      -1.9794      1.00000
    135      -1.9402      1.00000
    136      -1.9266      1.00000
    137      -1.9252      1.00000
    138      -1.8595      1.00000
    139      -1.8595      1.00000
    140      -1.8581      1.00000
    141      -1.8581      1.00000
    142      -1.8520      1.00000
    143      -1.8415      1.00000
    144      -1.8230      1.00000
    145      -1.8168      1.00000
    146      -1.7995      1.00000
    147      -1.7995      1.00000
    148      -1.7853      1.00000
    149      -1.7853      1.00000
    150      -1.7808      1.00000
    151      -1.7729      1.00000
    152      -1.7494      1.00000
    153      -1.7494      1.00000
    154      -1.7460      1.00000
    155      -1.7430      1.00000
    156      -1.7426      1.00000
    157      -1.7354      1.00000
    158      -1.7163      1.00000
    159      -1.7163      1.00000
    160      -1.6916      1.00000
    161      -1.6916      1.00000
    162      -1.6909      1.00000
    163      -1.6909      1.00000
    164      -1.6846      1.00000
    165      -1.6827      1.00000
    166      -1.6672      1.00000
    167      -1.6457      1.00000
    168      -1.6457      1.00000
    169      -0.9954      1.00000
    170      -0.9853      1.00000
    171      -0.7817      1.00000
    172      -0.7672      1.00000
    173      -0.7196      1.00000
    174      -0.4520      1.00000
    175      -0.2209      1.00000
    176      -0.2209      1.00000
    177      -0.2071      1.00000
    178      -0.2071      1.00000
    179      -0.1670      1.00000
    180      -0.1571      1.00000
    181      -0.0905      1.00000
    182      -0.0241      1.00000
    183      -0.0241      1.00000
    184      -0.0084      1.00000
    185      -0.0084      1.00000
    186       0.0803      1.00000
    187       0.0825      1.00000
    188       0.1132      1.00000
    189       0.1132      1.00000
    190       0.1348      1.00000
    191       0.1436      1.00000
    192       0.1436      1.00000
    193       0.2264      1.00000
    194       0.3088      1.00000
    195       0.3088      1.00000
    196       0.3094      1.00000
    197       0.3094      1.00000
    198       0.3378      1.00000
    199       0.3654      1.00000
    200       0.7074      1.00000
    201       0.7698      1.00000
    202       0.7710      1.00000
    203       0.7787      1.00000
    204       0.8183      1.00000
    205       0.8183      1.00000
    206       0.8306      1.00000
    207       0.8306      1.00000
    208       0.8967      1.00000
    209       0.8967      1.00000
    210       0.9150      1.00000
    211       0.9150      1.00000
    212       1.0300      1.00000
    213       1.0300      1.00000
    214       1.0596      1.00000
    215       1.0596      1.00000
    216       1.1489      1.00000
    217       1.1520      1.00000
    218       1.1537      1.00000
    219       1.1664      1.00000
    220       1.2058      1.00000
    221       1.2165      1.00000
    222       1.2219      1.00000
    223       1.2219      1.00000
    224       1.2403      1.00000
    225       1.2403      1.00000
    226       1.2434      1.00000
    227       1.2637      1.00000
    228       1.2653      1.00000
    229       1.2982      1.00000
    230       1.3032      1.00000
    231       1.3280      1.00000
    232       1.3280      1.00000
    233       1.3303      1.00000
    234       1.3303      1.00000
    235       1.3364      1.00000
    236       1.3714      1.00000
    237       1.3777      1.00000
    238       1.5740      1.00000
    239       1.5834      1.00000
    240       1.5929      1.00000
    241       1.6188      1.00000
    242       1.8214      1.00000
    243       1.8214      1.00000
    244       1.8303      1.00000
    245       1.8303      1.00000
    246       1.8874      1.00000
    247       1.9300      1.00000
    248       1.9310      1.00000
    249       1.9310      1.00000
    250       1.9336      1.00000
    251       1.9436      1.00000
    252       1.9522      1.00000
    253       1.9558      1.00000
    254       1.9558      1.00000
    255       2.0892      1.00000
    256       2.1178      1.00000
    257       2.1688      1.00000
    258       2.2300      1.00000
    259       2.2300      1.00000
    260       2.2567      1.00000
    261       2.2723      1.00000
    262       2.2751      1.00000
    263       2.2751      1.00000
    264       2.3924      1.00000
    265       2.6624      1.00000
    266       2.7594      1.00000
    267       2.7827      1.00000
    268       2.7827      1.00000
    269       2.7899      1.00000
    270       2.7899      1.00000
    271       2.8047      1.00000
    272       2.8060      1.00000
    273       2.8092      1.00000
    274       2.8092      1.00000
    275       2.8242      1.00000
    276       2.8242      1.00000
    277       2.8357      1.00000
    278       2.8455      1.00000
    279       2.8531      1.00000
    280       2.9227      1.00000
    281       2.9421      1.00000
    282       2.9421      1.00000
    283       2.9679      1.00000
    284       2.9707      1.00000
    285       2.9707      1.00000
    286       2.9977      1.00000
    287       3.0320      1.00000
    288       3.0733      1.00000
    289       3.1172      1.00000
    290       3.1190      1.00000
    291       3.2206      1.00000
    292       3.2292      1.00000
    293       3.2292      1.00000
    294       3.2390      1.00000
    295       3.2390      1.00000
    296       3.2807      1.00000
    297       3.2863      1.00000
    298       3.3053      1.00000
    299       3.3918      1.00000
    300       3.4018      1.00000
    301       3.4018      1.00000
    302       3.4312      1.00000
    303       3.4312      1.00000
    304       3.5001      1.00000
    305       3.5041      1.00000
    306       3.5172      1.00000
    307       3.5172      1.00000
    308       3.5708      1.00000
    309       3.5708      1.00000
    310       3.6176      1.00000
    311       3.6863      1.00000
    312       3.7056      1.00000
    313       3.7056      1.00000
    314       3.7547      1.00000
    315       3.7547      1.00000
    316       3.7761      1.00000
    317       3.7840      1.00000
    318       3.9527      1.00000
    319       4.0113      1.00000
    320       4.0616      1.00000
    321       4.0616      1.00000
    322       4.0843      1.00000
    323       4.0843      1.00000
    324       4.1042      1.00000
    325       4.1145      1.00000
    326       4.1466      1.00000
    327       4.1466      1.00000
    328       4.1487      1.00000
    329       4.1690      1.00000
    330       4.1690      1.00000
    331       4.1717      1.00000
    332       4.2568      1.00000
    333       4.2812      1.00000
    334       4.3291      1.00000
    335       4.3328      1.00000
    336       4.3650      1.00000
    337       4.6523      1.00000
    338       4.6651      1.00000
    339       4.7205      1.00000
    340       4.7205      1.00000
    341       4.7578      1.00000
    342       4.7578      1.00000
    343       4.8861      1.00000
    344       4.8878      1.00000
    345       5.7488      0.00000
    346       5.7520      0.00000
    347       5.7520      0.00000
    348       5.7539      0.00000
    349       5.7539      0.00000
    350       5.7572      0.00000
    351       5.7896      0.00000
    352       5.8719      0.00000
    353       5.9086      0.00000
    354       5.9401      0.00000
    355       5.9743      0.00000
    356       5.9743      0.00000
    357       6.0108      0.00000
    358       6.0108      0.00000
    359       6.0787      0.00000
    360       6.0787      0.00000
    361       6.0849      0.00000
    362       6.1206      0.00000
    363       6.1206      0.00000
    364       6.1391      0.00000
    365       6.2346      0.00000
    366       6.2420      0.00000
    367       6.2467      0.00000
    368       6.2467      0.00000
    369       6.2700      0.00000
    370       6.2700      0.00000
    371       6.2766      0.00000
    372       6.2780      0.00000
    373       6.3421      0.00000
    374       6.3480      0.00000
    375       6.4128      0.00000
    376       6.4676      0.00000
    377       6.4775      0.00000
    378       6.4954      0.00000
    379       6.4954      0.00000
    380       6.4985      0.00000
    381       6.4985      0.00000
    382       6.5552      0.00000
    383       6.7288      0.00000
    384       6.7545      0.00000
[...]
 simple monoclinic supercell.


 Subroutine GETGRP returns: Found  2 space group operations
 (whereof  1 operations were pure point group operations)
 out of a pool of  4 trial point group operations.


The static configuration has the point symmetry C_1 .
 The point group associated with its full space group is C_2 .


Analysis of symmetry for dynamics (positions and initial velocities):
=====================================================================
 Subroutine PRICEL returns following result:
 
  LATTYP: Found a base centered monoclinic cell.
 ALAT       =    11.2467911378
 B/A-ratio  =     0.4678031165
 C/A-ratio  =     0.9256733065
 COS(beta)  =    -0.8015567528
  
  Lattice vectors:
  
 A1 = (  -2.1753008647,  -2.6306419727,   5.1856189479)
 A2 = (  -2.1753008647,   2.6306419727,   5.1856189479)
 A3 = (  -0.9073657426,   0.0000000000, -10.3712378957)
 
   8 primitive cells build up your supercell.
 

 Routine SETGRP: Setting up the symmetry group for a 
 simple monoclinic supercell.


 Subroutine GETGRP returns: Found  2 space group operations
 (whereof  1 operations were pure point group operations)
 out of a pool of  4 trial point group operations.


The dynamic configuration has the point symmetry C_1 .
 The point group associated with its full space group is C_2 .


Analysis of structural, dynamic, and magnetic symmetry:
=====================================================================
 Subroutine PRICEL returns following result:
 
  LATTYP: Found a base centered monoclinic cell.
 ALAT       =    11.2467911378
 B/A-ratio  =     0.4678031165
 C/A-ratio  =     0.9256733065
 COS(beta)  =    -0.8015567528
  
  Lattice vectors:
  
 A1 = (  -2.1753008647,  -2.6306419727,   5.1856189479)
 A2 = (  -2.1753008647,   2.6306419727,   5.1856189479)
 A3 = (  -0.9073657426,   0.0000000000, -10.3712378957)
 
   8 primitive cells build up your supercell.
 

 Routine SETGRP: Setting up the symmetry group for a 
 simple monoclinic supercell.


 Subroutine GETGRP returns: Found  2 space group operations
 (whereof  1 operations were pure point group operations)
 out of a pool of  4 trial point group operations.


The magnetic configuration has the point symmetry C_1 .
 The point group associated with its full space group is C_2 .


 Subroutine INISYM returns: Found  2 space group operations
 (whereof  1 operations are pure point group operations),
 and found     8 'primitive' translations



--------------------------------------------------------------------------------------------------------




 MACROSCOPIC STATIC DIELECTRIC TENSOR (including local field effects in DFT)
 ------------------------------------------------------
        8136.864051     0.000000  2253.404939
           0.000000  1397.124088     0.000000
        2254.079535     0.000000  6992.660195
 ------------------------------------------------------


 PIEZOELECTRIC TENSOR (including local field effects)  for field in x, y, z        (e  Angst)
          XX          YY          ZZ          XY          YZ          ZX
  --------------------------------------------------------------------------------
  x   -12.26250    -8.95296    -7.36897    -2.07529   -63.33321    -8.51626
  y   -12.44758     0.13422     1.36219     0.00000     0.00000   -58.11250
  z   237.16044   223.39798   215.45540   -38.82287     4.23847    -2.55320

 PIEZOELECTRIC TENSOR (including local field effects)  for field in x, y, z        (C/m^2)
          XX          YY          ZZ          XY          YZ          ZX
  --------------------------------------------------------------------------------
  x     0.00000     0.00000     0.00000    -0.02897    -0.88418     0.00000
  y    -0.17378     0.00187     0.01902     0.00000     0.00000    -0.81130
  z     0.00000     0.00000     0.00000    -0.54200     0.05917     0.00000
 
 BORN EFFECTIVE CHARGES (including local field effects) (in e, cummulative output)
 ---------------------------------------------------------------------------------
 ion    1
    1    -2.19956    -0.40017     0.24253
    2     0.07756    -1.94806    -0.90151
    3     0.15707    -0.87655    -2.02959
 ion    2
    1    -2.19956    -0.40017     0.24253
    2     0.07756    -1.94806    -0.90151
    3     0.15707    -0.87655    -2.02959
 ion    3
    1    -2.19956    -0.40017     0.24253
    2     0.07756    -1.94806    -0.90151
    3     0.15707    -0.87655    -2.02959
 ion    4
    1    -2.19956    -0.40017     0.24253
    2     0.07756    -1.94806    -0.90151
    3     0.15707    -0.87655    -2.02959
 ion    5
    1    -1.95707     0.55152     0.11644
    2    -0.07756    -1.94806     0.90151
    3     0.53995     1.70146    -1.89805
 ion    6
    1    -1.95707     0.55152     0.11644
    2    -0.07756    -1.94806     0.90151
    3     0.53995     1.70146    -1.89805
 ion    7
    1    -1.95707     0.55152     0.11644
    2    -0.07756    -1.94806     0.90151
    3     0.53995     1.70146    -1.89805
 ion    8
    1    -1.95707     0.55152     0.11644
    2    -0.07756    -1.94806     0.90151
    3     0.53995     1.70146    -1.89805
 ion    9
    1    -1.07830    -0.17443     1.26561
    2     0.00000    -1.91561     0.00000
    3     1.36584     0.21717    -1.89681
 ion   10
    1    -1.07830    -0.17443     1.26561
    2     0.00000    -1.91561     0.00000
    3     1.36584     0.21717    -1.89681
 ion   11
    1    -1.07830    -0.17443     1.26561
    2     0.00000    -1.91561     0.00000
    3     1.36584     0.21717    -1.89681
 ion   12
    1    -1.07830    -0.17443     1.26561
    2     0.00000    -1.91561     0.00000
    3     1.36584     0.21717    -1.89681
 ion   13
    1    -2.27800    -0.23892    -1.78841
    2     0.00000    -2.24497     0.00000
    3    -0.74220     0.02772    -2.64139
 ion   14
    1    -2.27800    -0.23892    -1.78841
    2     0.00000    -2.24497     0.00000
    3    -0.74220     0.02772    -2.64139
 ion   15
    1    -2.27800    -0.23892    -1.78841
    2     0.00000    -2.24497     0.00000
    3    -0.74220     0.02772    -2.64139
 ion   16
    1    -2.27800    -0.23892    -1.78841
    2     0.00000    -2.24497     0.00000
    3    -0.74220     0.02772    -2.64139
 ion   17
    1    -1.95707     0.55152     0.11644
    2    -0.07756    -1.94806     0.90151
    3     0.53995     1.70146    -1.89805
 ion   18
    1    -1.95707     0.55152     0.11644
    2    -0.07756    -1.94806     0.90151
    3     0.53995     1.70146    -1.89805
 ion   19
    1    -1.95707     0.55152     0.11644
    2    -0.07756    -1.94806     0.90151
    3     0.53995     1.70146    -1.89805
 ion   20
    1    -1.95707     0.55152     0.11644
    2    -0.07756    -1.94806     0.90151
    3     0.53995     1.70146    -1.89805
 ion   21
    1    -2.19956    -0.40017     0.24253
    2     0.07756    -1.94806    -0.90151
    3     0.15707    -0.87655    -2.02959
 ion   22
    1    -2.19956    -0.40017     0.24253
    2     0.07756    -1.94806    -0.90151
    3     0.15707    -0.87655    -2.02959
 ion   23
    1    -2.19956    -0.40017     0.24253
    2     0.07756    -1.94806    -0.90151
    3     0.15707    -0.87655    -2.02959
 ion   24
    1    -2.19956    -0.40017     0.24253
    2     0.07756    -1.94806    -0.90151
    3     0.15707    -0.87655    -2.02959
 ion   25
    1    -1.07830    -0.17443     1.26561
    2     0.00000    -1.91561     0.00000
    3     1.36584     0.21717    -1.89681
 ion   26
    1    -1.07830    -0.17443     1.26561
    2     0.00000    -1.91561     0.00000
    3     1.36584     0.21717    -1.89681
 ion   27
    1    -1.07830    -0.17443     1.26561
    2     0.00000    -1.91561     0.00000
    3     1.36584     0.21717    -1.89681
 ion   28
    1    -1.07830    -0.17443     1.26561
    2     0.00000    -1.91561     0.00000
    3     1.36584     0.21717    -1.89681
 ion   29
    1    -2.27800    -0.23892    -1.78841
    2     0.00000    -2.24497     0.00000
    3    -0.74220     0.02772    -2.64139
 ion   30
    1    -2.27800    -0.23892    -1.78841
    2     0.00000    -2.24497     0.00000
    3    -0.74220     0.02772    -2.64139
 ion   31
    1    -2.27800    -0.23892    -1.78841
    2     0.00000    -2.24497     0.00000
    3    -0.74220     0.02772    -2.64139
 ion   32
    1    -2.27800    -0.23892    -1.78841
    2     0.00000    -2.24497     0.00000
    3    -0.74220     0.02772    -2.64139
 ion   33
    1     1.30074     0.36238    -0.15356
    2     0.15741     1.08064    -0.00927
    3    -3.03750    -1.39213     3.39086
 ion   34
    1     1.30074     0.36238    -0.15356
    2     0.15741     1.08064    -0.00927
    3    -3.03750    -1.39213     3.39086
 ion   35
    1     1.30074     0.36238    -0.15356
    2     0.15741     1.08064    -0.00927
    3    -3.03750    -1.39213     3.39086
 ion   36
    1     1.30074     0.36238    -0.15356
    2     0.15741     1.08064    -0.00927
    3    -3.03750    -1.39213     3.39086
 ion   37
    1     0.80607     0.14247    -0.04404
    2    -0.15741     1.08064     0.00927
    3     0.04932     0.08427     0.56324
 ion   38
    1     0.80607     0.14247    -0.04404
    2    -0.15741     1.08064     0.00927
    3     0.04932     0.08427     0.56324
 ion   39
    1     0.80607     0.14247    -0.04404
    2    -0.15741     1.08064     0.00927
    3     0.04932     0.08427     0.56324
 ion   40
    1     0.80607     0.14247    -0.04404
    2    -0.15741     1.08064     0.00927
    3     0.04932     0.08427     0.56324
 ion   41
    1     1.30074     0.36238    -0.15356
    2     0.15741     1.08064    -0.00927
    3    -3.03750    -1.39213     3.39086
 ion   42
    1     1.30074     0.36238    -0.15356
    2     0.15741     1.08064    -0.00927
    3    -3.03750    -1.39213     3.39086
 ion   43
    1     1.30074     0.36238    -0.15356
    2     0.15741     1.08064    -0.00927
    3    -3.03750    -1.39213     3.39086
 ion   44
    1     1.30074     0.36238    -0.15356
    2     0.15741     1.08064    -0.00927
    3    -3.03750    -1.39213     3.39086
 ion   45
    1     0.80607     0.14247    -0.04404
    2    -0.15741     1.08064     0.00927
    3     0.04932     0.08427     0.56324
 ion   46
    1     0.80607     0.14247    -0.04404
    2    -0.15741     1.08064     0.00927
    3     0.04932     0.08427     0.56324
 ion   47
    1     0.80607     0.14247    -0.04404
    2    -0.15741     1.08064     0.00927
    3     0.04932     0.08427     0.56324
 ion   48
    1     0.80607     0.14247    -0.04404
    2    -0.15741     1.08064     0.00927
    3     0.04932     0.08427     0.56324
 ion   49
    1     2.87099    -0.18473     0.20948
    2    -0.24587     2.94771     0.12735
    3     0.88054    -0.22158     2.02163
 ion   50
    1     2.87099    -0.18473     0.20948
    2    -0.24587     2.94771     0.12735
    3     0.88054    -0.22158     2.02163
 ion   51
    1     2.87099    -0.18473     0.20948
    2    -0.24587     2.94771     0.12735
    3     0.88054    -0.22158     2.02163
 ion   52
    1     2.87099    -0.18473     0.20948
    2    -0.24587     2.94771     0.12735
    3     0.88054    -0.22158     2.02163
 ion   53
    1     2.53513    -0.05812     0.15195
    2     0.24587     2.94771    -0.12735
    3     0.78697     0.45965     2.49011
 ion   54
    1     2.53513    -0.05812     0.15195
    2     0.24587     2.94771    -0.12735
    3     0.78697     0.45965     2.49011
 ion   55
    1     2.53513    -0.05812     0.15195
    2     0.24587     2.94771    -0.12735
    3     0.78697     0.45965     2.49011
 ion   56
    1     2.53513    -0.05812     0.15195
    2     0.24587     2.94771    -0.12735
    3     0.78697     0.45965     2.49011
 ion   57
    1     2.87099    -0.18473     0.20948
    2    -0.24587     2.94771     0.12735
    3     0.88054    -0.22158     2.02163
 ion   58
    1     2.87099    -0.18473     0.20948
    2    -0.24587     2.94771     0.12735
    3     0.88054    -0.22158     2.02163
 ion   59
    1     2.87099    -0.18473     0.20948
    2    -0.24587     2.94771     0.12735
    3     0.88054    -0.22158     2.02163
 ion   60
    1     2.87099    -0.18473     0.20948
    2    -0.24587     2.94771     0.12735
    3     0.88054    -0.22158     2.02163
 ion   61
    1     2.53513    -0.05812     0.15195
    2     0.24587     2.94771    -0.12735
    3     0.78697     0.45965     2.49011
 ion   62
    1     2.53513    -0.05812     0.15195
    2     0.24587     2.94771    -0.12735
    3     0.78697     0.45965     2.49011
 ion   63
    1     2.53513    -0.05812     0.15195
    2     0.24587     2.94771    -0.12735
    3     0.78697     0.45965     2.49011
 ion   64
    1     2.53513    -0.05812     0.15195
    2     0.24587     2.94771    -0.12735
    3     0.78697     0.45965     2.49011


--------------------------------------------------------------------------------------------------------


 writing wavefunctions
     LOOP+:  cpu time61133.7066: real time62447.3574
    4ORBIT:  cpu time    0.0001: real time    0.0014
 


 total charge     
 
# of ion       s       p       d       tot
------------------------------------------
    1        1.314   2.408   0.000   3.722
    2        1.314   2.408   0.000   3.722
    3        1.314   2.408   0.000   3.722
    4        1.314   2.408   0.000   3.722
    5        1.314   2.407   0.000   3.722
    6        1.314   2.407   0.000   3.722
    7        1.314   2.407   0.000   3.722
    8        1.314   2.407   0.000   3.722
    9        1.316   2.403   0.000   3.719
   10        1.316   2.403   0.000   3.719
   11        1.316   2.403   0.000   3.719
   12        1.316   2.403   0.000   3.719
   13        1.313   2.412   0.000   3.724
   14        1.313   2.412   0.000   3.724
   15        1.313   2.412   0.000   3.724
   16        1.313   2.412   0.000   3.724
   17        1.314   2.407   0.000   3.722
   18        1.314   2.407   0.000   3.722
   19        1.314   2.407   0.000   3.722
   20        1.314   2.407   0.000   3.722
   21        1.314   2.408   0.000   3.722
   22        1.314   2.408   0.000   3.722
   23        1.314   2.408   0.000   3.722
   24        1.314   2.408   0.000   3.722
   25        1.316   2.403   0.000   3.719
   26        1.316   2.403   0.000   3.719
   27        1.316   2.403   0.000   3.719
   28        1.316   2.403   0.000   3.719
   29        1.313   2.412   0.000   3.724
   30        1.313   2.412   0.000   3.724
   31        1.313   2.412   0.000   3.724
   32        1.313   2.412   0.000   3.724
   33        0.259   6.201   8.917  15.376
   34        0.259   6.201   8.917  15.376
   35        0.259   6.201   8.917  15.376
   36        0.259   6.201   8.917  15.376
   37        0.259   6.201   8.917  15.376
   38        0.259   6.201   8.917  15.376
   39        0.259   6.201   8.917  15.376
   40        0.259   6.201   8.917  15.376
   41        0.259   6.201   8.917  15.376
   42        0.259   6.201   8.917  15.376
   43        0.259   6.201   8.917  15.376
   44        0.259   6.201   8.917  15.376
   45        0.259   6.201   8.917  15.376
   46        0.259   6.201   8.917  15.376
   47        0.259   6.201   8.917  15.376
   48        0.259   6.201   8.917  15.376
   49        0.348   6.349   5.822  12.519
   50        0.348   6.349   5.822  12.519
   51        0.348   6.349   5.822  12.519
   52        0.348   6.349   5.822  12.519
   53        0.348   6.349   5.822  12.519
   54        0.348   6.349   5.822  12.519
   55        0.348   6.349   5.822  12.519
   56        0.348   6.349   5.822  12.519
   57        0.348   6.349   5.822  12.519
   58        0.348   6.349   5.822  12.519
   59        0.348   6.349   5.822  12.519
   60        0.348   6.349   5.822  12.519
   61        0.348   6.349   5.822  12.519
   62        0.348   6.349   5.822  12.519
   63        0.348   6.349   5.822  12.519
   64        0.348   6.349   5.822  12.519
--------------------------------------------------
tot         51.772 277.829 235.827 565.428
 


 magnetization (x)
 
# of ion       s       p       d       tot
------------------------------------------
    1       -0.000  -0.021   0.000  -0.021
    2       -0.000  -0.021   0.000  -0.021
    3       -0.000  -0.021   0.000  -0.021
    4       -0.000  -0.021   0.000  -0.021
    5        0.000   0.021   0.000   0.021
    6        0.000   0.021   0.000   0.021
    7        0.000   0.021   0.000   0.021
    8        0.000   0.021   0.000   0.021
    9       -0.000   0.000   0.000   0.000
   10       -0.000   0.000   0.000   0.000
   11       -0.000   0.000   0.000   0.000
   12       -0.000   0.000   0.000   0.000
   13       -0.000   0.000   0.000   0.000
   14       -0.000   0.000   0.000   0.000
   15       -0.000   0.000   0.000   0.000
   16       -0.000   0.000   0.000   0.000
   17        0.000   0.021   0.000   0.021
   18        0.000   0.021   0.000   0.021
   19        0.000   0.021   0.000   0.021
   20        0.000   0.021   0.000   0.021
   21       -0.000  -0.021   0.000  -0.021
   22       -0.000  -0.021   0.000  -0.021
   23       -0.000  -0.021   0.000  -0.021
   24       -0.000  -0.021   0.000  -0.021
   25       -0.000   0.000   0.000   0.000
   26       -0.000   0.000   0.000   0.000
   27       -0.000   0.000   0.000   0.000
   28       -0.000   0.000   0.000   0.000
   29       -0.000   0.000   0.000   0.000
   30       -0.000   0.000   0.000   0.000
   31       -0.000   0.000   0.000   0.000
   32       -0.000   0.000   0.000   0.000
   33        0.000   0.001  -0.003  -0.001
   34        0.000   0.001  -0.003  -0.001
   35        0.000   0.001  -0.003  -0.001
   36        0.000   0.001  -0.003  -0.001
   37       -0.000  -0.001   0.003   0.002
   38       -0.000  -0.001   0.003   0.002
   39       -0.000  -0.001   0.003   0.002
   40       -0.000  -0.001   0.003   0.002
   41        0.000   0.001  -0.003  -0.001
   42        0.000   0.001  -0.003  -0.001
   43        0.000   0.001  -0.003  -0.001
   44        0.000   0.001  -0.003  -0.001
   45       -0.000  -0.001   0.003   0.002
   46       -0.000  -0.001   0.003   0.002
   47       -0.000  -0.001   0.003   0.002
   48       -0.000  -0.001   0.003   0.002
   49        0.020   0.054   3.667   3.741
   50        0.020   0.054   3.667   3.741
   51        0.020   0.054   3.667   3.741
   52        0.020   0.054   3.667   3.741
   53       -0.020  -0.054  -3.667  -3.741
   54       -0.020  -0.054  -3.667  -3.741
   55       -0.020  -0.054  -3.667  -3.741
   56       -0.020  -0.054  -3.667  -3.741
   57        0.020   0.054   3.667   3.741
   58        0.020   0.054   3.667   3.741
   59        0.020   0.054   3.667   3.741
   60        0.020   0.054   3.667   3.741
   61       -0.020  -0.054  -3.667  -3.741
   62       -0.020  -0.054  -3.667  -3.741
   63       -0.020  -0.054  -3.667  -3.741
   64       -0.020  -0.054  -3.667  -3.741
--------------------------------------------------
tot         -0.000   0.001  -0.000   0.001
 
 BZINTS: Fermi energy:  4.953684;688.000000 electrons
         Band energy:***********;  BLOECHL correction:  0.000000

 total amount of memory used by VASP MPI-rank0   877761. kBytes
=======================================================================

   base      :      30000. kBytes
   nonl-proj :     676601. kBytes
   fftplans  :       4588. kBytes
   grid      :      69719. kBytes
   one-center:       1990. kBytes
   wavefun   :      94863. kBytes
 
  
  
 General timing and accounting informations for this job:
 ========================================================
  
                  Total CPU time used (sec):    61280.684
                            User time (sec):    61079.633
                          System time (sec):      201.049
                         Elapsed time (sec):    62597.326
  
                   Maximum memory used (kb):     1925432.
                   Average memory used (kb):           0.
  
                          Minor page faults:     55453369
                          Major page faults:        35371
                 Voluntary context switches:        46793
