       N       E                     dE             d eps       ncg     rms          rms(c)
DAV:   1    -0.304179575047E+03   -0.30418E+03   -0.13048E+03 19968   0.199E+02    0.307E+01
DAV:   2    -0.326249137309E+03   -0.22070E+02   -0.22099E+02 12800   0.224E+01    0.125E+01
DAV:   3    -0.326520218593E+03   -0.27108E+00   -0.33257E+00 19968   0.335E+00    0.913E+00
DAV:   4    -0.326519895379E+03    0.32321E-03   -0.12157E-01 13056   0.976E-01    0.789E+00
DAV:   5    -0.326519804535E+03    0.90844E-04   -0.10292E-02 16896   0.304E-01    0.687E+00
DAV:   6    -0.326519559825E+03    0.24471E-03   -0.60882E-04 16128   0.668E-02    0.625E+00
DAV:   7    -0.326518878437E+03    0.68139E-03   -0.46812E-04 16896   0.650E-02    0.480E+00
DAV:   8    -0.326518466306E+03    0.41213E-03   -0.38080E-04 14080   0.563E-02    0.294E+00
DAV:   9    -0.326518361678E+03    0.10463E-03   -0.65310E-05 18176   0.195E-02    0.236E+00
DAV:  10    -0.326518223204E+03    0.13847E-03   -0.15022E-04 14336   0.309E-02    0.116E+00
DAV:  11    -0.326518180423E+03    0.42782E-04   -0.70871E-05 17408   0.215E-02    0.405E-01
DAV:  12    -0.326518174784E+03    0.56385E-05   -0.54609E-06 14336   0.411E-03    0.205E-01
DAV:  13    -0.326518170964E+03    0.38199E-05   -0.30912E-06 18176   0.350E-03    0.409E-02
DAV:  14    -0.326518170345E+03    0.61969E-06   -0.40297E-07 14592   0.135E-03    0.205E-03
DAV:  15    -0.326518170287E+03    0.57888E-07   -0.38244E-08 17152   0.283E-04    0.193E-03
DAV:  16    -0.326518170313E+03   -0.26193E-07   -0.25873E-09 11776   0.840E-05    0.327E-04
DAV:  17    -0.326518170311E+03    0.21682E-08   -0.28356E-09 11520   0.917E-05
   1 F= -.32651817E+03 E0= -.32651817E+03  d E =0.000000E+00  mag=     0.0000
