 vasp.5.4.4.18Apr17-6-g9f103f2a35 (build Oct 30 2023 17:30:16) complex          
  
 executed on             LinuxIFC date 2024.06.29  18:26:01
 running on  256 total cores
 distrk:  each k-point on  256 cores,    1 groups
 distr:  one band on NCORES_PER_BAND=   1 cores,  256 groups


--------------------------------------------------------------------------------------------------------


 INCAR:
 POTCAR:    PAW_PBE S 06Sep2000                   
 POTCAR:     PAW_PBE Cu_pv 06Sep2000              
 POTCAR:     PAW_PBE Fe_pv 02Aug2007              

 ----------------------------------------------------------------------------- 
|                                                                             |
|           W    W    AA    RRRRR   N    N  II  N    N   GGGG   !!!           |
|           W    W   A  A   R    R  NN   N  II  NN   N  G    G  !!!           |
|           W    W  A    A  R    R  N N  N  II  N N  N  G       !!!           |
|           W WW W  AAAAAA  RRRRR   N  N N  II  N  N N  G  GGG   !            |
|           WW  WW  A    A  R   R   N   NN  II  N   NN  G    G                |
|           W    W  A    A  R    R  N    N  II  N    N   GGGG   !!!           |
|                                                                             |
|      For optimal performance we recommend to set                            |
|        NCORE= 4 - approx SQRT( number of cores)                             |
|      NCORE specifies how many cores store one orbital (NPAR=cpu/NCORE).     |
|      This setting can  greatly improve the performance of VASP for DFT.     |
|      The default,   NCORE=1            might be grossly inefficient         |
|      on modern multi-core architectures or massively parallel machines.     |
|      Do your own testing !!!!                                               |
|      Unfortunately you need to use the default for GW and RPA calculations. |
|      (for HF NCORE is supported but not extensively tested yet)             |
|                                                                             |
 ----------------------------------------------------------------------------- 

 POTCAR:    PAW_PBE S 06Sep2000                   
   SHA256 =  0fc7481fb0695f01bdc6462160264c5c84044ae9ec85a907d398b887a2bc3132 S/
   COPYR  = (c) Copyright 06Sep2000 Georg Kresse                                
   COPYR  = This file is part of the software VASP. Any use, copying, and all ot
   COPYR  = If you do not have a valid VASP license, you may not use, copy or di
   VRHFIN =S : s2p4                                                             
   LEXCH  = PE                                                                  
   EATOM  =   276.8230 eV,   20.3459 Ry                                         
                                                                                
   TITEL  = PAW_PBE S 06Sep2000                                                 
   LULTRA =        F    use ultrasoft PP ?                                      
   IUNSCR =        1    unscreen: 0-lin 1-nonlin 2-no                           
   RPACOR =    1.500    partial core radius                                     
   POMASS =   32.066; ZVAL   =    6.000    mass and valenz                      
   RCORE  =    1.900    outmost cutoff radius                                   
   RWIGS  =    2.200; RWIGS  =    1.164    wigner-seitz radius (au A)           
   ENMAX  =  258.689; ENMIN  =  194.016 eV                                      
   ICORE  =        2    local potential                                         
   LCOR   =        T    correct aug charges                                     
   LPAW   =        T    paw PP                                                  
   EAUG   =  335.092                                                            
   DEXC   =    0.000                                                            
   RMAX   =    1.942    core radius for proj-oper                               
   RAUG   =    1.300    factor for augmentation sphere                          
   RDEP   =    1.954    radius for radial grids                                 
   RDEPT  =    1.744    core radius for aug-charge                              
                                                                                
   Atomic configuration                                                         
    6 entries                                                                   
     n  l   j            E        occ.                                          
     1  0  0.50     -2405.8406   2.0000                                         
     2  0  0.50      -211.7007   2.0000                                         
     2  1  1.50      -156.4958   6.0000                                         
     3  0  0.50       -17.2562   2.0000                                         
     3  1  0.50        -7.0085   4.0000                                         
     3  2  1.50        -6.8029   0.0000                                         
   Description                                                                  
     l       E           TYP  RCUT    TYP  RCUT                                 
     0    -17.2561641     23  1.900                                             
     0    -15.8743224     23  1.900                                             
     1     -7.0085400     23  1.900                                             
     1     -2.7779785     23  1.900                                             
     2     -6.8029130     23  1.900                                             
  local pseudopotential read in
  partial core-charges read in
  partial kinetic energy density read in
  atomic valenz-charges read in
  non local Contribution for L=           0  read in
    real space projection operators read in
  non local Contribution for L=           0  read in
    real space projection operators read in
  non local Contribution for L=           1  read in
    real space projection operators read in
  non local Contribution for L=           1  read in
    real space projection operators read in
    PAW grid and wavefunctions read in
 
   number of l-projection  operators is LMAX  =           4
   number of lm-projection operators is LMMAX =           8
 
 POTCAR:     PAW_PBE Cu_pv 06Sep2000              
   SHA256 =  cb7b504e2ea725fe1f25c85a9ac77d4012ce94cd394135b722c4e25ec297f1cb Cu
   COPYR  = (c) Copyright 06Sep2000 Georg Kresse                                
   COPYR  = This file is part of the software VASP. Any use, copying, and all ot
   COPYR  = If you do not have a valid VASP license, you may not use, copy or di
   VRHFIN =Cu: d10 p1                                                           
   LEXCH  = PE                                                                  
   EATOM  =  4120.1201 eV,  302.8203 Ry                                         
                                                                                
   TITEL  = PAW_PBE Cu_pv 06Sep2000                                             
   LULTRA =        F    use ultrasoft PP ?                                      
   IUNSCR =        1    unscreen: 0-lin 1-nonlin 2-no                           
   RPACOR =    1.500    partial core radius                                     
   POMASS =   63.546; ZVAL   =   17.000    mass and valenz                      
   RCORE  =    2.000    outmost cutoff radius                                   
   RWIGS  =    2.000; RWIGS  =    1.058    wigner-seitz radius (au A)           
   ENMAX  =  368.648; ENMIN  =  276.486 eV                                      
   RCLOC  =    1.304    cutoff for local pot                                    
   LCOR   =        T    correct aug charges                                     
   LPAW   =        T    paw PP                                                  
   EAUG   =  758.233                                                            
   DEXC   =    0.000                                                            
   RMAX   =    2.046    core radius for proj-oper                               
   RAUG   =    1.300    factor for augmentation sphere                          
   RDEP   =    2.025    radius for radial grids                                 
   RDEPT  =    1.558    core radius for aug-charge                              
                                                                                
   Atomic configuration                                                         
    8 entries                                                                   
     n  l   j            E        occ.                                          
     1  0  0.50     -8850.2467   2.0000                                         
     2  0  0.50     -1062.3498   2.0000                                         
     2  1  1.50      -916.8226   6.0000                                         
     3  0  0.50      -114.6929   2.0000                                         
     3  1  1.50       -72.1325   6.0000                                         
     3  2  2.50        -5.0394  10.0000                                         
     4  0  0.50        -4.6097   1.0000                                         
     4  3  2.50        -1.3606   0.0000                                         
   Description                                                                  
     l       E           TYP  RCUT    TYP  RCUT                                 
     1    -72.1324777     23  1.700                                             
     1     -1.3605826     23  1.700                                             
     2     -5.0393776     23  2.000                                             
     2     -6.3999602     23  2.000                                             
     0     -4.6097062     23  1.800                                             
     0     14.1620818     23  1.800                                             
  local pseudopotential read in
  partial core-charges read in
  partial kinetic energy density read in
  atomic valenz-charges read in
  non local Contribution for L=           1  read in
    real space projection operators read in
  non local Contribution for L=           1  read in
    real space projection operators read in
  non local Contribution for L=           2  read in
    real space projection operators read in
  non local Contribution for L=           2  read in
    real space projection operators read in
  non local Contribution for L=           0  read in
    real space projection operators read in
  non local Contribution for L=           0  read in
    real space projection operators read in
    PAW grid and wavefunctions read in
 
   number of l-projection  operators is LMAX  =           6
   number of lm-projection operators is LMMAX =          18
 
 POTCAR:     PAW_PBE Fe_pv 02Aug2007              
   SHA256 =  5d22e414b1f82158bf2c7ecb8b97b28fd0923e48cadc1c3bf74d524558f5dd32 Fe
   COPYR  = (c) Copyright 02Aug2007 Georg Kresse                                
   COPYR  = This file is part of the software VASP. Any use, copying, and all ot
   COPYR  = If you do not have a valid VASP license, you may not use, copy or di
   VRHFIN =Fe:  3pd7s1                                                          
   LEXCH  = PE                                                                  
   EATOM  =  2457.4239 eV,  180.6156 Ry                                         
                                                                                
   TITEL  = PAW_PBE Fe_pv 02Aug2007                                             
   LULTRA =        F    use ultrasoft PP ?                                      
   IUNSCR =        1    unscreen: 0-lin 1-nonlin 2-no                           
   RPACOR =    1.750    partial core radius                                     
   POMASS =   55.847; ZVAL   =   14.000    mass and valenz                      
   RCORE  =    2.200    outmost cutoff radius                                   
   RWIGS  =    2.200; RWIGS  =    1.164    wigner-seitz radius (au A)           
   ENMAX  =  293.238; ENMIN  =  219.928 eV                                      
   ICORE  =        3    local potential                                         
   LCOR   =        T    correct aug charges                                     
   LPAW   =        T    paw PP                                                  
   EAUG   =  578.342                                                            
   DEXC   =    0.000                                                            
   RMAX   =    2.249    core radius for proj-oper                               
   RAUG   =    1.300    factor for augmentation sphere                          
   RDEP   =    2.296    radius for radial grids                                 
   RDEPT  =    1.766    core radius for aug-charge                              
                                                                                
   Atomic configuration                                                         
    8 entries                                                                   
     n  l   j            E        occ.                                          
     1  0  0.50     -6993.8440   2.0000                                         
     2  0  0.50      -814.6047   2.0000                                         
     2  1  1.50      -693.3689   6.0000                                         
     3  0  0.50       -89.4732   2.0000                                         
     3  1  1.50       -55.6373   6.0000                                         
     3  2  2.50        -3.8151   7.0000                                         
     4  0  0.50        -4.2551   1.0000                                         
     4  3  2.50        -1.3606   0.0000                                         
   Description                                                                  
     l       E           TYP  RCUT    TYP  RCUT                                 
     1    -55.6372668     23  2.000                                             
     1     -5.4423304     23  2.000                                             
     2     -3.8151096     23  2.200                                             
     2     -5.1756922     23  2.200                                             
     0     -4.2550951     23  2.200                                             
     0     27.2116520     23  2.200                                             
     3     -1.3605826     23  2.200                                             
  local pseudopotential read in
  partial core-charges read in
  partial kinetic energy density read in
  atomic valenz-charges read in
  non local Contribution for L=           1  read in
    real space projection operators read in
  non local Contribution for L=           1  read in
    real space projection operators read in
  non local Contribution for L=           2  read in
    real space projection operators read in
  non local Contribution for L=           2  read in
    real space projection operators read in
  non local Contribution for L=           0  read in
    real space projection operators read in
  non local Contribution for L=           0  read in
    real space projection operators read in
    PAW grid and wavefunctions read in
 
   number of l-projection  operators is LMAX  =           6
   number of lm-projection operators is LMMAX =          18
 

 ----------------------------------------------------------------------------- 
|                                                                             |
|  ADVICE TO THIS USER RUNNING 'VASP/VAMP'   (HEAR YOUR MASTER'S VOICE ...):  |
|                                                                             |
|      You have a (more or less) 'large supercell' and for larger cells       |
|      it might be more efficient to use real space projection opertators     |
|      So try LREAL= Auto  in the INCAR   file.                               |
|      Mind:          For very  accurate calculation you might also keep the  |
|      reciprocal projection scheme          (i.e. LREAL=.FALSE.)             |
|                                                                             |
 ----------------------------------------------------------------------------- 


 ----------------------------------------------------------------------------- 
|                                                                             |
|  ADVICE TO THIS USER RUNNING 'VASP/VAMP'   (HEAR YOUR MASTER'S VOICE ...):  |
|                                                                             |
|      You enforced a specific xc-type in the INCAR file,                     |
|      a different type was found on the POTCAR file                          |
|          I HOPE YOU KNOW, WHAT YOU ARE  DOING                               |
|                                                                             |
 ----------------------------------------------------------------------------- 

  PAW_PBE S 06Sep2000                   :
 energy of atom  1       EATOM= -276.8230
 kinetic energy error for atom=    0.0007 (will be added to EATOM!!)
   PAW_PBE Cu_pv 06Sep2000              :
 energy of atom  2       EATOM=-4120.1201
 kinetic energy error for atom=    0.0094 (will be added to EATOM!!)
   PAW_PBE Fe_pv 02Aug2007              :
 energy of atom  3       EATOM=-2457.4239
 kinetic energy error for atom=    0.0025 (will be added to EATOM!!)
 
 
 POSCAR: Fe16 Cu16 S32                           
  positions in direct lattice
  No initial velocities read in
 exchange correlation table for  LEXCH =       14
   RHO(1)=    0.500       N(1)  =     2000
   RHO(2)=  100.500       N(2)  =     4000
 


--------------------------------------------------------------------------------------------------------


 ion  position               nearest neighbor table
   1  0.126  0.126  0.118-  37 2.25  61 2.27  41 2.28  49 2.29
   2  0.626  0.126  0.118-  38 2.25  62 2.27  42 2.28  50 2.29
   3  0.126  0.626  0.118-  39 2.25  63 2.27  43 2.28  51 2.29
   4  0.626  0.626  0.118-  40 2.25  64 2.27  44 2.28  52 2.29
   5  0.374  0.374  0.118-  39 2.25  62 2.27  41 2.28  52 2.29
   6  0.874  0.374  0.118-  40 2.25  61 2.27  42 2.28  51 2.29
   7  0.374  0.874  0.118-  37 2.25  64 2.27  43 2.28  50 2.29
   8  0.874  0.874  0.118-  38 2.25  63 2.27  44 2.28  49 2.29
   9  0.124  0.374  0.868-  41 2.25  51 2.27  45 2.28  55 2.29
  10  0.624  0.374  0.868-  42 2.25  52 2.27  46 2.28  56 2.29
  11  0.124  0.874  0.868-  43 2.25  49 2.27  47 2.28  53 2.29
  12  0.624  0.874  0.868-  44 2.25  50 2.27  48 2.28  54 2.29
  13  0.376  0.126  0.868-  41 2.25  50 2.27  46 2.28  53 2.29
  14  0.876  0.126  0.868-  42 2.25  49 2.27  45 2.28  54 2.29
  15  0.376  0.626  0.868-  43 2.25  52 2.27  48 2.28  55 2.29
  16  0.876  0.626  0.868-  44 2.25  51 2.27  47 2.28  56 2.29
  17  0.124  0.124  0.618-  45 2.25  53 2.27  33 2.28  57 2.29
  18  0.624  0.124  0.618-  46 2.25  54 2.27  34 2.28  58 2.29
  19  0.124  0.624  0.618-  47 2.25  55 2.27  35 2.28  59 2.29
  20  0.624  0.624  0.618-  48 2.25  56 2.27  36 2.28  60 2.29
  21  0.376  0.376  0.618-  46 2.25  55 2.27  36 2.28  57 2.29
  22  0.876  0.376  0.618-  45 2.25  56 2.27  35 2.28  58 2.29
  23  0.376  0.876  0.618-  48 2.25  53 2.27  34 2.28  59 2.29
  24  0.876  0.876  0.618-  47 2.25  54 2.27  33 2.28  60 2.29
  25  0.374  0.124  0.368-  34 2.25  57 2.27  37 2.28  62 2.29
  26  0.874  0.124  0.368-  33 2.25  58 2.27  38 2.28  61 2.29
  27  0.374  0.624  0.368-  36 2.25  59 2.27  39 2.28  64 2.29
  28  0.874  0.624  0.368-  35 2.25  60 2.27  40 2.28  63 2.29
  29  0.126  0.376  0.368-  35 2.25  57 2.27  39 2.28  61 2.29
  30  0.626  0.376  0.368-  36 2.25  58 2.27  40 2.28  62 2.29
  31  0.126  0.876  0.368-  33 2.25  59 2.27  37 2.28  63 2.29
  32  0.626  0.876  0.368-  34 2.25  60 2.27  38 2.28  64 2.29
  33  0.000  0.000  0.506-  26 2.25  31 2.25  17 2.28  24 2.28
  34  0.500  0.000  0.506-  25 2.25  32 2.25  18 2.28  23 2.28
  35  0.000  0.500  0.506-  28 2.25  29 2.25  19 2.28  22 2.28
  36  0.500  0.500  0.506-  27 2.25  30 2.25  20 2.28  21 2.28
  37  0.250  0.000  0.256-   1 2.25   7 2.25  25 2.28  31 2.28
  38  0.750  0.000  0.256-   2 2.25   8 2.25  26 2.28  32 2.28
  39  0.250  0.500  0.256-   3 2.25   5 2.25  27 2.28  29 2.28
  40  0.750  0.500  0.256-   4 2.25   6 2.25  28 2.28  30 2.28
  41  0.250  0.250  0.006-   9 2.25  13 2.25   1 2.28   5 2.28
  42  0.750  0.250  0.006-  10 2.25  14 2.25   2 2.28   6 2.28
  43  0.250  0.750  0.006-  11 2.25  15 2.25   3 2.28   7 2.28
  44  0.750  0.750  0.006-  12 2.25  16 2.25   4 2.28   8 2.28
  45  0.000  0.250  0.756-  17 2.25  22 2.25   9 2.28  14 2.28
  46  0.500  0.250  0.756-  18 2.25  21 2.25  10 2.28  13 2.28
  47  0.000  0.750  0.756-  19 2.25  24 2.25  11 2.28  16 2.28
  48  0.500  0.750  0.756-  20 2.25  23 2.25  12 2.28  15 2.28
  49  0.000  0.000  0.007-  11 2.27  14 2.27   1 2.29   8 2.29
  50  0.500  0.000  0.007-  12 2.27  13 2.27   2 2.29   7 2.29
  51  0.000  0.500  0.007-   9 2.27  16 2.27   3 2.29   6 2.29
  52  0.500  0.500  0.007-  10 2.27  15 2.27   4 2.29   5 2.29
  53  0.250  0.000  0.757-  17 2.27  23 2.27  11 2.29  13 2.29
  54  0.750  0.000  0.757-  18 2.27  24 2.27  12 2.29  14 2.29
  55  0.250  0.500  0.757-  19 2.27  21 2.27   9 2.29  15 2.29
  56  0.750  0.500  0.757-  20 2.27  22 2.27  10 2.29  16 2.29
  57  0.250  0.250  0.507-  25 2.27  29 2.27  17 2.29  21 2.29
  58  0.750  0.250  0.507-  26 2.27  30 2.27  18 2.29  22 2.29
  59  0.250  0.750  0.507-  27 2.27  31 2.27  19 2.29  23 2.29
  60  0.750  0.750  0.507-  28 2.27  32 2.27  20 2.29  24 2.29
  61  0.000  0.250  0.257-   1 2.27   6 2.27  26 2.29  29 2.29
  62  0.500  0.250  0.257-   2 2.27   5 2.27  25 2.29  30 2.29
  63  0.000  0.750  0.257-   3 2.27   8 2.27  28 2.29  31 2.29
  64  0.500  0.750  0.257-   4 2.27   7 2.27  27 2.29  32 2.29
 
  LATTYP: Found a base centered orthorhombic cell.
 ALAT       =    13.9248516094
 B/A-ratio  =     1.1303156081
 C/A-ratio  =     0.7496601251
  
  Lattice vectors:
  
 A1 = (  10.4879240000,   0.6415670000,   0.0000000000)
 A2 = (  -0.6415670000, -10.4879240000,   0.0000000000)
 A3 = (   0.0000000000,   0.0000000000, -10.4389060000)


Analysis of symmetry for initial positions (statically):
=====================================================================
 Subroutine PRICEL returns following result:
 
  LATTYP: Found a face centered orthorhombic cell.
 ALAT       =     6.9624258047
 B/A-ratio  =     1.1303156081
 C/A-ratio  =     1.4993202503
  
  Lattice vectors:
  
 A1 = (  -2.7823727500,  -2.7823727500,   5.2194530000)
 A2 = (  -2.4615892500,   2.4615892500,   5.2194530000)
 A3 = (  -5.2439620000,  -0.3207835000,   0.0000000000)
 
   8 primitive cells build up your supercell.
 

 Routine SETGRP: Setting up the symmetry group for a 
 base centered orthorhombic supercell.


 Subroutine GETGRP returns: Found  4 space group operations
 (whereof  2 operations were pure point group operations)
 out of a pool of  8 trial point group operations.


The static configuration has the point symmetry C_2 .
 The point group associated with its full space group is C_2v.


Analysis of symmetry for dynamics (positions and initial velocities):
=====================================================================
 Subroutine PRICEL returns following result:
 
  LATTYP: Found a face centered orthorhombic cell.
 ALAT       =     6.9624258047
 B/A-ratio  =     1.1303156081
 C/A-ratio  =     1.4993202503
  
  Lattice vectors:
  
 A1 = (  -2.7823727500,  -2.7823727500,   5.2194530000)
 A2 = (  -2.4615892500,   2.4615892500,   5.2194530000)
 A3 = (  -5.2439620000,  -0.3207835000,   0.0000000000)
 
   8 primitive cells build up your supercell.
 

 Routine SETGRP: Setting up the symmetry group for a 
 base centered orthorhombic supercell.


 Subroutine GETGRP returns: Found  4 space group operations
 (whereof  2 operations were pure point group operations)
 out of a pool of  8 trial point group operations.


The dynamic configuration has the point symmetry C_2 .
 The point group associated with its full space group is C_2v.


Analysis of structural, dynamic, and magnetic symmetry:
=====================================================================
 Subroutine PRICEL returns following result:
 
  LATTYP: Found a face centered orthorhombic cell.
 ALAT       =     6.9624258047
 B/A-ratio  =     1.1303156081
 C/A-ratio  =     1.4993202503
  
  Lattice vectors:
  
 A1 = (  -2.7823727500,  -2.7823727500,   5.2194530000)
 A2 = (  -2.4615892500,   2.4615892500,   5.2194530000)
 A3 = (  -5.2439620000,  -0.3207835000,   0.0000000000)
 
   8 primitive cells build up your supercell.
 

 Routine SETGRP: Setting up the symmetry group for a 
 base centered orthorhombic supercell.


 Subroutine GETGRP returns: Found  4 space group operations
 (whereof  2 operations were pure point group operations)
 out of a pool of  8 trial point group operations.


The magnetic configuration has the point symmetry C_2 .
 The point group associated with its full space group is C_2v.


 Subroutine INISYM returns: Found  4 space group operations
 (whereof  2 operations are pure point group operations),
 and found     8 'primitive' translations

 
 
 KPOINTS: Automatic mesh                          

Automatic generation of k-mesh.
Space group operators:
 irot       det(A)        alpha          n_x          n_y          n_z        tau_x        tau_y        tau_z
    1     1.000000     0.000000     1.000000     0.000000     0.000000     0.000000     0.000000     0.000000
    2     1.000000   180.000000     0.000000     0.000000     1.000000     0.000000     0.000000     0.000000
    3    -1.000000   180.000000     0.707107     0.707107     0.000000    -0.750000    -0.000000     0.750000
    4    -1.000000   180.000000     0.707107    -0.707107     0.000000    -0.750000    -0.000000     0.750000
 
 Subroutine IBZKPT returns following result:
 ===========================================
 
 Found      6 irreducible k-points:
 
 Following reciprocal coordinates:
            Coordinates               Weight
  0.000000  0.000000  0.000000      1.000000
  0.500000  0.000000  0.000000      2.000000
  0.500000  0.500000  0.000000      1.000000
  0.000000  0.000000  0.500000      1.000000
  0.500000  0.000000  0.500000      2.000000
  0.500000  0.500000  0.500000      1.000000
 
 Following cartesian coordinates:
            Coordinates               Weight
  0.000000  0.000000  0.000000      1.000000
  0.047853 -0.002927  0.000000      2.000000
  0.044926  0.044926  0.000000      1.000000
  0.000000  0.000000  0.047898      1.000000
  0.047853 -0.002927  0.047898      2.000000
  0.044926  0.044926  0.047898      1.000000
 
 TETIRR: Found     12 inequivalent tetrahedra from       48
 
 Subroutine IBZKPT_HF returns following result:
 ==============================================
 
 Found      8 k-points in 1st BZ
 the following      8 k-points will be used (e.g. in the exchange kernel)
 Following reciprocal coordinates:   # in IRBZ
  0.000000  0.000000  0.000000    0.12500000   1 t-inv F
  0.500000  0.000000  0.000000    0.12500000   2 t-inv F
  0.500000  0.500000  0.000000    0.12500000   3 t-inv F
  0.000000  0.000000  0.500000    0.12500000   4 t-inv F
  0.500000  0.000000  0.500000    0.12500000   5 t-inv F
  0.500000  0.500000  0.500000    0.12500000   6 t-inv F
  0.000000 -0.500000  0.000000    0.12500000   2 t-inv F spinflp
  0.000000 -0.500000  0.500000    0.12500000   5 t-inv F spinflp


--------------------------------------------------------------------------------------------------------




 Dimension of arrays:
   k-points           NKPTS =      6   k-points in BZ     NKDIM =      6   number of bands    NBANDS=    512
   number of dos      NEDOS =    301   number of ions     NIONS =     64
   non local maximal  LDIM  =      6   non local SUM 2l+1 LMDIM =     18
   total plane-waves  NPLWV = 829440
   max r-space proj   IRMAX =      1   max aug-charges    IRDMAX=  23040
   dimension x,y,z NGX =    96 NGY =   96 NGZ =   90
   dimension x,y,z NGXF=   192 NGYF=  192 NGZF=  180
   support grid    NGXF=   192 NGYF=  192 NGZF=  180
   ions per type =              32  16  16
   NGX,Y,Z   is equivalent  to a cutoff of  15.19, 15.19, 14.33 a.u.
   NGXF,Y,Z  is equivalent  to a cutoff of  30.38, 30.38, 28.67 a.u.

 SYSTEM =  CuFeS2                                  
 POSCAR =  Fe16 Cu16 S32                           

 Startparameter for this run:
   NWRITE =      2    write-flag & timer
   PREC   = accura    normal or accurate (medium, high low for compatibility)
   ISTART =      1    job   : 0-new  1-cont  2-samecut
   ICHARG =      1    charge: 1-file 2-atom 10-const
   ISPIN  =      2    spin polarized calculation?
   LNONCOLLINEAR =      F non collinear calculations
   LSORBIT =      F    spin-orbit coupling
   INIWAV =      1    electr: 0-lowe 1-rand  2-diag
   LASPH  =      F    aspherical Exc in radial PAW
   METAGGA=      F    non-selfconsistent MetaGGA calc.

 Electronic Relaxation 1
   ENCUT  =  700.0 eV  51.45 Ry    7.17 a.u.  22.67 22.67 22.52*2*pi/ulx,y,z
   ENINI  =  700.0     initial cutoff
   ENAUG  =  758.2 eV  augmentation charge cutoff
   NELM   =    500;   NELMIN=  2; NELMDL=  0     # of ELM steps 
   EDIFF  = 0.1E-07   stopping-criterion for ELM
   LREAL  =      F    real-space projection
   NLSPLINE    = F    spline interpolate recip. space projectors
   LCOMPAT=      F    compatible to vasp.4.4
   GGA_COMPAT  = T    GGA compatible to vasp.4.4-vasp.4.6
   LMAXPAW     = -100 max onsite density
   LMAXMIX     =    4 max onsite mixed and CHGCAR
   VOSKOWN=      0    Vosko Wilk Nusair interpolation
   ROPT   =    0.00000   0.00000   0.00000
 Ionic relaxation
   EDIFFG = -.1E-04   stopping-criterion for IOM
   NSW    =      0    number of steps for IOM
   NBLOCK =      1;   KBLOCK =      1    inner block; outer block 
   IBRION =     -1    ionic relax: 0-MD 1-quasi-New 2-CG
   NFREE  =      0    steps in history (QN), initial steepest desc. (CG)
   ISIF   =      2    stress and relaxation
   IWAVPR =     10    prediction:  0-non 1-charg 2-wave 3-comb
   ISYM   =      2    0-nonsym 1-usesym 2-fastsym
   LCORR  =      T    Harris-Foulkes like correction to forces

   POTIM  = 0.5000    time-step for ionic-motion
   TEIN   =    0.0    initial temperature
   TEBEG  =    0.0;   TEEND  =   0.0 temperature during run
   SMASS  =  -3.00    Nose mass-parameter (am)
   estimated Nose-frequenzy (Omega)   =  0.10E-29 period in steps =****** mass=  -0.252E-26a.u.
   SCALEE = 1.0000    scale energy and forces
   NPACO  =    256;   APACO  = 16.0  distance and # of slots for P.C.
   PSTRESS=    0.0 pullay stress

  Mass of Ions in am
   POMASS =  32.07 63.55 55.85
  Ionic Valenz
   ZVAL   =   6.00 17.00 14.00
  Atomic Wigner-Seitz radii
   RWIGS  =  -1.00 -1.00 -1.00
  virtual crystal weights 
   VCA    =   1.00  1.00  1.00
   NELECT =     688.0000    total number of electrons
   NUPDOWN=      -1.0000    fix difference up-down

 DOS related values:
   EMIN   =  10.00;   EMAX   =-10.00  energy-range for DOS
   EFERMI =   0.00
   ISMEAR =    -5;   SIGMA  =   0.03  broadening in eV -4-tet -1-fermi 0-gaus

 Electronic relaxation 2 (details)
   IALGO  =     38    algorithm
   LDIAG  =      T    sub-space diagonalisation (order eigenvalues)
   LSUBROT=      F    optimize rotation matrix (better conditioning)
   TURBO    =      0    0=normal 1=particle mesh
   IRESTART =      0    0=no restart 2=restart with 2 vectors
   NREBOOT  =      0    no. of reboots
   NMIN     =      0    reboot dimension
   EREF     =   0.00    reference energy to select bands
   IMIX   =      4    mixing-type and parameters
     AMIX     =   0.40;   BMIX     =  1.00
     AMIX_MAG =   1.60;   BMIX_MAG =  1.00
     AMIN     =   0.10
     WC   =   100.;   INIMIX=   1;  MIXPRE=   1;  MAXMIX= -45

 Intra band minimization:
   WEIMIN = 0.0000     energy-eigenvalue tresh-hold
   EBREAK =  0.49E-11  absolut break condition
   DEPER  =   0.30     relativ break condition  

   TIME   =   0.40     timestep for ELM

  volume/ion in A,a.u.               =      17.87       120.62
  Fermi-wavevector in a.u.,A,eV,Ry     =   1.381876  2.611367 25.981424  1.909581
  Thomas-Fermi vector in A             =   2.506619
 
 Write flags
   LWAVE        =      T    write WAVECAR
   LDOWNSAMPLE  =      F    k-point downsampling of WAVECAR
   LCHARG       =      T    write CHGCAR
   LVTOT        =      F    write LOCPOT, total local potential
   LVHAR        =      F    write LOCPOT, Hartree potential only
   LELF         =      F    write electronic localiz. function (ELF)
   LORBIT       =     11    0 simple, 1 ext, 2 COOP (PROOUT), +10 PAW based schemes


 Dipole corrections
   LMONO  =      F    monopole corrections only (constant potential shift)
   LDIPOL =      F    correct potential (dipole corrections)
   IDIPOL =      0    1-x, 2-y, 3-z, 4-all directions 
   EPSILON=  1.0000000 bulk dielectric constant

 LDA+U is selected, type is set to LDAUTYPE =  2
   angular momentum for each species LDAUL =     2    2    2
   U (eV)           for each species LDAUU =   0.0  0.1  4.7
   J (eV)           for each species LDAUJ =   0.0  0.0  0.0
 Exchange correlation treatment:
   GGA     =    PS    GGA type
   LEXCH   =    14    internal setting for exchange type
   VOSKOWN=      0    Vosko Wilk Nusair interpolation
   LHFCALC =     F    Hartree Fock is set to
   LHFONE  =     F    Hartree Fock one center treatment
   AEXX    =    0.0000 exact exchange contribution

 Linear response parameters
   LEPSILON=     F    determine dielectric tensor
   LRPA    =     F    only Hartree local field effects (RPA)
   LNABLA  =     F    use nabla operator in PAW spheres
   LVEL    =     F    velocity operator in full k-point grid
   LINTERFAST=   F  fast interpolation
   KINTER  =     0    interpolate to denser k-point grid
   CSHIFT  =0.1000    complex shift for real part using Kramers Kronig
   OMEGAMAX=  -1.0    maximum frequency
   DEG_THRESHOLD= 0.2000000E-02 threshold for treating states as degnerate
   RTIME   =   -0.100 relaxation time in fs
  (WPLASMAI=    0.000 imaginary part of plasma frequency in eV, 0.658/RTIME)
   DFIELD  = 0.0000000 0.0000000 0.0000000 field for delta impulse in time
 
 Orbital magnetization related:
   ORBITALMAG=     F  switch on orbital magnetization
   LCHIMAG   =     F  perturbation theory with respect to B field
   DQ        =  0.001000  dq finite difference perturbation B field
   LLRAUG    =     F  two centre corrections for induced B field

 PEAD related settings:
   LPEAD      =     T    switch on PEAD
   IPEAD      =     4    finite difference order for dpsi/dk
   LCALCPOL   =     T    calculate macroscopic polarization
   LCALCEPS   =     F    calculate dielectric tensor
   EFIELD_PEAD=    0.0000    0.0000    0.0000
   SKIP_EDOTP =     F
   LRPA       =     F
   SKIP_SCF   =     F


--------------------------------------------------------------------------------------------------------


 Static calculation
 charge density and potential will be updated during run
 spin polarized calculation
 Variant of blocked Davidson
 Davidson routine will perform the subspace rotation
 perform sub-space diagonalisation
    after iterative eigenvector-optimisation
 modified Broyden-mixing scheme, WC =      100.0
 initial mixing is a Kerker type mixing with AMIX =  0.4000 and BMIX =      1.0000
 Hartree-type preconditioning will be used
 using additional bands          168
 reciprocal scheme for non local part
 use partial core corrections
 calculate Harris-corrections to forces 
   (improved forces if not selfconsistent)
 use gradient corrections 
 use of overlap-Matrix (Vanderbilt PP)
 Fermi weights with tetrahedron method with Bloechl corrections


--------------------------------------------------------------------------------------------------------


  energy-cutoff  :      700.00
  volume of cell :     1143.95
      direct lattice vectors                 reciprocal lattice vectors
    10.487924000  0.641567000  0.000000000     0.095705887 -0.005854518  0.000000000
     0.641567000 10.487924000  0.000000000    -0.005854518  0.095705887  0.000000000
     0.000000000  0.000000000 10.438906000     0.000000000  0.000000000  0.095795479

  length of vectors
    10.507528636 10.507528636 10.438906000     0.095884786  0.095884786  0.095795479


 
 old parameters found on file WAVECAR:
  energy-cutoff  :      700.00
  volume of cell :     1143.95
      direct lattice vectors                 reciprocal lattice vectors
    10.487924000  0.641567000  0.000000000     0.095705887 -0.005854518  0.000000000
     0.641567000 10.487924000  0.000000000    -0.005854518  0.095705887  0.000000000
     0.000000000  0.000000000 10.438906000     0.000000000  0.000000000  0.095795479

  length of vectors

 
 k-points in units of 2pi/SCALE and weight: Automatic mesh                          
   0.00000000  0.00000000  0.00000000       0.125
   0.04785294 -0.00292726  0.00000000       0.250
   0.04492568  0.04492568  0.00000000       0.125
   0.00000000  0.00000000  0.04789774       0.125
   0.04785294 -0.00292726  0.04789774       0.250
   0.04492568  0.04492568  0.04789774       0.125
 
 k-points in reciprocal lattice and weights: Automatic mesh                          
   0.00000000  0.00000000  0.00000000       0.125
   0.50000000  0.00000000  0.00000000       0.250
   0.50000000  0.50000000  0.00000000       0.125
   0.00000000  0.00000000  0.50000000       0.125
   0.50000000  0.00000000  0.50000000       0.250
   0.50000000  0.50000000  0.50000000       0.125
 
 position of ions in fractional coordinates (direct lattice) 
   0.12603300  0.12563200  0.11844000
   0.62603300  0.12563200  0.11844000
   0.12603300  0.62563200  0.11844000
   0.62603300  0.62563200  0.11844000
   0.37396700  0.37436800  0.11844000
   0.87396700  0.37436800  0.11844000
   0.37396700  0.87436800  0.11844000
   0.87396700  0.87436800  0.11844000
   0.12436800  0.37396700  0.86844000
   0.62436800  0.37396700  0.86844000
   0.12436800  0.87396700  0.86844000
   0.62436800  0.87396700  0.86844000
   0.37563200  0.12603300  0.86844000
   0.87563200  0.12603300  0.86844000
   0.37563200  0.62603300  0.86844000
   0.87563200  0.62603300  0.86844000
   0.12396700  0.12436800  0.61844000
   0.62396700  0.12436800  0.61844000
   0.12396700  0.62436800  0.61844000
   0.62396700  0.62436800  0.61844000
   0.37603300  0.37563200  0.61844000
   0.87603300  0.37563200  0.61844000
   0.37603300  0.87563200  0.61844000
   0.87603300  0.87563200  0.61844000
   0.37436800  0.12396700  0.36844000
   0.87436800  0.12396700  0.36844000
   0.37436800  0.62396700  0.36844000
   0.87436800  0.62396700  0.36844000
   0.12563200  0.37603300  0.36844000
   0.62563200  0.37603300  0.36844000
   0.12563200  0.87603300  0.36844000
   0.62563200  0.87603300  0.36844000
   0.00000000  0.00000000  0.50573900
   0.50000000  0.00000000  0.50573900
   0.00000000  0.50000000  0.50573900
   0.50000000  0.50000000  0.50573900
   0.25000000  0.00000000  0.25573900
   0.75000000  0.00000000  0.25573900
   0.25000000  0.50000000  0.25573900
   0.75000000  0.50000000  0.25573900
   0.25000000  0.25000000  0.00573900
   0.75000000  0.25000000  0.00573900
   0.25000000  0.75000000  0.00573900
   0.75000000  0.75000000  0.00573900
   0.00000000  0.25000000  0.75573900
   0.50000000  0.25000000  0.75573900
   0.00000000  0.75000000  0.75573900
   0.50000000  0.75000000  0.75573900
   0.00000000  0.00000000  0.00738100
   0.50000000  0.00000000  0.00738100
   0.00000000  0.50000000  0.00738100
   0.50000000  0.50000000  0.00738100
   0.25000000  0.00000000  0.75738100
   0.75000000  0.00000000  0.75738100
   0.25000000  0.50000000  0.75738100
   0.75000000  0.50000000  0.75738100
   0.25000000  0.25000000  0.50738100
   0.75000000  0.25000000  0.50738100
   0.25000000  0.75000000  0.50738100
   0.75000000  0.75000000  0.50738100
   0.00000000  0.25000000  0.25738100
   0.50000000  0.25000000  0.25738100
   0.00000000  0.75000000  0.25738100
   0.50000000  0.75000000  0.25738100
 
 position of ions in cartesian coordinates  (Angst):
   1.40242587  1.39847748  1.23638403
   6.64638787  1.71926098  1.23638403
   1.72320937  6.64243948  1.23638403
   6.96717137  6.96322298  1.23638403
   4.16231963  4.16626802  1.23638403
   9.40628163  4.48705152  1.23638403
   4.48310313  9.41023002  1.23638403
   9.72706513  9.73101352  1.23638403
   1.54428702  4.00192788  9.06556353
   6.78824902  4.32271138  9.06556353
   1.86507052  9.24588988  9.06556353
   7.10903252  9.56667338  9.06556353
   4.02045848  1.56281762  9.06556353
   9.26442048  1.88360112  9.06556353
   4.34124198  6.80677962  9.06556353
   9.58520398  7.12756312  9.06556353
   1.37994688  1.38389527  6.45583703
   6.62390888  1.70467877  6.45583703
   1.70073038  6.62785727  6.45583703
   6.94469238  6.94864077  6.45583703
   4.18479862  4.18085023  6.45583703
   9.42876062  4.50163373  6.45583703
   4.50558212  9.42481223  6.45583703
   9.74954412  9.74559573  6.45583703
   4.00587627  1.54033863  3.84611053
   9.24983827  1.86112213  3.84611053
   4.32665977  6.78430063  3.84611053
   9.57062177  7.10508413  3.84611053
   1.55886923  4.02440687  3.84611053
   6.80283123  4.34519037  3.84611053
   1.87965273  9.26836887  3.84611053
   7.12361473  9.58915237  3.84611053
   0.00000000  0.00000000  5.27936188
   5.24396200  0.32078350  5.27936188
   0.32078350  5.24396200  5.27936188
   5.56474550  5.56474550  5.27936188
   2.62198100  0.16039175  2.66963538
   7.86594300  0.48117525  2.66963538
   2.94276450  5.40435375  2.66963538
   8.18672650  5.72513725  2.66963538
   2.78237275  2.78237275  0.05990888
   8.02633475  3.10315625  0.05990888
   3.10315625  8.02633475  0.05990888
   8.34711825  8.34711825  0.05990888
   0.16039175  2.62198100  7.88908838
   5.40435375  2.94276450  7.88908838
   0.48117525  7.86594300  7.88908838
   5.72513725  8.18672650  7.88908838
   0.00000000  0.00000000  0.07704957
   5.24396200  0.32078350  0.07704957
   0.32078350  5.24396200  0.07704957
   5.56474550  5.56474550  0.07704957
   2.62198100  0.16039175  7.90622907
   7.86594300  0.48117525  7.90622907
   2.94276450  5.40435375  7.90622907
   8.18672650  5.72513725  7.90622907
   2.78237275  2.78237275  5.29650257
   8.02633475  3.10315625  5.29650257
   3.10315625  8.02633475  5.29650257
   8.34711825  8.34711825  5.29650257
   0.16039175  2.62198100  2.68677607
   5.40435375  2.94276450  2.68677607
   0.48117525  7.86594300  2.68677607
   5.72513725  8.18672650  2.68677607
 


--------------------------------------------------------------------------------------------------------


 k-point  1 :   0.0000 0.0000 0.0000  plane waves:   48107
 k-point  2 :   0.5000 0.0000 0.0000  plane waves:   48122
 k-point  3 :   0.5000 0.5000 0.0000  plane waves:   48144
 k-point  4 :   0.0000 0.0000 0.5000  plane waves:   48074
 k-point  5 :   0.5000 0.0000 0.5000  plane waves:   48068
 k-point  6 :   0.5000 0.5000 0.5000  plane waves:   48000

 maximum and minimum number of plane-waves per node :     48144    48000

 maximum number of plane-waves:     48144
 maximum index in each direction: 
   IXMAX=   22   IYMAX=   22   IZMAX=   22
   IXMIN=  -23   IYMIN=  -23   IZMIN=  -23


 serial   3D FFT for wavefunctions
 parallel 3D FFT for charge:
    minimum data exchange during FFTs selected (reduces bandwidth)


 total amount of memory used by VASP MPI-rank0   300225. kBytes
=======================================================================

   base      :      30000. kBytes
   nonl-proj :     174956. kBytes
   fftplans  :       4588. kBytes
   grid      :      69719. kBytes
   one-center:       1990. kBytes
   wavefun   :      18972. kBytes
 
     INWAV:  cpu time   11.4076: real time   11.6209
 Broyden mixing: mesh for mixing (old mesh)
   NGX = 45   NGY = 45   NGZ = 45
  (NGX  =192   NGY  =192   NGZ  =180)
  gives a total of  91125 points

 initial charge density was supplied:
 number of electron     688.0000492 magnetization       0.0000000
 keeping initial charge density in first step


--------------------------------------------------------------------------------------------------------


 Maximum index for augmentation-charges          899 (set IRDMAX)


--------------------------------------------------------------------------------------------------------


 First call to EWALD:  gamma=   0.169
 Maximum number of real-space cells 3x 3x 3
 Maximum number of reciprocal cells 3x 3x 3

    FEWALD:  cpu time    0.0027: real time    0.0031


--------------------------------------- Iteration      1(   1)  ---------------------------------------


    POTLOK:  cpu time    0.3257: real time    0.3806
    SETDIJ:  cpu time    0.0132: real time    0.0311
     EDDAV:  cpu time  148.2856: real time  149.2828
 BZINTS: Fermi energy:  5.215305;688.000000 electrons
         Band energy:***********;  BLOECHL correction:  0.000000
       DOS:  cpu time    0.0032: real time    0.0033
    CHARGE:  cpu time    1.1716: real time    1.1795
    MIXING:  cpu time    0.0041: real time    0.0041
    --------------------------------------------
      LOOP:  cpu time  149.8034: real time  150.8814

 eigenvalue-minimisations  : 19968
 total energy-change (2. order) :-0.3041796E+03  (-0.1304837E+03)
 number of electron     688.0000493 magnetization       0.0000000
 augmentation part      282.9172901 magnetization       0.0000000

 Broyden mixing:
  rms(total) = 0.30675E+01    rms(broyden)= 0.30675E+01
  rms(prec ) = 0.30682E+01
  weight for this iteration     100.00

 Free energy of the ion-electron system (eV)
  ---------------------------------------------------
  alpha Z        PSCENC =      2369.99683654
  Ewald energy   TEWEN  =    -62654.96588614
  -Hartree energ DENC   =    -42833.58495646
  -exchange      EXHF   =         0.00000000
  -V(xc)+E(xc)   XCENC  =      3286.46502162
  PAW double counting   =    112162.87499700  -115854.76750518
  entropy T*S    EENTRO =         0.00000000
  eigenvalues    EBANDS =    -10800.26319004
  atomic energy  EATOM  =    114020.06510763
  Solvation  Ediel_sol  =         0.00000000
  ---------------------------------------------------
  free energy    TOTEN  =      -304.17957505 eV

  energy without entropy =     -304.17957505  energy(sigma->0) =     -304.17957505


--------------------------------------------------------------------------------------------------------




--------------------------------------- Iteration      1(   2)  ---------------------------------------


    POTLOK:  cpu time    0.1201: real time    0.1244
    SETDIJ:  cpu time    0.0129: real time    0.0129
     EDDAV:  cpu time   67.9433: real time   68.4462
 BZINTS: Fermi energy:  5.201180;688.000000 electrons
         Band energy:***********;  BLOECHL correction:  0.000000
       DOS:  cpu time    0.0030: real time    0.0031
    CHARGE:  cpu time    1.1684: real time    1.1762
    MIXING:  cpu time    0.0023: real time    0.0064
    --------------------------------------------
      LOOP:  cpu time   69.2500: real time   69.7692

 eigenvalue-minimisations  : 12800
 total energy-change (2. order) :-0.2206956E+02  (-0.2209884E+02)
 number of electron     688.0000492 magnetization       0.0000000
 augmentation part      281.7562405 magnetization       0.0000000

 Broyden mixing:
  rms(total) = 0.12493E+01    rms(broyden)= 0.12493E+01
  rms(prec ) = 0.12550E+01
  weight for this iteration     100.00

 eigenvalues of (default mixing * dielectric matrix)
  average eigenvalue GAMMA=   0.7021
  0.7021

 Free energy of the ion-electron system (eV)
  ---------------------------------------------------
  alpha Z        PSCENC =      2369.99683654
  Ewald energy   TEWEN  =    -62654.96588614
  -Hartree energ DENC   =    -42847.39529182
  -exchange      EXHF   =         0.00000000
  -V(xc)+E(xc)   XCENC  =      3287.06149469
  PAW double counting   =    114778.46283553  -118482.66015525
  entropy T*S    EENTRO =         0.00000000
  eigenvalues    EBANDS =    -10796.81407849
  atomic energy  EATOM  =    114020.06510763
  Solvation  Ediel_sol  =         0.00000000
  ---------------------------------------------------
  free energy    TOTEN  =      -326.24913731 eV

  energy without entropy =     -326.24913731  energy(sigma->0) =     -326.24913731


--------------------------------------------------------------------------------------------------------




--------------------------------------- Iteration      1(   3)  ---------------------------------------


    POTLOK:  cpu time    0.1218: real time    0.1228
    SETDIJ:  cpu time    0.0127: real time    0.0127
     EDDAV:  cpu time  145.3964: real time  146.3365
 BZINTS: Fermi energy:  5.052050;688.000000 electrons
         Band energy:***********;  BLOECHL correction:  0.000000
       DOS:  cpu time    0.0027: real time    0.0027
    CHARGE:  cpu time    1.4395: real time    1.4483
    MIXING:  cpu time    0.0018: real time    0.0132
    --------------------------------------------
      LOOP:  cpu time  146.9750: real time  147.9362

 eigenvalue-minimisations  : 19968
 total energy-change (2. order) :-0.2710813E+00  (-0.3325747E+00)
 number of electron     688.0000492 magnetization       0.0000000
 augmentation part      282.3078650 magnetization       0.0000000

 Broyden mixing:
  rms(total) = 0.91257E+00    rms(broyden)= 0.91257E+00
  rms(prec ) = 0.91611E+00
  weight for this iteration     100.00

 eigenvalues of (default mixing * dielectric matrix)
  average eigenvalue GAMMA=   0.5215
  0.5215  0.5215

 Free energy of the ion-electron system (eV)
  ---------------------------------------------------
  alpha Z        PSCENC =      2369.99683654
  Ewald energy   TEWEN  =    -62654.96588614
  -Hartree energ DENC   =    -42821.05260409
  -exchange      EXHF   =         0.00000000
  -V(xc)+E(xc)   XCENC  =      3286.43033558
  PAW double counting   =    114057.81076728  -117755.22767798
  entropy T*S    EENTRO =         0.00000000
  eigenvalues    EBANDS =    -10829.57709742
  atomic energy  EATOM  =    114020.06510763
  Solvation  Ediel_sol  =         0.00000000
  ---------------------------------------------------
  free energy    TOTEN  =      -326.52021859 eV

  energy without entropy =     -326.52021859  energy(sigma->0) =     -326.52021859


--------------------------------------------------------------------------------------------------------




--------------------------------------- Iteration      1(   4)  ---------------------------------------


    POTLOK:  cpu time    0.1355: real time    0.1363
    SETDIJ:  cpu time    0.0168: real time    0.0169
     EDDAV:  cpu time   72.3594: real time   72.8824
 BZINTS: Fermi energy:  5.161487;688.000000 electrons
         Band energy:***********;  BLOECHL correction:  0.000000
       DOS:  cpu time    0.0031: real time    0.0031
    CHARGE:  cpu time    1.1682: real time    1.1758
    MIXING:  cpu time    0.0015: real time    0.0024
    --------------------------------------------
      LOOP:  cpu time   73.6844: real time   74.2168

 eigenvalue-minimisations  : 13056
 total energy-change (2. order) : 0.3232141E-03  (-0.1215704E-01)
 number of electron     688.0000492 magnetization       0.0000000
 augmentation part      282.2132368 magnetization       0.0000000

 Broyden mixing:
  rms(total) = 0.78905E+00    rms(broyden)= 0.78905E+00
  rms(prec ) = 0.78942E+00
  weight for this iteration     100.00

 eigenvalues of (default mixing * dielectric matrix)
  average eigenvalue GAMMA=   0.5406
  0.6296  0.6296  0.3627

 Free energy of the ion-electron system (eV)
  ---------------------------------------------------
  alpha Z        PSCENC =      2369.99683654
  Ewald energy   TEWEN  =    -62654.96588614
  -Hartree energ DENC   =    -42824.74046395
  -exchange      EXHF   =         0.00000000
  -V(xc)+E(xc)   XCENC  =      3286.34497557
  PAW double counting   =    113824.62925543  -117522.33486512
  entropy T*S    EENTRO =         0.00000000
  eigenvalues    EBANDS =    -10825.51485534
  atomic energy  EATOM  =    114020.06510763
  Solvation  Ediel_sol  =         0.00000000
  ---------------------------------------------------
  free energy    TOTEN  =      -326.51989538 eV

  energy without entropy =     -326.51989538  energy(sigma->0) =     -326.51989538


--------------------------------------------------------------------------------------------------------




--------------------------------------- Iteration      1(   5)  ---------------------------------------


    POTLOK:  cpu time    0.1227: real time    0.1235
    SETDIJ:  cpu time    0.0126: real time    0.0127
     EDDAV:  cpu time  118.1210: real time  118.9025
 BZINTS: Fermi energy:  5.145239;688.000000 electrons
         Band energy:***********;  BLOECHL correction:  0.000000
       DOS:  cpu time    0.0031: real time    0.0031
    CHARGE:  cpu time    1.1642: real time    1.1720
    MIXING:  cpu time    0.0014: real time    0.0014
    --------------------------------------------
      LOOP:  cpu time  119.4250: real time  120.2152

 eigenvalue-minimisations  : 16896
 total energy-change (2. order) : 0.9084365E-04  (-0.1029229E-02)
 number of electron     688.0000492 magnetization       0.0000000
 augmentation part      282.1820278 magnetization       0.0000000

 Broyden mixing:
  rms(total) = 0.68730E+00    rms(broyden)= 0.68730E+00
  rms(prec ) = 0.68745E+00
  weight for this iteration     100.00

 eigenvalues of (default mixing * dielectric matrix)
  average eigenvalue GAMMA=   0.4617
  0.6533  0.6533  0.3521  0.1882

 Free energy of the ion-electron system (eV)
  ---------------------------------------------------
  alpha Z        PSCENC =      2369.99683654
  Ewald energy   TEWEN  =    -62654.96588614
  -Hartree energ DENC   =    -42829.22616364
  -exchange      EXHF   =         0.00000000
  -V(xc)+E(xc)   XCENC  =      3286.45717184
  PAW double counting   =    113596.54907271  -117293.78371470
  entropy T*S    EENTRO =         0.00000000
  eigenvalues    EBANDS =    -10821.61222877
  atomic energy  EATOM  =    114020.06510763
  Solvation  Ediel_sol  =         0.00000000
  ---------------------------------------------------
  free energy    TOTEN  =      -326.51980454 eV

  energy without entropy =     -326.51980454  energy(sigma->0) =     -326.51980454


--------------------------------------------------------------------------------------------------------




--------------------------------------- Iteration      1(   6)  ---------------------------------------


    POTLOK:  cpu time    0.1206: real time    0.1247
    SETDIJ:  cpu time    0.0127: real time    0.0127
     EDDAV:  cpu time  106.2212: real time  106.9365
 BZINTS: Fermi energy:  5.141005;688.000000 electrons
         Band energy:***********;  BLOECHL correction:  0.000000
       DOS:  cpu time    0.0031: real time    0.0031
    CHARGE:  cpu time    1.1664: real time    1.1737
    MIXING:  cpu time    0.0015: real time    0.0015
    --------------------------------------------
      LOOP:  cpu time  107.5254: real time  108.2521

 eigenvalue-minimisations  : 16128
 total energy-change (2. order) : 0.2447101E-03  (-0.6088220E-04)
 number of electron     688.0000492 magnetization      -0.0000000
 augmentation part      282.1810548 magnetization      -0.0000000

 Broyden mixing:
  rms(total) = 0.62508E+00    rms(broyden)= 0.62508E+00
  rms(prec ) = 0.62524E+00
  weight for this iteration     100.00

 eigenvalues of (default mixing * dielectric matrix)
  average eigenvalue GAMMA=   0.5891
  0.8062  0.8062  0.4962  0.4962  0.3406

 Free energy of the ion-electron system (eV)
  ---------------------------------------------------
  alpha Z        PSCENC =      2369.99683654
  Ewald energy   TEWEN  =    -62654.96588614
  -Hartree energ DENC   =    -42829.77275716
  -exchange      EXHF   =         0.00000000
  -V(xc)+E(xc)   XCENC  =      3286.45214854
  PAW double counting   =    113459.17670023  -117155.87035797
  entropy T*S    EENTRO =         0.00000000
  eigenvalues    EBANDS =    -10821.60135150
  atomic energy  EATOM  =    114020.06510763
  Solvation  Ediel_sol  =         0.00000000
  ---------------------------------------------------
  free energy    TOTEN  =      -326.51955983 eV

  energy without entropy =     -326.51955983  energy(sigma->0) =     -326.51955983


--------------------------------------------------------------------------------------------------------




--------------------------------------- Iteration      1(   7)  ---------------------------------------


    POTLOK:  cpu time    0.1233: real time    0.1245
    SETDIJ:  cpu time    0.0128: real time    0.0129
     EDDAV:  cpu time  121.1721: real time  121.9691
 BZINTS: Fermi energy:  5.139505;688.000000 electrons
         Band energy:***********;  BLOECHL correction:  0.000000
       DOS:  cpu time    0.0031: real time    0.0031
    CHARGE:  cpu time    1.1666: real time    1.1735
    MIXING:  cpu time    0.0016: real time    0.0016
    --------------------------------------------
      LOOP:  cpu time  122.4795: real time  123.2845

 eigenvalue-minimisations  : 16896
 total energy-change (2. order) : 0.6813883E-03  (-0.4681165E-04)
 number of electron     688.0000492 magnetization      -0.0000000
 augmentation part      282.2059736 magnetization      -0.0000000

 Broyden mixing:
  rms(total) = 0.47980E+00    rms(broyden)= 0.47980E+00
  rms(prec ) = 0.47989E+00
  weight for this iteration     100.00

 eigenvalues of (default mixing * dielectric matrix)
  average eigenvalue GAMMA=   0.7275
  1.2017  1.2017  0.5813  0.5813  0.4582  0.3410

 Free energy of the ion-electron system (eV)
  ---------------------------------------------------
  alpha Z        PSCENC =      2369.99683654
  Ewald energy   TEWEN  =    -62654.96588614
  -Hartree energ DENC   =    -42830.46271400
  -exchange      EXHF   =         0.00000000
  -V(xc)+E(xc)   XCENC  =      3286.44548366
  PAW double counting   =    113139.07726808  -116834.46053703
  entropy T*S    EENTRO =         0.00000000
  eigenvalues    EBANDS =    -10822.21443718
  atomic energy  EATOM  =    114020.06510763
  Solvation  Ediel_sol  =         0.00000000
  ---------------------------------------------------
  free energy    TOTEN  =      -326.51887844 eV

  energy without entropy =     -326.51887844  energy(sigma->0) =     -326.51887844


--------------------------------------------------------------------------------------------------------




--------------------------------------- Iteration      1(   8)  ---------------------------------------


    POTLOK:  cpu time    0.1237: real time    0.1245
    SETDIJ:  cpu time    0.0126: real time    0.0128
     EDDAV:  cpu time   85.8953: real time   86.5002
 BZINTS: Fermi energy:  5.139263;688.000000 electrons
         Band energy:***********;  BLOECHL correction:  0.000000
       DOS:  cpu time    0.0031: real time    0.0031
    CHARGE:  cpu time    1.1660: real time    1.1739
    MIXING:  cpu time    0.0016: real time    0.0016
    --------------------------------------------
      LOOP:  cpu time   87.2022: real time   87.8161

 eigenvalue-minimisations  : 14080
 total energy-change (2. order) : 0.4121313E-03  (-0.3808022E-04)
 number of electron     688.0000492 magnetization      -0.0000000
 augmentation part      282.2185564 magnetization      -0.0000000

 Broyden mixing:
  rms(total) = 0.29379E+00    rms(broyden)= 0.29379E+00
  rms(prec ) = 0.29388E+00
  weight for this iteration     100.00

 eigenvalues of (default mixing * dielectric matrix)
  average eigenvalue GAMMA=   0.7364
  1.3254  1.3254  0.6354  0.6354  0.4501  0.4501  0.3327

 Free energy of the ion-electron system (eV)
  ---------------------------------------------------
  alpha Z        PSCENC =      2369.99683654
  Ewald energy   TEWEN  =    -62654.96588614
  -Hartree energ DENC   =    -42832.09165403
  -exchange      EXHF   =         0.00000000
  -V(xc)+E(xc)   XCENC  =      3286.45611048
  PAW double counting   =    112740.83536404  -116434.72161781
  entropy T*S    EENTRO =         0.00000000
  eigenvalues    EBANDS =    -10822.09272702
  atomic energy  EATOM  =    114020.06510763
  Solvation  Ediel_sol  =         0.00000000
  ---------------------------------------------------
  free energy    TOTEN  =      -326.51846631 eV

  energy without entropy =     -326.51846631  energy(sigma->0) =     -326.51846631


--------------------------------------------------------------------------------------------------------




--------------------------------------- Iteration      1(   9)  ---------------------------------------


    POTLOK:  cpu time    0.1187: real time    0.1225
    SETDIJ:  cpu time    0.0129: real time    0.0129
     EDDAV:  cpu time  137.5060: real time  138.3917
 BZINTS: Fermi energy:  5.139145;688.000000 electrons
         Band energy:***********;  BLOECHL correction:  0.000000
       DOS:  cpu time    0.0031: real time    0.0031
    CHARGE:  cpu time    1.1679: real time    1.1747
    MIXING:  cpu time    0.0016: real time    0.0017
    --------------------------------------------
      LOOP:  cpu time  138.8102: real time  139.7066

 eigenvalue-minimisations  : 18176
 total energy-change (2. order) : 0.1046282E-03  (-0.6530996E-05)
 number of electron     688.0000492 magnetization       0.0000000
 augmentation part      282.2259054 magnetization       0.0000000

 Broyden mixing:
  rms(total) = 0.23585E+00    rms(broyden)= 0.23585E+00
  rms(prec ) = 0.23592E+00
  weight for this iteration     100.00

 eigenvalues of (default mixing * dielectric matrix)
  average eigenvalue GAMMA=   0.6881
  1.3639  1.3639  0.6446  0.6446  0.4281  0.4281  0.3157  0.3157

 Free energy of the ion-electron system (eV)
  ---------------------------------------------------
  alpha Z        PSCENC =      2369.99683654
  Ewald energy   TEWEN  =    -62654.96588614
  -Hartree energ DENC   =    -42832.37099200
  -exchange      EXHF   =         0.00000000
  -V(xc)+E(xc)   XCENC  =      3286.45861734
  PAW double counting   =    112625.87815274  -116319.34497774
  entropy T*S    EENTRO =         0.00000000
  eigenvalues    EBANDS =    -10822.23522005
  atomic energy  EATOM  =    114020.06510763
  Solvation  Ediel_sol  =         0.00000000
  ---------------------------------------------------
  free energy    TOTEN  =      -326.51836168 eV

  energy without entropy =     -326.51836168  energy(sigma->0) =     -326.51836168


--------------------------------------------------------------------------------------------------------




--------------------------------------- Iteration      1(  10)  ---------------------------------------


    POTLOK:  cpu time    0.1232: real time    0.1239
    SETDIJ:  cpu time    0.0128: real time    0.0128
     EDDAV:  cpu time   91.2053: real time   91.8325
 BZINTS: Fermi energy:  5.139149;688.000000 electrons
         Band energy:***********;  BLOECHL correction:  0.000000
       DOS:  cpu time    0.0031: real time    0.0031
    CHARGE:  cpu time    1.1779: real time    1.1857
    MIXING:  cpu time    0.0018: real time    0.0018
    --------------------------------------------
      LOOP:  cpu time   92.5240: real time   93.1598

 eigenvalue-minimisations  : 14336
 total energy-change (2. order) : 0.1384733E-03  (-0.1502187E-04)
 number of electron     688.0000492 magnetization       0.0000000
 augmentation part      282.2387762 magnetization       0.0000000

 Broyden mixing:
  rms(total) = 0.11625E+00    rms(broyden)= 0.11625E+00
  rms(prec ) = 0.11629E+00
  weight for this iteration     100.00

 eigenvalues of (default mixing * dielectric matrix)
  average eigenvalue GAMMA=   0.9112
  1.9093  1.9093  0.9361  0.9361  0.5932  0.5932  0.4938  0.4938  0.3360

 Free energy of the ion-electron system (eV)
  ---------------------------------------------------
  alpha Z        PSCENC =      2369.99683654
  Ewald energy   TEWEN  =    -62654.96588614
  -Hartree energ DENC   =    -42833.01720205
  -exchange      EXHF   =         0.00000000
  -V(xc)+E(xc)   XCENC  =      3286.46354822
  PAW double counting   =    112388.81566503  -116081.43868125
  entropy T*S    EENTRO =         0.00000000
  eigenvalues    EBANDS =    -10822.43761118
  atomic energy  EATOM  =    114020.06510763
  Solvation  Ediel_sol  =         0.00000000
  ---------------------------------------------------
  free energy    TOTEN  =      -326.51822320 eV

  energy without entropy =     -326.51822320  energy(sigma->0) =     -326.51822320


--------------------------------------------------------------------------------------------------------




--------------------------------------- Iteration      1(  11)  ---------------------------------------


    POTLOK:  cpu time    0.1330: real time    0.1338
    SETDIJ:  cpu time    0.0135: real time    0.0136
     EDDAV:  cpu time  128.4128: real time  129.2460
 BZINTS: Fermi energy:  5.139135;688.000000 electrons
         Band energy:***********;  BLOECHL correction:  0.000000
       DOS:  cpu time    0.0031: real time    0.0031
    CHARGE:  cpu time    1.1620: real time    1.1690
    MIXING:  cpu time    0.0019: real time    0.0019
    --------------------------------------------
      LOOP:  cpu time  129.7263: real time  130.5674

 eigenvalue-minimisations  : 17408
 total energy-change (2. order) : 0.4278154E-04  (-0.7087146E-05)
 number of electron     688.0000492 magnetization       0.0000000
 augmentation part      282.2480547 magnetization       0.0000000

 Broyden mixing:
  rms(total) = 0.40485E-01    rms(broyden)= 0.40485E-01
  rms(prec ) = 0.40498E-01
  weight for this iteration     100.00

 eigenvalues of (default mixing * dielectric matrix)
  average eigenvalue GAMMA=   0.9628
  2.2131  2.2131  1.0086  1.0086  0.6563  0.6563  0.3364  0.5206  0.5206  0.4943

 Free energy of the ion-electron system (eV)
  ---------------------------------------------------
  alpha Z        PSCENC =      2369.99683654
  Ewald energy   TEWEN  =    -62654.96588614
  -Hartree energ DENC   =    -42833.35194475
  -exchange      EXHF   =         0.00000000
  -V(xc)+E(xc)   XCENC  =      3286.46512576
  PAW double counting   =    112241.08973930  -115933.21625771
  entropy T*S    EENTRO =         0.00000000
  eigenvalues    EBANDS =    -10822.60090105
  atomic energy  EATOM  =    114020.06510763
  Solvation  Ediel_sol  =         0.00000000
  ---------------------------------------------------
  free energy    TOTEN  =      -326.51818042 eV

  energy without entropy =     -326.51818042  energy(sigma->0) =     -326.51818042


--------------------------------------------------------------------------------------------------------




--------------------------------------- Iteration      1(  12)  ---------------------------------------


    POTLOK:  cpu time    0.1229: real time    0.1237
    SETDIJ:  cpu time    0.0126: real time    0.0127
     EDDAV:  cpu time   93.8826: real time   94.5198
 BZINTS: Fermi energy:  5.139156;688.000000 electrons
         Band energy:***********;  BLOECHL correction:  0.000000
       DOS:  cpu time    0.0031: real time    0.0031
    CHARGE:  cpu time    1.1691: real time    1.1768
    MIXING:  cpu time    0.0020: real time    0.0027
    --------------------------------------------
      LOOP:  cpu time   95.1922: real time   95.8388

 eigenvalue-minimisations  : 14336
 total energy-change (2. order) : 0.5638503E-05  (-0.5460876E-06)
 number of electron     688.0000492 magnetization       0.0000000
 augmentation part      282.2494782 magnetization       0.0000000

 Broyden mixing:
  rms(total) = 0.20468E-01    rms(broyden)= 0.20468E-01
  rms(prec ) = 0.20475E-01
  weight for this iteration     100.00

 eigenvalues of (default mixing * dielectric matrix)
  average eigenvalue GAMMA=   1.0603
  2.6229  2.6229  1.1666  1.1666  0.7849  0.7849  0.3363  0.5702  0.5702  0.5188
  0.5188

 Free energy of the ion-electron system (eV)
  ---------------------------------------------------
  alpha Z        PSCENC =      2369.99683654
  Ewald energy   TEWEN  =    -62654.96588614
  -Hartree energ DENC   =    -42833.44953993
  -exchange      EXHF   =         0.00000000
  -V(xc)+E(xc)   XCENC  =      3286.46680940
  PAW double counting   =    112204.38443761  -115896.41388875
  entropy T*S    EENTRO =         0.00000000
  eigenvalues    EBANDS =    -10822.60205114
  atomic energy  EATOM  =    114020.06510763
  Solvation  Ediel_sol  =         0.00000000
  ---------------------------------------------------
  free energy    TOTEN  =      -326.51817478 eV

  energy without entropy =     -326.51817478  energy(sigma->0) =     -326.51817478


--------------------------------------------------------------------------------------------------------




--------------------------------------- Iteration      1(  13)  ---------------------------------------


    POTLOK:  cpu time    0.1244: real time    0.1251
    SETDIJ:  cpu time    0.0126: real time    0.0126
     EDDAV:  cpu time  138.8918: real time  139.7827
 BZINTS: Fermi energy:  5.139168;688.000000 electrons
         Band energy:***********;  BLOECHL correction:  0.000000
       DOS:  cpu time    0.0031: real time    0.0031
    CHARGE:  cpu time    1.1676: real time    1.1745
    MIXING:  cpu time    0.0020: real time    0.0020
    --------------------------------------------
      LOOP:  cpu time  140.2014: real time  141.1001

 eigenvalue-minimisations  : 18176
 total energy-change (2. order) : 0.3819892E-05  (-0.3091233E-06)
 number of electron     688.0000492 magnetization      -0.0000000
 augmentation part      282.2510446 magnetization      -0.0000000

 Broyden mixing:
  rms(total) = 0.40886E-02    rms(broyden)= 0.40886E-02
  rms(prec ) = 0.40904E-02
  weight for this iteration     100.00

 eigenvalues of (default mixing * dielectric matrix)
  average eigenvalue GAMMA=   1.1864
  3.0575  3.0575  1.4592  1.4592  0.9366  0.9366  0.3363  0.6535  0.6535  0.5626
  0.5626  0.5621

 Free energy of the ion-electron system (eV)
  ---------------------------------------------------
  alpha Z        PSCENC =      2369.99683654
  Ewald energy   TEWEN  =    -62654.96588614
  -Hartree energ DENC   =    -42833.53933737
  -exchange      EXHF   =         0.00000000
  -V(xc)+E(xc)   XCENC  =      3286.46781071
  PAW double counting   =    112172.17484315  -115864.10262135
  entropy T*S    EENTRO =         0.00000000
  eigenvalues    EBANDS =    -10822.61492414
  atomic energy  EATOM  =    114020.06510763
  Solvation  Ediel_sol  =         0.00000000
  ---------------------------------------------------
  free energy    TOTEN  =      -326.51817096 eV

  energy without entropy =     -326.51817096  energy(sigma->0) =     -326.51817096


--------------------------------------------------------------------------------------------------------




--------------------------------------- Iteration      1(  14)  ---------------------------------------


    POTLOK:  cpu time    0.1236: real time    0.1244
    SETDIJ:  cpu time    0.0124: real time    0.0126
     EDDAV:  cpu time   94.6730: real time   95.3145
 BZINTS: Fermi energy:  5.139167;688.000000 electrons
         Band energy:***********;  BLOECHL correction:  0.000000
       DOS:  cpu time    0.0031: real time    0.0031
    CHARGE:  cpu time    1.1659: real time    1.1734
    MIXING:  cpu time    0.0020: real time    0.0020
    --------------------------------------------
      LOOP:  cpu time   95.9800: real time   96.6300

 eigenvalue-minimisations  : 14592
 total energy-change (2. order) : 0.6196933E-06  (-0.4029684E-07)
 number of electron     688.0000492 magnetization      -0.0000000
 augmentation part      282.2515816 magnetization      -0.0000000

 Broyden mixing:
  rms(total) = 0.20522E-03    rms(broyden)= 0.20521E-03
  rms(prec ) = 0.20729E-03
  weight for this iteration     100.00

 eigenvalues of (default mixing * dielectric matrix)
  average eigenvalue GAMMA=   1.1883
  2.9805  2.9805  1.6139  1.6139  1.0365  1.0365  0.3363  0.7496  0.7496  0.5742
  0.5742  0.6011  0.6011

 Free energy of the ion-electron system (eV)
  ---------------------------------------------------
  alpha Z        PSCENC =      2369.99683654
  Ewald energy   TEWEN  =    -62654.96588614
  -Hartree energ DENC   =    -42833.56416751
  -exchange      EXHF   =         0.00000000
  -V(xc)+E(xc)   XCENC  =      3286.46774321
  PAW double counting   =    112163.54538841  -115855.44278935
  entropy T*S    EENTRO =         0.00000000
  eigenvalues    EBANDS =    -10822.62040313
  atomic energy  EATOM  =    114020.06510763
  Solvation  Ediel_sol  =         0.00000000
  ---------------------------------------------------
  free energy    TOTEN  =      -326.51817034 eV

  energy without entropy =     -326.51817034  energy(sigma->0) =     -326.51817034


--------------------------------------------------------------------------------------------------------




--------------------------------------- Iteration      1(  15)  ---------------------------------------


    POTLOK:  cpu time    0.1235: real time    0.1243
    SETDIJ:  cpu time    0.0127: real time    0.0127
     EDDAV:  cpu time  126.2570: real time  127.0731
 BZINTS: Fermi energy:  5.139166;688.000000 electrons
         Band energy:***********;  BLOECHL correction:  0.000000
       DOS:  cpu time    0.0031: real time    0.0031
    CHARGE:  cpu time    1.1657: real time    1.1731
    MIXING:  cpu time    0.0020: real time    0.0021
    --------------------------------------------
      LOOP:  cpu time  127.5639: real time  128.3884

 eigenvalue-minimisations  : 17152
 total energy-change (2. order) : 0.5788752E-07  (-0.3824421E-08)
 number of electron     688.0000492 magnetization       0.0000000
 augmentation part      282.2516137 magnetization       0.0000000

 Broyden mixing:
  rms(total) = 0.19286E-03    rms(broyden)= 0.19286E-03
  rms(prec ) = 0.19392E-03
  weight for this iteration     100.00

 eigenvalues of (default mixing * dielectric matrix)
  average eigenvalue GAMMA=   1.1898
  2.9100  2.9100  1.6807  1.6807  1.1738  1.1738  0.3363  0.8289  0.8289  0.5745
  0.5745  0.6897  0.6897  0.6061

 Free energy of the ion-electron system (eV)
  ---------------------------------------------------
  alpha Z        PSCENC =      2369.99683654
  Ewald energy   TEWEN  =    -62654.96588614
  -Hartree energ DENC   =    -42833.56785078
  -exchange      EXHF   =         0.00000000
  -V(xc)+E(xc)   XCENC  =      3286.46765236
  PAW double counting   =    112162.63508614  -115854.53005264
  entropy T*S    EENTRO =         0.00000000
  eigenvalues    EBANDS =    -10822.61906340
  atomic energy  EATOM  =    114020.06510763
  Solvation  Ediel_sol  =         0.00000000
  ---------------------------------------------------
  free energy    TOTEN  =      -326.51817029 eV

  energy without entropy =     -326.51817029  energy(sigma->0) =     -326.51817029


--------------------------------------------------------------------------------------------------------




--------------------------------------- Iteration      1(  16)  ---------------------------------------


    POTLOK:  cpu time    0.1230: real time    0.1237
    SETDIJ:  cpu time    0.0128: real time    0.0128
     EDDAV:  cpu time   85.8744: real time   86.4559
 BZINTS: Fermi energy:  5.139166;688.000000 electrons
         Band energy:***********;  BLOECHL correction:  0.000000
       DOS:  cpu time    0.0031: real time    0.0031
    CHARGE:  cpu time    1.1667: real time    1.1747
    MIXING:  cpu time    0.0022: real time    0.0022
    --------------------------------------------
      LOOP:  cpu time   87.1821: real time   87.7724

 eigenvalue-minimisations  : 11776
 total energy-change (2. order) :-0.2619345E-07  (-0.2587317E-09)
 number of electron     688.0000492 magnetization       0.0000000
 augmentation part      282.2516019 magnetization       0.0000000

 Broyden mixing:
  rms(total) = 0.32660E-04    rms(broyden)= 0.32660E-04
  rms(prec ) = 0.35554E-04
  weight for this iteration     100.00

 eigenvalues of (default mixing * dielectric matrix)
  average eigenvalue GAMMA=   1.1852
  2.7799  2.7799  1.7641  1.7641  1.3003  1.3003  0.3363  0.8790  0.8790  0.5745
  0.5745  0.8137  0.7780  0.6270  0.6270

 Free energy of the ion-electron system (eV)
  ---------------------------------------------------
  alpha Z        PSCENC =      2369.99683654
  Ewald energy   TEWEN  =    -62654.96588614
  -Hartree energ DENC   =    -42833.56713994
  -exchange      EXHF   =         0.00000000
  -V(xc)+E(xc)   XCENC  =      3286.46761343
  PAW double counting   =    112162.95721848  -115854.85294810
  entropy T*S    EENTRO =         0.00000000
  eigenvalues    EBANDS =    -10822.61897221
  atomic energy  EATOM  =    114020.06510763
  Solvation  Ediel_sol  =         0.00000000
  ---------------------------------------------------
  free energy    TOTEN  =      -326.51817031 eV

  energy without entropy =     -326.51817031  energy(sigma->0) =     -326.51817031


--------------------------------------------------------------------------------------------------------




--------------------------------------- Iteration      1(  17)  ---------------------------------------


    POTLOK:  cpu time    0.1217: real time    0.1226
    SETDIJ:  cpu time    0.0127: real time    0.0127
     EDDAV:  cpu time   85.6156: real time   86.1807
 BZINTS: Fermi energy:  5.139165;688.000000 electrons
         Band energy:***********;  BLOECHL correction:  0.000000
       DOS:  cpu time    0.0031: real time    0.0031
    --------------------------------------------
      LOOP:  cpu time   85.7530: real time   86.3191

 eigenvalue-minimisations  : 11520
 total energy-change (2. order) : 0.2168235E-08  (-0.2835595E-09)
 number of electron     688.0000492 magnetization       0.0000000
 augmentation part      282.2516019 magnetization       0.0000000

 Free energy of the ion-electron system (eV)
  ---------------------------------------------------
  alpha Z        PSCENC =      2369.99683654
  Ewald energy   TEWEN  =    -62654.96588614
  -Hartree energ DENC   =    -42833.56748961
  -exchange      EXHF   =         0.00000000
  -V(xc)+E(xc)   XCENC  =      3286.46761031
  PAW double counting   =    112163.09857449  -115854.99460082
  entropy T*S    EENTRO =         0.00000000
  eigenvalues    EBANDS =    -10822.61832271
  atomic energy  EATOM  =    114020.06510763
  Solvation  Ediel_sol  =         0.00000000
  ---------------------------------------------------
  free energy    TOTEN  =      -326.51817031 eV

  energy without entropy =     -326.51817031  energy(sigma->0) =     -326.51817031


--------------------------------------------------------------------------------------------------------




 average (electrostatic) potential at core
  the test charge radii are     0.9698  0.8297  0.9500
  (the norm of the test charge is              1.0000)
       1 -86.5481       2 -86.5481       3 -86.5481       4 -86.5481       5 -86.5481
       6 -86.5481       7 -86.5481       8 -86.5481       9 -86.5481      10 -86.5481
      11 -86.5481      12 -86.5481      13 -86.5481      14 -86.5481      15 -86.5481
      16 -86.5481      17 -86.5481      18 -86.5481      19 -86.5481      20 -86.5481
      21 -86.5481      22 -86.5481      23 -86.5481      24 -86.5481      25 -86.5481
      26 -86.5481      27 -86.5481      28 -86.5481      29 -86.5481      30 -86.5481
      31 -86.5481      32 -86.5481      33 -80.6426      34 -80.6426      35 -80.6426
      36 -80.6426      37 -80.6426      38 -80.6426      39 -80.6426      40 -80.6426
      41 -80.6426      42 -80.6426      43 -80.6426      44 -80.6426      45 -80.6426
      46 -80.6426      47 -80.6426      48 -80.6426      49 -80.1333      50 -80.1333
      51 -80.1333      52 -80.1333      53 -80.1333      54 -80.1333      55 -80.1333
[...]
   -.415E+02 0.976E+00 0.378E+02   0.424E+02 -.942E+00 -.381E+02   -.830E+00 -.319E-01 0.339E+00   -.207E-04 -.671E-06 0.148E-05
   -.415E+02 0.976E+00 0.378E+02   0.424E+02 -.942E+00 -.381E+02   -.830E+00 -.319E-01 0.339E+00   -.207E-04 -.671E-06 0.148E-05
   -.415E+02 0.976E+00 0.378E+02   0.424E+02 -.942E+00 -.381E+02   -.830E+00 -.319E-01 0.339E+00   -.207E-04 -.671E-06 0.148E-05
   -.415E+02 0.976E+00 0.378E+02   0.424E+02 -.942E+00 -.381E+02   -.830E+00 -.319E-01 0.339E+00   -.207E-04 -.671E-06 0.148E-05
   0.415E+02 -.976E+00 0.378E+02   -.424E+02 0.942E+00 -.381E+02   0.830E+00 0.319E-01 0.339E+00   0.207E-04 0.671E-06 0.148E-05
   0.415E+02 -.976E+00 0.378E+02   -.424E+02 0.942E+00 -.381E+02   0.830E+00 0.319E-01 0.339E+00   0.207E-04 0.671E-06 0.148E-05
   0.415E+02 -.976E+00 0.378E+02   -.424E+02 0.942E+00 -.381E+02   0.830E+00 0.319E-01 0.339E+00   0.207E-04 0.671E-06 0.148E-05
   0.415E+02 -.976E+00 0.378E+02   -.424E+02 0.942E+00 -.381E+02   0.830E+00 0.319E-01 0.339E+00   0.207E-04 0.671E-06 0.148E-05
   0.976E+00 -.415E+02 0.378E+02   -.942E+00 0.424E+02 -.381E+02   -.319E-01 -.830E+00 0.339E+00   -.671E-06 -.207E-04 0.148E-05
   0.976E+00 -.415E+02 0.378E+02   -.942E+00 0.424E+02 -.381E+02   -.319E-01 -.830E+00 0.339E+00   -.671E-06 -.207E-04 0.148E-05
   0.976E+00 -.415E+02 0.378E+02   -.942E+00 0.424E+02 -.381E+02   -.319E-01 -.830E+00 0.339E+00   -.671E-06 -.207E-04 0.148E-05
   0.976E+00 -.415E+02 0.378E+02   -.942E+00 0.424E+02 -.381E+02   -.319E-01 -.830E+00 0.339E+00   -.671E-06 -.207E-04 0.148E-05
   -.976E+00 0.415E+02 0.378E+02   0.942E+00 -.424E+02 -.381E+02   0.319E-01 0.830E+00 0.339E+00   0.671E-06 0.207E-04 0.148E-05
   -.976E+00 0.415E+02 0.378E+02   0.942E+00 -.424E+02 -.381E+02   0.319E-01 0.830E+00 0.339E+00   0.671E-06 0.207E-04 0.148E-05
   -.976E+00 0.415E+02 0.378E+02   0.942E+00 -.424E+02 -.381E+02   0.319E-01 0.830E+00 0.339E+00   0.671E-06 0.207E-04 0.148E-05
   -.976E+00 0.415E+02 0.378E+02   0.942E+00 -.424E+02 -.381E+02   0.319E-01 0.830E+00 0.339E+00   0.671E-06 0.207E-04 0.148E-05
   -.705E-07 0.271E-07 -.443E+02   0.192E-12 0.782E-13 0.425E+02   0.364E-25 0.194E-25 0.178E+01   0.815E-12 0.154E-13 -.164E-04
   -.705E-07 0.271E-07 -.443E+02   0.178E-12 0.284E-13 0.425E+02   -.796E-25 -.323E-25 0.178E+01   -.117E-11 0.706E-13 -.164E-04
   -.705E-07 0.271E-07 -.443E+02   0.178E-12 0.568E-13 0.425E+02   -.124E-24 0.000E+00 0.178E+01   0.867E-12 0.337E-12 -.164E-04
   -.705E-07 0.270E-07 -.443E+02   0.178E-12 0.568E-13 0.425E+02   0.889E-25 -.517E-25 0.178E+01   -.130E-11 0.414E-12 -.164E-04
   0.271E-07 -.705E-07 -.443E+02   -.227E-12 0.199E-12 0.425E+02   0.101E-24 -.517E-25 0.178E+01   -.227E-12 0.196E-12 -.164E-04
   0.271E-07 -.705E-07 -.443E+02   -.185E-12 0.213E-12 0.425E+02   0.743E-25 0.000E+00 0.178E+01   0.130E-13 0.293E-14 -.164E-04
   0.271E-07 -.705E-07 -.443E+02   -.256E-12 0.227E-12 0.425E+02   0.188E-24 0.158E-24 0.178E+01   -.444E-12 0.367E-12 -.164E-04
   0.271E-07 -.706E-07 -.443E+02   -.256E-12 0.227E-12 0.425E+02   0.747E-25 -.743E-25 0.178E+01   0.187E-12 0.566E-12 -.164E-04
   -.705E-07 0.271E-07 -.443E+02   0.128E-12 -.639E-13 0.425E+02   0.299E-25 -.388E-25 0.178E+01   -.450E-12 0.505E-12 -.164E-04
   -.705E-07 0.271E-07 -.443E+02   0.995E-13 -.711E-14 0.425E+02   -.889E-25 0.336E-24 0.178E+01   0.796E-13 0.667E-12 -.164E-04
   -.705E-07 0.271E-07 -.443E+02   0.114E-12 0.160E-13 0.425E+02   -.679E-25 -.517E-25 0.178E+01   -.325E-12 -.159E-12 -.164E-04
   -.705E-07 0.271E-07 -.443E+02   0.114E-12 0.515E-13 0.425E+02   0.139E-24 -.258E-25 0.178E+01   0.676E-13 -.240E-12 -.164E-04
   0.271E-07 -.705E-07 -.443E+02   -.322E-12 0.172E-12 0.425E+02   0.586E-25 0.388E-25 0.178E+01   -.349E-12 0.787E-12 -.164E-04
   0.271E-07 -.705E-07 -.443E+02   -.262E-12 0.115E-12 0.425E+02   0.364E-25 -.388E-25 0.178E+01   0.705E-13 0.644E-12 -.164E-04
   0.271E-07 -.705E-07 -.443E+02   -.286E-12 0.104E-12 0.425E+02   -.848E-25 0.000E+00 0.178E+01   -.250E-12 -.218E-13 -.164E-04
   0.271E-07 -.705E-07 -.443E+02   -.256E-12 0.892E-13 0.425E+02   0.820E-25 0.582E-25 0.178E+01   0.545E-13 -.434E-13 -.164E-04
   -.612E-08 -.445E-08 -.358E+02   0.231E-13 -.124E-12 0.337E+02   0.186E-24 0.759E-25 0.208E+01   -.403E-12 0.972E-13 -.252E-04
   -.611E-08 -.445E-08 -.358E+02   0.515E-13 -.128E-12 0.337E+02   0.301E-24 0.646E-26 0.208E+01   0.123E-12 -.168E-13 -.252E-04
   -.612E-08 -.444E-08 -.358E+02   0.178E-14 -.995E-13 0.337E+02   -.590E-25 -.452E-25 0.208E+01   -.500E-12 0.138E-12 -.252E-04
   -.611E-08 -.443E-08 -.358E+02   0.444E-13 -.128E-12 0.337E+02   0.139E-24 0.582E-25 0.208E+01   0.209E-12 0.131E-12 -.252E-04
   -.444E-08 -.612E-08 -.358E+02   -.462E-13 -.142E-12 0.337E+02   -.638E-25 0.103E-24 0.208E+01   -.643E-13 -.664E-13 -.252E-04
   -.444E-08 -.612E-08 -.358E+02   -.462E-13 -.853E-13 0.337E+02   0.727E-26 0.129E-24 0.208E+01   -.253E-12 0.214E-13 -.252E-04
   -.444E-08 -.612E-08 -.358E+02   -.249E-13 -.746E-13 0.337E+02   0.747E-25 -.646E-26 0.208E+01   -.111E-12 0.312E-13 -.252E-04
   -.444E-08 -.612E-08 -.358E+02   -.391E-13 -.462E-13 0.337E+02   -.194E-25 -.258E-25 0.208E+01   -.177E-12 0.459E-13 -.252E-04
   -.612E-08 -.446E-08 -.358E+02   0.639E-13 -.126E-12 0.337E+02   -.848E-26 0.517E-25 0.208E+01   -.810E-13 0.272E-12 -.252E-04
   -.611E-08 -.448E-08 -.358E+02   0.497E-13 -.211E-12 0.337E+02   -.147E-24 0.110E-24 0.208E+01   -.142E-12 0.259E-12 -.252E-04
   -.611E-08 -.445E-08 -.358E+02   0.568E-13 -.179E-12 0.337E+02   0.517E-25 0.388E-25 0.208E+01   -.588E-13 -.135E-12 -.252E-04
   -.611E-08 -.443E-08 -.358E+02   0.711E-13 -.176E-12 0.337E+02   0.131E-24 0.194E-25 0.208E+01   -.152E-12 -.167E-13 -.252E-04
   -.445E-08 -.611E-08 -.358E+02   -.288E-13 -.137E-12 0.337E+02   0.380E-25 0.103E-24 0.208E+01   0.544E-12 0.252E-12 -.252E-04
   -.444E-08 -.611E-08 -.358E+02   -.143E-13 -.165E-12 0.337E+02   0.218E-25 -.110E-24 0.208E+01   -.946E-12 0.213E-12 -.252E-04
   -.445E-08 -.611E-08 -.358E+02   -.212E-13 -.112E-12 0.337E+02   0.945E-25 0.388E-25 0.208E+01   0.406E-12 -.287E-12 -.252E-04
   -.444E-08 -.609E-08 -.358E+02   0.744E-14 -.169E-12 0.337E+02   -.319E-25 0.915E-25 0.208E+01   -.752E-12 -.214E-13 -.252E-04
 -----------------------------------------------------------------------------------------------
   -.389E-07 -.389E-07 -.727E+02   -.387E-12 -.319E-12 -.981E-12   -.673E-15 -.222E-15 0.727E+02   -.578E-11 0.405E-11 -.619E-03
 
 
 POSITION                                       TOTAL-FORCE (eV/Angst)
 -----------------------------------------------------------------------------------
      1.40243      1.39848      1.23638         0.002711     -0.002056     -0.020010
      6.64639      1.71926      1.23638         0.002711     -0.002056     -0.020010
      1.72321      6.64244      1.23638         0.002711     -0.002056     -0.020010
      6.96717      6.96322      1.23638         0.002711     -0.002056     -0.020010
      4.16232      4.16627      1.23638        -0.002711      0.002056     -0.020010
      9.40628      4.48705      1.23638        -0.002711      0.002056     -0.020010
      4.48310      9.41023      1.23638        -0.002711      0.002056     -0.020010
      9.72707      9.73101      1.23638        -0.002711      0.002056     -0.020010
      1.54429      4.00193      9.06556         0.002056     -0.002711     -0.020010
      6.78825      4.32271      9.06556         0.002056     -0.002711     -0.020010
      1.86507      9.24589      9.06556         0.002056     -0.002711     -0.020010
      7.10903      9.56667      9.06556         0.002056     -0.002711     -0.020010
      4.02046      1.56282      9.06556        -0.002056      0.002711     -0.020010
      9.26442      1.88360      9.06556        -0.002056      0.002711     -0.020010
      4.34124      6.80678      9.06556        -0.002056      0.002711     -0.020010
      9.58520      7.12756      9.06556        -0.002056      0.002711     -0.020010
      1.37995      1.38390      6.45584        -0.002711      0.002056     -0.020010
      6.62391      1.70468      6.45584        -0.002711      0.002056     -0.020010
      1.70073      6.62786      6.45584        -0.002711      0.002056     -0.020010
      6.94469      6.94864      6.45584        -0.002711      0.002056     -0.020010
      4.18480      4.18085      6.45584         0.002711     -0.002056     -0.020010
      9.42876      4.50163      6.45584         0.002711     -0.002056     -0.020010
      4.50558      9.42481      6.45584         0.002711     -0.002056     -0.020010
      9.74954      9.74560      6.45584         0.002711     -0.002056     -0.020010
      4.00588      1.54034      3.84611         0.002056     -0.002711     -0.020010
      9.24984      1.86112      3.84611         0.002056     -0.002711     -0.020010
      4.32666      6.78430      3.84611         0.002056     -0.002711     -0.020010
      9.57062      7.10508      3.84611         0.002056     -0.002711     -0.020010
      1.55887      4.02441      3.84611        -0.002056      0.002711     -0.020010
      6.80283      4.34519      3.84611        -0.002056      0.002711     -0.020010
      1.87965      9.26837      3.84611        -0.002056      0.002711     -0.020010
      7.12361      9.58915      3.84611        -0.002056      0.002711     -0.020010
      0.00000      0.00000      5.27936        -0.000000     -0.000000      0.014713
      5.24396      0.32078      5.27936        -0.000000     -0.000000      0.014713
      0.32078      5.24396      5.27936        -0.000000     -0.000000      0.014713
      5.56475      5.56475      5.27936        -0.000000     -0.000000      0.014713
      2.62198      0.16039      2.66964        -0.000000     -0.000000      0.014713
      7.86594      0.48118      2.66964        -0.000000     -0.000000      0.014713
      2.94276      5.40435      2.66964        -0.000000     -0.000000      0.014713
      8.18673      5.72514      2.66964        -0.000000     -0.000000      0.014713
      2.78237      2.78237      0.05991        -0.000000     -0.000000      0.014713
      8.02633      3.10316      0.05991        -0.000000     -0.000000      0.014713
      3.10316      8.02633      0.05991        -0.000000     -0.000000      0.014713
      8.34712      8.34712      0.05991        -0.000000     -0.000000      0.014713
      0.16039      2.62198      7.88909        -0.000000     -0.000000      0.014713
      5.40435      2.94276      7.88909        -0.000000     -0.000000      0.014713
      0.48118      7.86594      7.88909        -0.000000     -0.000000      0.014713
      5.72514      8.18673      7.88909        -0.000000     -0.000000      0.014713
      0.00000      0.00000      0.07705        -0.000000     -0.000000      0.025306
      5.24396      0.32078      0.07705        -0.000000     -0.000000      0.025306
      0.32078      5.24396      0.07705        -0.000000     -0.000000      0.025306
      5.56475      5.56475      0.07705        -0.000000     -0.000000      0.025306
      2.62198      0.16039      7.90623        -0.000000     -0.000000      0.025306
      7.86594      0.48118      7.90623        -0.000000     -0.000000      0.025306
      2.94276      5.40435      7.90623        -0.000000     -0.000000      0.025306
      8.18673      5.72514      7.90623        -0.000000     -0.000000      0.025306
      2.78237      2.78237      5.29650        -0.000000     -0.000000      0.025306
      8.02633      3.10316      5.29650        -0.000000     -0.000000      0.025306
      3.10316      8.02633      5.29650        -0.000000     -0.000000      0.025306
      8.34712      8.34712      5.29650        -0.000000     -0.000000      0.025306
      0.16039      2.62198      2.68678        -0.000000     -0.000000      0.025306
      5.40435      2.94276      2.68678        -0.000000     -0.000000      0.025306
      0.48118      7.86594      2.68678        -0.000000     -0.000000      0.025306
      5.72514      8.18673      2.68678        -0.000000     -0.000000      0.025306
 -----------------------------------------------------------------------------------
    total drift:                               -0.000000     -0.000000     -0.009626


--------------------------------------------------------------------------------------------------------



  FREE ENERGIE OF THE ION-ELECTRON SYSTEM (eV)
  ---------------------------------------------------
  free  energy   TOTEN  =      -326.51817031 eV

  energy  without entropy=     -326.51817031  energy(sigma->0) =     -326.51817031
 


--------------------------------------------------------------------------------------------------------


    POTLOK:  cpu time    0.1484: real time    0.1493


--------------------------------------------------------------------------------------------------------


 writing wavefunctions
     LOOP+:  cpu time 1992.3448: real time 2136.0638
    4ORBIT:  cpu time    0.0000: real time    0.0000
 


 total charge     
 
# of ion       s       p       d       tot
------------------------------------------
    1        1.315   2.406   0.000   3.721
    2        1.315   2.406   0.000   3.721
    3        1.315   2.406   0.000   3.721
    4        1.315   2.406   0.000   3.721
    5        1.315   2.406   0.000   3.721
    6        1.315   2.406   0.000   3.721
    7        1.315   2.406   0.000   3.721
    8        1.315   2.406   0.000   3.721
    9        1.315   2.406   0.000   3.721
   10        1.315   2.406   0.000   3.721
   11        1.315   2.406   0.000   3.721
   12        1.315   2.406   0.000   3.721
   13        1.315   2.406   0.000   3.721
   14        1.315   2.406   0.000   3.721
   15        1.315   2.406   0.000   3.721
   16        1.315   2.406   0.000   3.721
   17        1.315   2.406   0.000   3.721
   18        1.315   2.406   0.000   3.721
   19        1.315   2.406   0.000   3.721
   20        1.315   2.406   0.000   3.721
   21        1.315   2.406   0.000   3.721
   22        1.315   2.406   0.000   3.721
   23        1.315   2.406   0.000   3.721
   24        1.315   2.406   0.000   3.721
   25        1.315   2.406   0.000   3.721
   26        1.315   2.406   0.000   3.721
   27        1.315   2.406   0.000   3.721
   28        1.315   2.406   0.000   3.721
   29        1.315   2.406   0.000   3.721
   30        1.315   2.406   0.000   3.721
   31        1.315   2.406   0.000   3.721
   32        1.315   2.406   0.000   3.721
   33        0.258   6.201   8.916  15.375
   34        0.258   6.201   8.916  15.375
   35        0.258   6.201   8.916  15.375
   36        0.258   6.201   8.916  15.375
   37        0.258   6.201   8.917  15.375
   38        0.258   6.201   8.917  15.375
   39        0.258   6.201   8.917  15.375
   40        0.258   6.201   8.917  15.375
   41        0.258   6.201   8.916  15.375
   42        0.258   6.201   8.916  15.375
   43        0.258   6.201   8.916  15.375
   44        0.258   6.201   8.916  15.375
   45        0.258   6.201   8.917  15.375
   46        0.258   6.201   8.917  15.375
   47        0.258   6.201   8.917  15.375
   48        0.258   6.201   8.917  15.375
   49        0.346   6.345   5.823  12.515
   50        0.346   6.345   5.823  12.515
   51        0.346   6.345   5.823  12.515
   52        0.346   6.345   5.823  12.515
   53        0.346   6.345   5.824  12.515
   54        0.346   6.345   5.824  12.515
   55        0.346   6.345   5.824  12.515
   56        0.346   6.345   5.824  12.515
   57        0.346   6.345   5.823  12.515
   58        0.346   6.345   5.823  12.515
   59        0.346   6.345   5.823  12.515
   60        0.346   6.345   5.823  12.515
   61        0.346   6.345   5.824  12.515
   62        0.346   6.345   5.824  12.515
   63        0.346   6.345   5.824  12.515
   64        0.346   6.345   5.824  12.515
--------------------------------------------------
tot         51.756 277.717 235.838 565.311
 


 magnetization (x)
 
# of ion       s       p       d       tot
------------------------------------------
    1       -0.002  -0.030   0.000  -0.032
    2       -0.002  -0.030   0.000  -0.032
    3       -0.002  -0.030   0.000  -0.032
    4       -0.002  -0.030   0.000  -0.032
    5       -0.002  -0.030   0.000  -0.032
    6       -0.002  -0.030   0.000  -0.032
    7       -0.002  -0.030   0.000  -0.032
    8       -0.002  -0.030   0.000  -0.032
    9        0.001   0.030   0.000   0.032
   10        0.001   0.030   0.000   0.032
   11        0.001   0.030   0.000   0.032
   12        0.001   0.030   0.000   0.032
   13        0.001   0.030   0.000   0.032
   14        0.001   0.030   0.000   0.032
   15        0.001   0.030   0.000   0.032
   16        0.001   0.030   0.000   0.032
   17       -0.002  -0.030   0.000  -0.032
   18       -0.002  -0.030   0.000  -0.032
   19       -0.002  -0.030   0.000  -0.032
   20       -0.002  -0.030   0.000  -0.032
   21       -0.002  -0.030   0.000  -0.032
   22       -0.002  -0.030   0.000  -0.032
   23       -0.002  -0.030   0.000  -0.032
   24       -0.002  -0.030   0.000  -0.032
   25        0.001   0.030   0.000   0.032
   26        0.001   0.030   0.000   0.032
   27        0.001   0.030   0.000   0.032
   28        0.001   0.030   0.000   0.032
   29        0.001   0.030   0.000   0.032
   30        0.001   0.030   0.000   0.032
   31        0.001   0.030   0.000   0.032
   32        0.001   0.030   0.000   0.032
   33        0.000  -0.001   0.004   0.004
   34        0.000  -0.001   0.004   0.004
   35        0.000  -0.001   0.004   0.004
   36        0.000  -0.001   0.004   0.004
   37        0.000   0.001  -0.005  -0.004
   38        0.000   0.001  -0.005  -0.004
   39        0.000   0.001  -0.005  -0.004
   40        0.000   0.001  -0.005  -0.004
   41        0.000  -0.001   0.004   0.004
   42        0.000  -0.001   0.004   0.004
   43        0.000  -0.001   0.004   0.004
   44        0.000  -0.001   0.004   0.004
   45        0.000   0.001  -0.005  -0.004
   46        0.000   0.001  -0.005  -0.004
   47        0.000   0.001  -0.005  -0.004
   48        0.000   0.001  -0.005  -0.004
   49        0.020   0.053   3.667   3.739
   50        0.020   0.053   3.667   3.739
   51        0.020   0.053   3.667   3.739
   52        0.020   0.053   3.667   3.739
   53       -0.020  -0.053  -3.666  -3.739
   54       -0.020  -0.053  -3.666  -3.739
   55       -0.020  -0.053  -3.666  -3.739
   56       -0.020  -0.053  -3.666  -3.739
   57        0.020   0.053   3.667   3.739
   58        0.020   0.053   3.667   3.739
   59        0.020   0.053   3.667   3.739
   60        0.020   0.053   3.667   3.739
   61       -0.020  -0.053  -3.666  -3.739
   62       -0.020  -0.053  -3.666  -3.739
   63       -0.020  -0.053  -3.666  -3.739
   64       -0.020  -0.053  -3.666  -3.739
--------------------------------------------------
tot         -0.002   0.002  -0.002  -0.002
 
 BZINTS: Fermi energy:  5.139165;688.000000 electrons
         Band energy:***********;  BLOECHL correction:  0.000000

 total amount of memory used by VASP MPI-rank0   300225. kBytes
=======================================================================

   base      :      30000. kBytes
   nonl-proj :     174956. kBytes
   fftplans  :       4588. kBytes
   grid      :      69719. kBytes
   one-center:       1990. kBytes
   wavefun   :      18972. kBytes
 
  
  
 General timing and accounting informations for this job:
 ========================================================
  
                  Total CPU time used (sec):     2043.032
                            User time (sec):     2031.561
                          System time (sec):       11.471
                         Elapsed time (sec):     2188.159
  
                   Maximum memory used (kb):      653936.
                   Average memory used (kb):           0.
  
                          Minor page faults:       507076
                          Major page faults:         5669
                 Voluntary context switches:         7553
