       N       E                     dE             d eps       ncg     rms          rms(c)
DAV:   1     0.606382352894E+04    0.60638E+04   -0.51545E+05 12288   0.197E+03
DAV:   2    -0.749804724082E+02   -0.61388E+04   -0.60283E+04 13568   0.446E+02
DAV:   3    -0.323694095406E+03   -0.24871E+03   -0.24780E+03 16384   0.973E+01
DAV:   4    -0.327201014399E+03   -0.35069E+01   -0.35067E+01 14848   0.118E+01
DAV:   5    -0.327304006179E+03   -0.10299E+00   -0.10299E+00 15872   0.197E+00    0.252E-01
DAV:   6    -0.327309084773E+03   -0.50786E-02   -0.50971E-02 17408   0.437E-01    0.993E-02
DAV:   7    -0.327309363912E+03   -0.27914E-03   -0.33371E-03 16128   0.143E-01    0.915E-02
DAV:   8    -0.327309368748E+03   -0.48358E-05   -0.37067E-04 15872   0.545E-02    0.754E-02
DAV:   9    -0.327309369691E+03   -0.94324E-06   -0.19901E-05 15360   0.108E-02    0.666E-02
DAV:  10    -0.327309369541E+03    0.15080E-06   -0.18993E-06 20736   0.311E-03    0.549E-02
DAV:  11    -0.327309368886E+03    0.65409E-06   -0.27853E-06 13568   0.428E-03    0.181E-02
DAV:  12    -0.327309368639E+03    0.24748E-06   -0.16959E-06 19200   0.255E-03    0.564E-03
DAV:  13    -0.327309368672E+03   -0.32654E-07   -0.94330E-08 14080   0.519E-04    0.493E-03
DAV:  14    -0.327309368726E+03   -0.53857E-07   -0.15680E-07 15104   0.562E-04    0.233E-03
DAV:  15    -0.327309368747E+03   -0.21697E-07   -0.25565E-08 12032   0.203E-04    0.175E-03
DAV:  16    -0.327309368770E+03   -0.23196E-07   -0.22756E-09 11776   0.936E-05    0.127E-03
DAV:  17    -0.327309368807E+03   -0.36744E-07   -0.10720E-08  9728   0.138E-04    0.276E-04
DAV:  18    -0.327309368805E+03    0.21973E-08    0.25586E-10 10752   0.511E-05
   1 F= -.32730937E+03 E0= -.32730937E+03  d E =0.000000E+00  mag=     0.0000
