 vasp.5.4.4.18Apr17-6-g9f103f2a35 (build Oct 30 2023 17:30:16) complex          
  
 executed on             LinuxIFC date 2024.06.29  18:38:22
 running on  256 total cores
 distrk:  each k-point on  256 cores,    1 groups
 distr:  one band on NCORES_PER_BAND=   1 cores,  256 groups


--------------------------------------------------------------------------------------------------------


 INCAR:
 POTCAR:    PAW_PBE S 06Sep2000                   
 POTCAR:     PAW_PBE Cu_pv 06Sep2000              
 POTCAR:     PAW_PBE Fe_pv 02Aug2007              

 ----------------------------------------------------------------------------- 
|                                                                             |
|           W    W    AA    RRRRR   N    N  II  N    N   GGGG   !!!           |
|           W    W   A  A   R    R  NN   N  II  NN   N  G    G  !!!           |
|           W    W  A    A  R    R  N N  N  II  N N  N  G       !!!           |
|           W WW W  AAAAAA  RRRRR   N  N N  II  N  N N  G  GGG   !            |
|           WW  WW  A    A  R   R   N   NN  II  N   NN  G    G                |
|           W    W  A    A  R    R  N    N  II  N    N   GGGG   !!!           |
|                                                                             |
|      For optimal performance we recommend to set                            |
|        NCORE= 4 - approx SQRT( number of cores)                             |
|      NCORE specifies how many cores store one orbital (NPAR=cpu/NCORE).     |
|      This setting can  greatly improve the performance of VASP for DFT.     |
|      The default,   NCORE=1            might be grossly inefficient         |
|      on modern multi-core architectures or massively parallel machines.     |
|      Do your own testing !!!!                                               |
|      Unfortunately you need to use the default for GW and RPA calculations. |
|      (for HF NCORE is supported but not extensively tested yet)             |
|                                                                             |
 ----------------------------------------------------------------------------- 

 POTCAR:    PAW_PBE S 06Sep2000                   
   SHA256 =  0fc7481fb0695f01bdc6462160264c5c84044ae9ec85a907d398b887a2bc3132 S/
   COPYR  = (c) Copyright 06Sep2000 Georg Kresse                                
   COPYR  = This file is part of the software VASP. Any use, copying, and all ot
   COPYR  = If you do not have a valid VASP license, you may not use, copy or di
   VRHFIN =S : s2p4                                                             
   LEXCH  = PE                                                                  
   EATOM  =   276.8230 eV,   20.3459 Ry                                         
                                                                                
   TITEL  = PAW_PBE S 06Sep2000                                                 
   LULTRA =        F    use ultrasoft PP ?                                      
   IUNSCR =        1    unscreen: 0-lin 1-nonlin 2-no                           
   RPACOR =    1.500    partial core radius                                     
   POMASS =   32.066; ZVAL   =    6.000    mass and valenz                      
   RCORE  =    1.900    outmost cutoff radius                                   
   RWIGS  =    2.200; RWIGS  =    1.164    wigner-seitz radius (au A)           
   ENMAX  =  258.689; ENMIN  =  194.016 eV                                      
   ICORE  =        2    local potential                                         
   LCOR   =        T    correct aug charges                                     
   LPAW   =        T    paw PP                                                  
   EAUG   =  335.092                                                            
   DEXC   =    0.000                                                            
   RMAX   =    1.942    core radius for proj-oper                               
   RAUG   =    1.300    factor for augmentation sphere                          
   RDEP   =    1.954    radius for radial grids                                 
   RDEPT  =    1.744    core radius for aug-charge                              
                                                                                
   Atomic configuration                                                         
    6 entries                                                                   
     n  l   j            E        occ.                                          
     1  0  0.50     -2405.8406   2.0000                                         
     2  0  0.50      -211.7007   2.0000                                         
     2  1  1.50      -156.4958   6.0000                                         
     3  0  0.50       -17.2562   2.0000                                         
     3  1  0.50        -7.0085   4.0000                                         
     3  2  1.50        -6.8029   0.0000                                         
   Description                                                                  
     l       E           TYP  RCUT    TYP  RCUT                                 
     0    -17.2561641     23  1.900                                             
     0    -15.8743224     23  1.900                                             
     1     -7.0085400     23  1.900                                             
     1     -2.7779785     23  1.900                                             
     2     -6.8029130     23  1.900                                             
  local pseudopotential read in
  partial core-charges read in
  partial kinetic energy density read in
  atomic valenz-charges read in
  non local Contribution for L=           0  read in
    real space projection operators read in
  non local Contribution for L=           0  read in
    real space projection operators read in
  non local Contribution for L=           1  read in
    real space projection operators read in
  non local Contribution for L=           1  read in
    real space projection operators read in
    PAW grid and wavefunctions read in
 
   number of l-projection  operators is LMAX  =           4
   number of lm-projection operators is LMMAX =           8
 
 POTCAR:     PAW_PBE Cu_pv 06Sep2000              
   SHA256 =  cb7b504e2ea725fe1f25c85a9ac77d4012ce94cd394135b722c4e25ec297f1cb Cu
   COPYR  = (c) Copyright 06Sep2000 Georg Kresse                                
   COPYR  = This file is part of the software VASP. Any use, copying, and all ot
   COPYR  = If you do not have a valid VASP license, you may not use, copy or di
   VRHFIN =Cu: d10 p1                                                           
   LEXCH  = PE                                                                  
   EATOM  =  4120.1201 eV,  302.8203 Ry                                         
                                                                                
   TITEL  = PAW_PBE Cu_pv 06Sep2000                                             
   LULTRA =        F    use ultrasoft PP ?                                      
   IUNSCR =        1    unscreen: 0-lin 1-nonlin 2-no                           
   RPACOR =    1.500    partial core radius                                     
   POMASS =   63.546; ZVAL   =   17.000    mass and valenz                      
   RCORE  =    2.000    outmost cutoff radius                                   
   RWIGS  =    2.000; RWIGS  =    1.058    wigner-seitz radius (au A)           
   ENMAX  =  368.648; ENMIN  =  276.486 eV                                      
   RCLOC  =    1.304    cutoff for local pot                                    
   LCOR   =        T    correct aug charges                                     
   LPAW   =        T    paw PP                                                  
   EAUG   =  758.233                                                            
   DEXC   =    0.000                                                            
   RMAX   =    2.046    core radius for proj-oper                               
   RAUG   =    1.300    factor for augmentation sphere                          
   RDEP   =    2.025    radius for radial grids                                 
   RDEPT  =    1.558    core radius for aug-charge                              
                                                                                
   Atomic configuration                                                         
    8 entries                                                                   
     n  l   j            E        occ.                                          
     1  0  0.50     -8850.2467   2.0000                                         
     2  0  0.50     -1062.3498   2.0000                                         
     2  1  1.50      -916.8226   6.0000                                         
     3  0  0.50      -114.6929   2.0000                                         
     3  1  1.50       -72.1325   6.0000                                         
     3  2  2.50        -5.0394  10.0000                                         
     4  0  0.50        -4.6097   1.0000                                         
     4  3  2.50        -1.3606   0.0000                                         
   Description                                                                  
     l       E           TYP  RCUT    TYP  RCUT                                 
     1    -72.1324777     23  1.700                                             
     1     -1.3605826     23  1.700                                             
     2     -5.0393776     23  2.000                                             
     2     -6.3999602     23  2.000                                             
     0     -4.6097062     23  1.800                                             
     0     14.1620818     23  1.800                                             
  local pseudopotential read in
  partial core-charges read in
  partial kinetic energy density read in
  atomic valenz-charges read in
  non local Contribution for L=           1  read in
    real space projection operators read in
  non local Contribution for L=           1  read in
    real space projection operators read in
  non local Contribution for L=           2  read in
    real space projection operators read in
  non local Contribution for L=           2  read in
    real space projection operators read in
  non local Contribution for L=           0  read in
    real space projection operators read in
  non local Contribution for L=           0  read in
    real space projection operators read in
    PAW grid and wavefunctions read in
 
   number of l-projection  operators is LMAX  =           6
   number of lm-projection operators is LMMAX =          18
 
 POTCAR:     PAW_PBE Fe_pv 02Aug2007              
   SHA256 =  5d22e414b1f82158bf2c7ecb8b97b28fd0923e48cadc1c3bf74d524558f5dd32 Fe
   COPYR  = (c) Copyright 02Aug2007 Georg Kresse                                
   COPYR  = This file is part of the software VASP. Any use, copying, and all ot
   COPYR  = If you do not have a valid VASP license, you may not use, copy or di
   VRHFIN =Fe:  3pd7s1                                                          
   LEXCH  = PE                                                                  
   EATOM  =  2457.4239 eV,  180.6156 Ry                                         
                                                                                
   TITEL  = PAW_PBE Fe_pv 02Aug2007                                             
   LULTRA =        F    use ultrasoft PP ?                                      
   IUNSCR =        1    unscreen: 0-lin 1-nonlin 2-no                           
   RPACOR =    1.750    partial core radius                                     
   POMASS =   55.847; ZVAL   =   14.000    mass and valenz                      
   RCORE  =    2.200    outmost cutoff radius                                   
   RWIGS  =    2.200; RWIGS  =    1.164    wigner-seitz radius (au A)           
   ENMAX  =  293.238; ENMIN  =  219.928 eV                                      
   ICORE  =        3    local potential                                         
   LCOR   =        T    correct aug charges                                     
   LPAW   =        T    paw PP                                                  
   EAUG   =  578.342                                                            
   DEXC   =    0.000                                                            
   RMAX   =    2.249    core radius for proj-oper                               
   RAUG   =    1.300    factor for augmentation sphere                          
   RDEP   =    2.296    radius for radial grids                                 
   RDEPT  =    1.766    core radius for aug-charge                              
                                                                                
   Atomic configuration                                                         
    8 entries                                                                   
     n  l   j            E        occ.                                          
     1  0  0.50     -6993.8440   2.0000                                         
     2  0  0.50      -814.6047   2.0000                                         
     2  1  1.50      -693.3689   6.0000                                         
     3  0  0.50       -89.4732   2.0000                                         
     3  1  1.50       -55.6373   6.0000                                         
     3  2  2.50        -3.8151   7.0000                                         
     4  0  0.50        -4.2551   1.0000                                         
     4  3  2.50        -1.3606   0.0000                                         
   Description                                                                  
     l       E           TYP  RCUT    TYP  RCUT                                 
     1    -55.6372668     23  2.000                                             
     1     -5.4423304     23  2.000                                             
     2     -3.8151096     23  2.200                                             
     2     -5.1756922     23  2.200                                             
     0     -4.2550951     23  2.200                                             
     0     27.2116520     23  2.200                                             
     3     -1.3605826     23  2.200                                             
  local pseudopotential read in
  partial core-charges read in
  partial kinetic energy density read in
  atomic valenz-charges read in
  non local Contribution for L=           1  read in
    real space projection operators read in
  non local Contribution for L=           1  read in
    real space projection operators read in
  non local Contribution for L=           2  read in
    real space projection operators read in
  non local Contribution for L=           2  read in
    real space projection operators read in
  non local Contribution for L=           0  read in
    real space projection operators read in
  non local Contribution for L=           0  read in
    real space projection operators read in
    PAW grid and wavefunctions read in
 
   number of l-projection  operators is LMAX  =           6
   number of lm-projection operators is LMMAX =          18
 

 ----------------------------------------------------------------------------- 
|                                                                             |
|  ADVICE TO THIS USER RUNNING 'VASP/VAMP'   (HEAR YOUR MASTER'S VOICE ...):  |
|                                                                             |
|      You have a (more or less) 'large supercell' and for larger cells       |
|      it might be more efficient to use real space projection opertators     |
|      So try LREAL= Auto  in the INCAR   file.                               |
|      Mind:          For very  accurate calculation you might also keep the  |
|      reciprocal projection scheme          (i.e. LREAL=.FALSE.)             |
|                                                                             |
 ----------------------------------------------------------------------------- 


 ----------------------------------------------------------------------------- 
|                                                                             |
|  ADVICE TO THIS USER RUNNING 'VASP/VAMP'   (HEAR YOUR MASTER'S VOICE ...):  |
|                                                                             |
|      You enforced a specific xc-type in the INCAR file,                     |
|      a different type was found on the POTCAR file                          |
|          I HOPE YOU KNOW, WHAT YOU ARE  DOING                               |
|                                                                             |
 ----------------------------------------------------------------------------- 

  PAW_PBE S 06Sep2000                   :
 energy of atom  1       EATOM= -276.8230
 kinetic energy error for atom=    0.0007 (will be added to EATOM!!)
   PAW_PBE Cu_pv 06Sep2000              :
 energy of atom  2       EATOM=-4120.1201
 kinetic energy error for atom=    0.0094 (will be added to EATOM!!)
   PAW_PBE Fe_pv 02Aug2007              :
 energy of atom  3       EATOM=-2457.4239
 kinetic energy error for atom=    0.0025 (will be added to EATOM!!)
 
 
 POSCAR: Fe16 Cu16 S32                           
  positions in direct lattice
  velocities in cartesian coordinates
 exchange correlation table for  LEXCH =       14
   RHO(1)=    0.500       N(1)  =     2000
   RHO(2)=  100.500       N(2)  =     4000
 


--------------------------------------------------------------------------------------------------------


 ion  position               nearest neighbor table
   1  0.126  0.126  0.120-  37 2.26  61 2.27  41 2.27  49 2.29
   2  0.626  0.126  0.120-  38 2.26  62 2.27  42 2.27  50 2.29
   3  0.126  0.626  0.120-  39 2.26  63 2.27  43 2.27  51 2.29
   4  0.626  0.626  0.120-  40 2.26  64 2.27  44 2.27  52 2.29
   5  0.374  0.374  0.120-  39 2.26  62 2.27  41 2.27  52 2.29
   6  0.874  0.374  0.120-  40 2.26  61 2.27  42 2.27  51 2.29
   7  0.374  0.874  0.120-  37 2.26  64 2.27  43 2.27  50 2.29
   8  0.874  0.874  0.120-  38 2.26  63 2.27  44 2.27  49 2.29
   9  0.124  0.374  0.870-  41 2.26  51 2.27  45 2.27  55 2.29
  10  0.624  0.374  0.870-  42 2.26  52 2.27  46 2.27  56 2.29
  11  0.124  0.874  0.870-  43 2.26  49 2.27  47 2.27  53 2.29
  12  0.624  0.874  0.870-  44 2.26  50 2.27  48 2.27  54 2.29
  13  0.376  0.126  0.870-  41 2.26  50 2.27  46 2.27  53 2.29
  14  0.876  0.126  0.870-  42 2.26  49 2.27  45 2.27  54 2.29
  15  0.376  0.626  0.870-  43 2.26  52 2.27  48 2.27  55 2.29
  16  0.876  0.626  0.870-  44 2.26  51 2.27  47 2.27  56 2.29
  17  0.124  0.124  0.620-  45 2.26  53 2.27  33 2.27  57 2.29
  18  0.624  0.124  0.620-  46 2.26  54 2.27  34 2.27  58 2.29
  19  0.124  0.624  0.620-  47 2.26  55 2.27  35 2.27  59 2.29
  20  0.624  0.624  0.620-  48 2.26  56 2.27  36 2.27  60 2.29
  21  0.376  0.376  0.620-  46 2.26  55 2.27  36 2.27  57 2.29
  22  0.876  0.376  0.620-  45 2.26  56 2.27  35 2.27  58 2.29
  23  0.376  0.876  0.620-  48 2.26  53 2.27  34 2.27  59 2.29
  24  0.876  0.876  0.620-  47 2.26  54 2.27  33 2.27  60 2.29
  25  0.374  0.124  0.370-  34 2.26  57 2.27  37 2.27  62 2.29
  26  0.874  0.124  0.370-  33 2.26  58 2.27  38 2.27  61 2.29
  27  0.374  0.624  0.370-  36 2.26  59 2.27  39 2.27  64 2.29
  28  0.874  0.624  0.370-  35 2.26  60 2.27  40 2.27  63 2.29
  29  0.126  0.376  0.370-  35 2.26  57 2.27  39 2.27  61 2.29
  30  0.626  0.376  0.370-  36 2.26  58 2.27  40 2.27  62 2.29
  31  0.126  0.876  0.370-  33 2.26  59 2.27  37 2.27  63 2.29
  32  0.626  0.876  0.370-  34 2.26  60 2.27  38 2.27  64 2.29
  33  0.000  0.000  0.504-  26 2.26  31 2.26  17 2.27  24 2.27
  34  0.500  0.000  0.504-  25 2.26  32 2.26  18 2.27  23 2.27
  35  0.000  0.500  0.504-  28 2.26  29 2.26  19 2.27  22 2.27
  36  0.500  0.500  0.504-  27 2.26  30 2.26  20 2.27  21 2.27
  37  0.250  0.000  0.254-   1 2.26   7 2.26  25 2.27  31 2.27
  38  0.750  0.000  0.254-   2 2.26   8 2.26  26 2.27  32 2.27
  39  0.250  0.500  0.254-   3 2.26   5 2.26  27 2.27  29 2.27
  40  0.750  0.500  0.254-   4 2.26   6 2.26  28 2.27  30 2.27
  41  0.250  0.250  0.004-   9 2.26  13 2.26   1 2.27   5 2.27
  42  0.750  0.250  0.004-  10 2.26  14 2.26   2 2.27   6 2.27
  43  0.250  0.750  0.004-  11 2.26  15 2.26   3 2.27   7 2.27
  44  0.750  0.750  0.004-  12 2.26  16 2.26   4 2.27   8 2.27
  45  0.000  0.250  0.754-  17 2.26  22 2.26   9 2.27  14 2.27
  46  0.500  0.250  0.754-  18 2.26  21 2.26  10 2.27  13 2.27
  47  0.000  0.750  0.754-  19 2.26  24 2.26  11 2.27  16 2.27
  48  0.500  0.750  0.754-  20 2.26  23 2.26  12 2.27  15 2.27
  49  0.000  0.000  0.005-  11 2.27  14 2.27   1 2.29   8 2.29
  50  0.500  0.000  0.005-  12 2.27  13 2.27   2 2.29   7 2.29
  51  0.000  0.500  0.005-   9 2.27  16 2.27   3 2.29   6 2.29
  52  0.500  0.500  0.005-  10 2.27  15 2.27   4 2.29   5 2.29
  53  0.250  0.000  0.755-  17 2.27  23 2.27  11 2.29  13 2.29
  54  0.750  0.000  0.755-  18 2.27  24 2.27  12 2.29  14 2.29
  55  0.250  0.500  0.755-  19 2.27  21 2.27   9 2.29  15 2.29
  56  0.750  0.500  0.755-  20 2.27  22 2.27  10 2.29  16 2.29
  57  0.250  0.250  0.505-  25 2.27  29 2.27  17 2.29  21 2.29
  58  0.750  0.250  0.505-  26 2.27  30 2.27  18 2.29  22 2.29
  59  0.250  0.750  0.505-  27 2.27  31 2.27  19 2.29  23 2.29
  60  0.750  0.750  0.505-  28 2.27  32 2.27  20 2.29  24 2.29
  61  0.000  0.250  0.255-   1 2.27   6 2.27  26 2.29  29 2.29
  62  0.500  0.250  0.255-   2 2.27   5 2.27  25 2.29  30 2.29
  63  0.000  0.750  0.255-   3 2.27   8 2.27  28 2.29  31 2.29
  64  0.500  0.750  0.255-   4 2.27   7 2.27  27 2.29  32 2.29
 
  LATTYP: Found a base centered orthorhombic cell.
 ALAT       =    14.1954019776
 B/A-ratio  =     1.0913084866
 C/A-ratio  =     0.7350570288
  
  Lattice vectors:
  
 A1 = (  10.4959270000,   0.4582620000,   0.0000000000)
 A2 = (  -0.4582620000, -10.4959270000,   0.0000000000)
 A3 = (   0.0000000000,   0.0000000000, -10.4344300000)


Analysis of symmetry for initial positions (statically):
=====================================================================
 Subroutine PRICEL returns following result:
 
  LATTYP: Found a face centered orthorhombic cell.
 ALAT       =     7.0977009888
 B/A-ratio  =     1.0913084866
 C/A-ratio  =     1.4701140576
  
  Lattice vectors:
  
 A1 = (  -2.7385472500,  -2.7385472500,   5.2172150000)
 A2 = (  -2.5094162500,   2.5094162500,   5.2172150000)
 A3 = (  -5.2479635000,  -0.2291310000,   0.0000000000)
 
   8 primitive cells build up your supercell.
 

 Routine SETGRP: Setting up the symmetry group for a 
 base centered orthorhombic supercell.


 Subroutine GETGRP returns: Found  4 space group operations
 (whereof  2 operations were pure point group operations)
 out of a pool of  8 trial point group operations.


The static configuration has the point symmetry C_2 .
 The point group associated with its full space group is C_2v.


Analysis of symmetry for dynamics (positions and initial velocities):
=====================================================================
 Subroutine PRICEL returns following result:
 
  LATTYP: Found a face centered orthorhombic cell.
 ALAT       =     7.0977009888
 B/A-ratio  =     1.0913084866
 C/A-ratio  =     1.4701140576
  
  Lattice vectors:
  
 A1 = (  -2.7385472500,  -2.7385472500,   5.2172150000)
 A2 = (  -2.5094162500,   2.5094162500,   5.2172150000)
 A3 = (  -5.2479635000,  -0.2291310000,   0.0000000000)
 
   8 primitive cells build up your supercell.
 

 Routine SETGRP: Setting up the symmetry group for a 
 base centered orthorhombic supercell.


 Subroutine GETGRP returns: Found  4 space group operations
 (whereof  2 operations were pure point group operations)
 out of a pool of  8 trial point group operations.


The dynamic configuration has the point symmetry C_2 .
 The point group associated with its full space group is C_2v.


Analysis of structural, dynamic, and magnetic symmetry:
=====================================================================
 Subroutine PRICEL returns following result:
 
  LATTYP: Found a face centered orthorhombic cell.
 ALAT       =     7.0977009888
 B/A-ratio  =     1.0913084866
 C/A-ratio  =     1.4701140576
  
  Lattice vectors:
  
 A1 = (  -2.7385472500,  -2.7385472500,   5.2172150000)
 A2 = (  -2.5094162500,   2.5094162500,   5.2172150000)
 A3 = (  -5.2479635000,  -0.2291310000,   0.0000000000)
 
   8 primitive cells build up your supercell.
 

 Routine SETGRP: Setting up the symmetry group for a 
 base centered orthorhombic supercell.


 Subroutine GETGRP returns: Found  4 space group operations
 (whereof  2 operations were pure point group operations)
 out of a pool of  8 trial point group operations.


The magnetic configuration has the point symmetry C_2 .
 The point group associated with its full space group is C_2v.


 Subroutine INISYM returns: Found  4 space group operations
 (whereof  2 operations are pure point group operations),
 and found     8 'primitive' translations

 
 
 KPOINTS: Automatic mesh                          

Automatic generation of k-mesh.
Space group operators:
 irot       det(A)        alpha          n_x          n_y          n_z        tau_x        tau_y        tau_z
    1     1.000000     0.000001     1.000000     0.000000     0.000000     0.000000     0.000000     0.000000
    2     1.000000   180.000000     0.000000     0.000000     1.000000     0.000000     0.000000     0.000000
    3    -1.000000   180.000000     0.707107     0.707107     0.000000    -0.750000     0.000000     0.750000
    4    -1.000000   180.000000     0.707107    -0.707107     0.000000    -0.750000     0.000000     0.750000
 
 Subroutine IBZKPT returns following result:
 ===========================================
 
 Found      6 irreducible k-points:
 
 Following reciprocal coordinates:
            Coordinates               Weight
  0.000000  0.000000  0.000000      1.000000
  0.500000  0.000000  0.000000      2.000000
  0.500000  0.500000  0.000000      1.000000
  0.000000  0.000000  0.500000      1.000000
  0.500000  0.000000  0.500000      2.000000
  0.500000  0.500000  0.500000      1.000000
 
 Following cartesian coordinates:
            Coordinates               Weight
  0.000000  0.000000  0.000000      1.000000
  0.047729 -0.002084  0.000000      2.000000
  0.045645  0.045645  0.000000      1.000000
  0.000000  0.000000  0.047918      1.000000
  0.047729 -0.002084  0.047918      2.000000
  0.045645  0.045645  0.047918      1.000000
 
 TETIRR: Found     12 inequivalent tetrahedra from       48
 
 Subroutine IBZKPT_HF returns following result:
 ==============================================
 
 Found      8 k-points in 1st BZ
 the following      8 k-points will be used (e.g. in the exchange kernel)
 Following reciprocal coordinates:   # in IRBZ
  0.000000  0.000000  0.000000    0.12500000   1 t-inv F
  0.500000  0.000000  0.000000    0.12500000   2 t-inv F
  0.500000  0.500000  0.000000    0.12500000   3 t-inv F
  0.000000  0.000000  0.500000    0.12500000   4 t-inv F
  0.500000  0.000000  0.500000    0.12500000   5 t-inv F
  0.500000  0.500000  0.500000    0.12500000   6 t-inv F
 -0.000000 -0.500000  0.000000    0.12500000   2 t-inv F spinflp
 -0.000000 -0.500000  0.500000    0.12500000   5 t-inv F spinflp


--------------------------------------------------------------------------------------------------------




 Dimension of arrays:
   k-points           NKPTS =      6   k-points in BZ     NKDIM =      6   number of bands    NBANDS=    512
   number of dos      NEDOS =    301   number of ions     NIONS =     64
   non local maximal  LDIM  =      6   non local SUM 2l+1 LMDIM =     18
   total plane-waves  NPLWV = 829440
   max r-space proj   IRMAX =      1   max aug-charges    IRDMAX=  22973
   dimension x,y,z NGX =    96 NGY =   96 NGZ =   90
   dimension x,y,z NGXF=   192 NGYF=  192 NGZF=  180
   support grid    NGXF=   192 NGYF=  192 NGZF=  180
   ions per type =              32  16  16
   NGX,Y,Z   is equivalent  to a cutoff of  15.19, 15.19, 14.34 a.u.
   NGXF,Y,Z  is equivalent  to a cutoff of  30.38, 30.38, 28.68 a.u.

 SYSTEM =  CuFeS2                                  
 POSCAR =  Fe16 Cu16 S32                           

 Startparameter for this run:
   NWRITE =      2    write-flag & timer
   PREC   = accura    normal or accurate (medium, high low for compatibility)
   ISTART =      0    job   : 0-new  1-cont  2-samecut
   ICHARG =      1    charge: 1-file 2-atom 10-const
   ISPIN  =      2    spin polarized calculation?
   LNONCOLLINEAR =      F non collinear calculations
   LSORBIT =      F    spin-orbit coupling
   INIWAV =      1    electr: 0-lowe 1-rand  2-diag
   LASPH  =      F    aspherical Exc in radial PAW
   METAGGA=      F    non-selfconsistent MetaGGA calc.

 Electronic Relaxation 1
   ENCUT  =  700.0 eV  51.45 Ry    7.17 a.u.  22.66 22.66 22.51*2*pi/ulx,y,z
   ENINI  =  700.0     initial cutoff
   ENAUG  =  758.2 eV  augmentation charge cutoff
   NELM   =    500;   NELMIN=  2; NELMDL=  0     # of ELM steps 
   EDIFF  = 0.1E-07   stopping-criterion for ELM
   LREAL  =      F    real-space projection
   NLSPLINE    = F    spline interpolate recip. space projectors
   LCOMPAT=      F    compatible to vasp.4.4
   GGA_COMPAT  = T    GGA compatible to vasp.4.4-vasp.4.6
   LMAXPAW     = -100 max onsite density
   LMAXMIX     =    4 max onsite mixed and CHGCAR
   VOSKOWN=      0    Vosko Wilk Nusair interpolation
   ROPT   =    0.00000   0.00000   0.00000
 Ionic relaxation
   EDIFFG = -.1E-04   stopping-criterion for IOM
   NSW    =      0    number of steps for IOM
   NBLOCK =      1;   KBLOCK =      1    inner block; outer block 
   IBRION =     -1    ionic relax: 0-MD 1-quasi-New 2-CG
   NFREE  =      0    steps in history (QN), initial steepest desc. (CG)
   ISIF   =      2    stress and relaxation
   IWAVPR =     10    prediction:  0-non 1-charg 2-wave 3-comb
   ISYM   =      2    0-nonsym 1-usesym 2-fastsym
   LCORR  =      T    Harris-Foulkes like correction to forces

   POTIM  = 0.5000    time-step for ionic-motion
   TEIN   =    0.0    initial temperature
   TEBEG  =    0.0;   TEEND  =   0.0 temperature during run
   SMASS  =  -3.00    Nose mass-parameter (am)
   estimated Nose-frequenzy (Omega)   =  0.10E-29 period in steps =****** mass=  -0.252E-26a.u.
   SCALEE = 1.0000    scale energy and forces
   NPACO  =    256;   APACO  = 16.0  distance and # of slots for P.C.
   PSTRESS=    0.0 pullay stress

  Mass of Ions in am
   POMASS =  32.07 63.55 55.85
  Ionic Valenz
   ZVAL   =   6.00 17.00 14.00
  Atomic Wigner-Seitz radii
   RWIGS  =  -1.00 -1.00 -1.00
  virtual crystal weights 
   VCA    =   1.00  1.00  1.00
   NELECT =     688.0000    total number of electrons
   NUPDOWN=      -1.0000    fix difference up-down

 DOS related values:
   EMIN   =  10.00;   EMAX   =-10.00  energy-range for DOS
   EFERMI =   0.00
   ISMEAR =    -5;   SIGMA  =   0.03  broadening in eV -4-tet -1-fermi 0-gaus

 Electronic relaxation 2 (details)
   IALGO  =     38    algorithm
   LDIAG  =      T    sub-space diagonalisation (order eigenvalues)
   LSUBROT=      F    optimize rotation matrix (better conditioning)
   TURBO    =      0    0=normal 1=particle mesh
   IRESTART =      0    0=no restart 2=restart with 2 vectors
   NREBOOT  =      0    no. of reboots
   NMIN     =      0    reboot dimension
   EREF     =   0.00    reference energy to select bands
   IMIX   =      4    mixing-type and parameters
     AMIX     =   0.40;   BMIX     =  1.00
     AMIX_MAG =   1.60;   BMIX_MAG =  1.00
     AMIN     =   0.10
     WC   =   100.;   INIMIX=   1;  MIXPRE=   1;  MAXMIX= -45

 Intra band minimization:
   WEIMIN = 0.0000     energy-eigenvalue tresh-hold
   EBREAK =  0.49E-11  absolut break condition
   DEPER  =   0.30     relativ break condition  

   TIME   =   0.40     timestep for ELM

  volume/ion in A,a.u.               =      17.93       120.98
  Fermi-wavevector in a.u.,A,eV,Ry     =   1.380523  2.608811 25.930592  1.905845
  Thomas-Fermi vector in A             =   2.505393
 
 Write flags
   LWAVE        =      T    write WAVECAR
   LDOWNSAMPLE  =      F    k-point downsampling of WAVECAR
   LCHARG       =      T    write CHGCAR
   LVTOT        =      F    write LOCPOT, total local potential
   LVHAR        =      F    write LOCPOT, Hartree potential only
   LELF         =      F    write electronic localiz. function (ELF)
   LORBIT       =     11    0 simple, 1 ext, 2 COOP (PROOUT), +10 PAW based schemes


 Dipole corrections
   LMONO  =      F    monopole corrections only (constant potential shift)
   LDIPOL =      F    correct potential (dipole corrections)
   IDIPOL =      0    1-x, 2-y, 3-z, 4-all directions 
   EPSILON=  1.0000000 bulk dielectric constant

 LDA+U is selected, type is set to LDAUTYPE =  2
   angular momentum for each species LDAUL =     2    2    2
   U (eV)           for each species LDAUU =   0.0  0.1  4.7
   J (eV)           for each species LDAUJ =   0.0  0.0  0.0
 Exchange correlation treatment:
   GGA     =    PS    GGA type
   LEXCH   =    14    internal setting for exchange type
   VOSKOWN=      0    Vosko Wilk Nusair interpolation
   LHFCALC =     F    Hartree Fock is set to
   LHFONE  =     F    Hartree Fock one center treatment
   AEXX    =    0.0000 exact exchange contribution

 Linear response parameters
   LEPSILON=     F    determine dielectric tensor
   LRPA    =     F    only Hartree local field effects (RPA)
   LNABLA  =     F    use nabla operator in PAW spheres
   LVEL    =     F    velocity operator in full k-point grid
   LINTERFAST=   F  fast interpolation
   KINTER  =     0    interpolate to denser k-point grid
   CSHIFT  =0.1000    complex shift for real part using Kramers Kronig
   OMEGAMAX=  -1.0    maximum frequency
   DEG_THRESHOLD= 0.2000000E-02 threshold for treating states as degnerate
   RTIME   =   -0.100 relaxation time in fs
  (WPLASMAI=    0.000 imaginary part of plasma frequency in eV, 0.658/RTIME)
   DFIELD  = 0.0000000 0.0000000 0.0000000 field for delta impulse in time
 
 Orbital magnetization related:
   ORBITALMAG=     F  switch on orbital magnetization
   LCHIMAG   =     F  perturbation theory with respect to B field
   DQ        =  0.001000  dq finite difference perturbation B field
   LLRAUG    =     F  two centre corrections for induced B field

 PEAD related settings:
   LPEAD      =     T    switch on PEAD
   IPEAD      =     4    finite difference order for dpsi/dk
   LCALCPOL   =     T    calculate macroscopic polarization
   LCALCEPS   =     F    calculate dielectric tensor
   EFIELD_PEAD=    0.0000    0.0000    0.0000
   SKIP_EDOTP =     F
   LRPA       =     F
   SKIP_SCF   =     F


--------------------------------------------------------------------------------------------------------


 Static calculation
 charge density and potential will be updated during run
 spin polarized calculation
 Variant of blocked Davidson
 Davidson routine will perform the subspace rotation
 perform sub-space diagonalisation
    after iterative eigenvector-optimisation
 modified Broyden-mixing scheme, WC =      100.0
 initial mixing is a Kerker type mixing with AMIX =  0.4000 and BMIX =      1.0000
 Hartree-type preconditioning will be used
 using additional bands          168
 reciprocal scheme for non local part
 use partial core corrections
 calculate Harris-corrections to forces 
   (improved forces if not selfconsistent)
 use gradient corrections 
 use of overlap-Matrix (Vanderbilt PP)
 Fermi weights with tetrahedron method with Bloechl corrections


--------------------------------------------------------------------------------------------------------


  energy-cutoff  :      700.00
  volume of cell :     1147.31
      direct lattice vectors                 reciprocal lattice vectors
    10.495927000  0.458262000  0.000000000     0.095457020 -0.004167743  0.000000000
     0.458262000 10.495927000  0.000000000    -0.004167743  0.095457020  0.000000000
     0.000000000  0.000000000 10.434430000     0.000000000  0.000000000  0.095836572

  length of vectors
    10.505926311 10.505926311 10.434430000     0.095547961  0.095547961  0.095836572


 
 k-points in units of 2pi/SCALE and weight: Automatic mesh                          
   0.00000000  0.00000000  0.00000000       0.125
   0.04772851 -0.00208387  0.00000000       0.250
   0.04564464  0.04564464  0.00000000       0.125
   0.00000000  0.00000000  0.04791829       0.125
   0.04772851 -0.00208387  0.04791829       0.250
   0.04564464  0.04564464  0.04791829       0.125
 
 k-points in reciprocal lattice and weights: Automatic mesh                          
   0.00000000  0.00000000  0.00000000       0.125
   0.50000000  0.00000000  0.00000000       0.250
   0.50000000  0.50000000  0.00000000       0.125
   0.00000000  0.00000000  0.50000000       0.125
   0.50000000  0.00000000  0.50000000       0.250
   0.50000000  0.50000000  0.50000000       0.125
 
 position of ions in fractional coordinates (direct lattice) 
   0.12610300  0.12550700  0.12016500
   0.62610300  0.12550700  0.12016500
   0.12610300  0.62550700  0.12016500
   0.62610300  0.62550700  0.12016500
   0.37389700  0.37449300  0.12016500
   0.87389700  0.37449300  0.12016500
   0.37389700  0.87449300  0.12016500
   0.87389700  0.87449300  0.12016500
   0.12449300  0.37389700  0.87016500
   0.62449300  0.37389700  0.87016500
   0.12449300  0.87389700  0.87016500
   0.62449300  0.87389700  0.87016500
   0.37550700  0.12610300  0.87016500
   0.87550700  0.12610300  0.87016500
   0.37550700  0.62610300  0.87016500
   0.87550700  0.62610300  0.87016500
   0.12389700  0.12449300  0.62016500
   0.62389700  0.12449300  0.62016500
   0.12389700  0.62449300  0.62016500
   0.62389700  0.62449300  0.62016500
   0.37610300  0.37550700  0.62016500
   0.87610300  0.37550700  0.62016500
   0.37610300  0.87550700  0.62016500
   0.87610300  0.87550700  0.62016500
   0.37449300  0.12389700  0.37016500
   0.87449300  0.12389700  0.37016500
   0.37449300  0.62389700  0.37016500
   0.87449300  0.62389700  0.37016500
   0.12550700  0.37610300  0.37016500
   0.62550700  0.37610300  0.37016500
   0.12550700  0.87610300  0.37016500
   0.62550700  0.87610300  0.37016500
   0.00000000  0.00000000  0.50419400
   0.50000000  0.00000000  0.50419400
   0.00000000  0.50000000  0.50419400
   0.50000000  0.50000000  0.50419400
   0.25000000  0.00000000  0.25419400
   0.75000000  0.00000000  0.25419400
   0.25000000  0.50000000  0.25419400
   0.75000000  0.50000000  0.25419400
   0.25000000  0.25000000  0.00419400
   0.75000000  0.25000000  0.00419400
   0.25000000  0.75000000  0.00419400
   0.75000000  0.75000000  0.00419400
   0.00000000  0.25000000  0.75419400
   0.50000000  0.25000000  0.75419400
   0.00000000  0.75000000  0.75419400
   0.50000000  0.75000000  0.75419400
   0.00000000  0.00000000  0.00547500
   0.50000000  0.00000000  0.00547500
   0.00000000  0.50000000  0.00547500
   0.50000000  0.50000000  0.00547500
   0.25000000  0.00000000  0.75547500
   0.75000000  0.00000000  0.75547500
   0.25000000  0.50000000  0.75547500
   0.75000000  0.50000000  0.75547500
   0.25000000  0.25000000  0.50547500
   0.75000000  0.25000000  0.50547500
   0.25000000  0.75000000  0.50547500
   0.75000000  0.75000000  0.50547500
   0.00000000  0.25000000  0.25547500
   0.50000000  0.25000000  0.25547500
   0.00000000  0.75000000  0.25547500
   0.50000000  0.75000000  0.25547500
 
 position of ions in cartesian coordinates  (Angst):
   1.38108297  1.37510052  1.25385328
   6.62904647  1.60423152  1.25385328
   1.61021397  6.62306402  1.25385328
   6.85817747  6.85219502  1.25385328
   4.09601153  4.10199398  1.25385328
   9.34397503  4.33112498  1.25385328
   4.32514253  9.34995748  1.25385328
   9.57310603  9.57908848  1.25385328
   1.47801223  3.98144603  9.07967578
   6.72597573  4.21057703  9.07967578
   1.70714323  9.22940953  9.07967578
   6.95510673  9.45854053  9.07967578
   3.99908227  1.49564847  9.07967578
   9.24704577  1.72477947  9.07967578
   4.22821327  6.74361197  9.07967578
   9.47617677  6.97274297  9.07967578
   1.35746428  1.36344673  6.47106828
   6.60542778  1.59257773  6.47106828
   1.58659528  6.61141023  6.47106828
   6.83455878  6.84054123  6.47106828
   4.11963022  4.11364777  6.47106828
   9.36759372  4.34277877  6.47106828
   4.34876122  9.36161127  6.47106828
   9.59672472  9.59074227  6.47106828
   3.98742848  1.47202978  3.86246078
   9.23539198  1.70116078  3.86246078
   4.21655948  6.71999328  3.86246078
   9.46452298  6.94912428  3.86246078
   1.48966602  4.00506472  3.86246078
   6.73762952  4.23419572  3.86246078
   1.71879702  9.25302822  3.86246078
   6.96676052  9.48215922  3.86246078
   0.00000000  0.00000000  5.26097700
   5.24796350  0.22913100  5.26097700
   0.22913100  5.24796350  5.26097700
   5.47709450  5.47709450  5.26097700
   2.62398175  0.11456550  2.65236950
   7.87194525  0.34369650  2.65236950
   2.85311275  5.36252900  2.65236950
   8.10107625  5.59166000  2.65236950
   2.73854725  2.73854725  0.04376200
   7.98651075  2.96767825  0.04376200
   2.96767825  7.98651075  0.04376200
   8.21564175  8.21564175  0.04376200
   0.11456550  2.62398175  7.86958450
   5.36252900  2.85311275  7.86958450
   0.34369650  7.87194525  7.86958450
   5.59166000  8.10107625  7.86958450
   0.00000000  0.00000000  0.05712850
   5.24796350  0.22913100  0.05712850
   0.22913100  5.24796350  0.05712850
   5.47709450  5.47709450  0.05712850
   2.62398175  0.11456550  7.88295100
   7.87194525  0.34369650  7.88295100
   2.85311275  5.36252900  7.88295100
   8.10107625  5.59166000  7.88295100
   2.73854725  2.73854725  5.27434350
   7.98651075  2.96767825  5.27434350
   2.96767825  7.98651075  5.27434350
   8.21564175  8.21564175  5.27434350
   0.11456550  2.62398175  2.66573600
   5.36252900  2.85311275  2.66573600
   0.34369650  7.87194525  2.66573600
   5.59166000  8.10107625  2.66573600
 


--------------------------------------------------------------------------------------------------------


 k-point  1 :   0.0000 0.0000 0.0000  plane waves:   48251
 k-point  2 :   0.5000 0.0000 0.0000  plane waves:   48264
 k-point  3 :   0.5000 0.5000 0.0000  plane waves:   48260
 k-point  4 :   0.0000 0.0000 0.5000  plane waves:   48270
 k-point  5 :   0.5000 0.0000 0.5000  plane waves:   48220
 k-point  6 :   0.5000 0.5000 0.5000  plane waves:   48148

 maximum and minimum number of plane-waves per node :     48270    48148

 maximum number of plane-waves:     48270
 maximum index in each direction: 
   IXMAX=   22   IYMAX=   22   IZMAX=   22
   IXMIN=  -23   IYMIN=  -23   IZMIN=  -23


 serial   3D FFT for wavefunctions
 parallel 3D FFT for charge:
    minimum data exchange during FFTs selected (reduces bandwidth)


 total amount of memory used by VASP MPI-rank0   300225. kBytes
=======================================================================

   base      :      30000. kBytes
   nonl-proj :     174956. kBytes
   fftplans  :       4588. kBytes
   grid      :      69719. kBytes
   one-center:       1990. kBytes
   wavefun   :      18972. kBytes
 
     INWAV:  cpu time    0.0000: real time    0.0000
 Broyden mixing: mesh for mixing (old mesh)
   NGX = 45   NGY = 45   NGZ = 45
  (NGX  =192   NGY  =192   NGZ  =180)
  gives a total of  91125 points

 initial charge density was supplied:
 number of electron     688.0000404 magnetization       0.0000000
 keeping initial charge density in first step


--------------------------------------------------------------------------------------------------------


 Maximum index for augmentation-charges          897 (set IRDMAX)


--------------------------------------------------------------------------------------------------------


 First call to EWALD:  gamma=   0.169
 Maximum number of real-space cells 3x 3x 3
 Maximum number of reciprocal cells 3x 3x 3

    FEWALD:  cpu time    0.0022: real time    0.0026


--------------------------------------- Iteration      1(   1)  ---------------------------------------


    POTLOK:  cpu time    0.3206: real time    0.3722
    SETDIJ:  cpu time    0.0149: real time    0.0150
     EDDAV:  cpu time   62.6246: real time   63.1760
 BZINTS: Fermi energy: 15.020516;688.000000 electrons
         Band energy:***********;  BLOECHL correction: -0.003563
       DOS:  cpu time    0.0196: real time    0.0197
    --------------------------------------------
      LOOP:  cpu time   62.9797: real time   63.5828

 eigenvalue-minimisations  : 12288
 total energy-change (2. order) : 0.6063824E+04  (-0.5154545E+05)
 number of electron     688.0000404 magnetization       0.0000000
 augmentation part      688.0000404 magnetization       0.0000000

 Free energy of the ion-electron system (eV)
  ---------------------------------------------------
  alpha Z        PSCENC =      2363.04491640
  Ewald energy   TEWEN  =    -62564.46907985
  -Hartree energ DENC   =    -42890.62608448
  -exchange      EXHF   =         0.00000000
  -V(xc)+E(xc)   XCENC  =      3286.46835809
  PAW double counting   =    112213.84319205  -115906.78839750
  entropy T*S    EENTRO =         0.00000000
  eigenvalues    EBANDS =     -4457.71448339
  atomic energy  EATOM  =    114020.06510763
  Solvation  Ediel_sol  =         0.00000000
  ---------------------------------------------------
  free energy    TOTEN  =      6063.82352894 eV

  energy without entropy =     6063.82352894  energy(sigma->0) =     6063.82352894


--------------------------------------------------------------------------------------------------------




--------------------------------------- Iteration      1(   2)  ---------------------------------------


     EDDAV:  cpu time   74.2878: real time   74.8662
 BZINTS: Fermi energy:  5.514845;688.000000 electrons
         Band energy:***********;  BLOECHL correction:  0.000000
       DOS:  cpu time    0.0032: real time    0.0032
    --------------------------------------------
      LOOP:  cpu time   74.2910: real time   74.8695

 eigenvalue-minimisations  : 13568
 total energy-change (2. order) :-0.6138804E+04  (-0.6028328E+04)
 number of electron     688.0000404 magnetization       0.0000000
 augmentation part      688.0000404 magnetization       0.0000000

 Free energy of the ion-electron system (eV)
  ---------------------------------------------------
  alpha Z        PSCENC =      2363.04491640
  Ewald energy   TEWEN  =    -62564.46907985
  -Hartree energ DENC   =    -42890.62608448
  -exchange      EXHF   =         0.00000000
  -V(xc)+E(xc)   XCENC  =      3286.46835809
  PAW double counting   =    112213.84319205  -115906.78839750
  entropy T*S    EENTRO =         0.00000000
  eigenvalues    EBANDS =    -10596.51848473
  atomic energy  EATOM  =    114020.06510763
  Solvation  Ediel_sol  =         0.00000000
  ---------------------------------------------------
  free energy    TOTEN  =       -74.98047241 eV

  energy without entropy =      -74.98047241  energy(sigma->0) =      -74.98047241


--------------------------------------------------------------------------------------------------------




--------------------------------------- Iteration      1(   3)  ---------------------------------------


     EDDAV:  cpu time  110.0157: real time  110.7953
 BZINTS: Fermi energy:  5.153246;688.000000 electrons
         Band energy:***********;  BLOECHL correction:  0.000000
       DOS:  cpu time    0.0032: real time    0.0032
    --------------------------------------------
      LOOP:  cpu time  110.0189: real time  110.7985

 eigenvalue-minimisations  : 16384
 total energy-change (2. order) :-0.2487136E+03  (-0.2477956E+03)
 number of electron     688.0000404 magnetization       0.0000000
 augmentation part      688.0000404 magnetization       0.0000000

 Free energy of the ion-electron system (eV)
  ---------------------------------------------------
  alpha Z        PSCENC =      2363.04491640
  Ewald energy   TEWEN  =    -62564.46907985
  -Hartree energ DENC   =    -42890.62608448
  -exchange      EXHF   =         0.00000000
  -V(xc)+E(xc)   XCENC  =      3286.46835809
  PAW double counting   =    112213.84319205  -115906.78839750
  entropy T*S    EENTRO =         0.00000000
  eigenvalues    EBANDS =    -10845.23210773
  atomic energy  EATOM  =    114020.06510763
  Solvation  Ediel_sol  =         0.00000000
  ---------------------------------------------------
  free energy    TOTEN  =      -323.69409541 eV

  energy without entropy =     -323.69409541  energy(sigma->0) =     -323.69409541


--------------------------------------------------------------------------------------------------------




--------------------------------------- Iteration      1(   4)  ---------------------------------------


     EDDAV:  cpu time   93.5574: real time   94.2442
 BZINTS: Fermi energy:  5.041894;688.000000 electrons
         Band energy:***********;  BLOECHL correction:  0.000000
       DOS:  cpu time    0.0032: real time    0.0032
    --------------------------------------------
      LOOP:  cpu time   93.5606: real time   94.2474

 eigenvalue-minimisations  : 14848
 total energy-change (2. order) :-0.3506919E+01  (-0.3506694E+01)
 number of electron     688.0000404 magnetization       0.0000000
 augmentation part      688.0000404 magnetization       0.0000000

 Free energy of the ion-electron system (eV)
  ---------------------------------------------------
  alpha Z        PSCENC =      2363.04491640
  Ewald energy   TEWEN  =    -62564.46907985
  -Hartree energ DENC   =    -42890.62608448
  -exchange      EXHF   =         0.00000000
  -V(xc)+E(xc)   XCENC  =      3286.46835809
  PAW double counting   =    112213.84319205  -115906.78839750
  entropy T*S    EENTRO =         0.00000000
  eigenvalues    EBANDS =    -10848.73902673
  atomic energy  EATOM  =    114020.06510763
  Solvation  Ediel_sol  =         0.00000000
  ---------------------------------------------------
  free energy    TOTEN  =      -327.20101440 eV

  energy without entropy =     -327.20101440  energy(sigma->0) =     -327.20101440


--------------------------------------------------------------------------------------------------------




--------------------------------------- Iteration      1(   5)  ---------------------------------------


     EDDAV:  cpu time  107.6488: real time  108.4103
 BZINTS: Fermi energy:  5.017377;688.000000 electrons
         Band energy:***********;  BLOECHL correction:  0.000000
       DOS:  cpu time    0.0032: real time    0.0032
    CHARGE:  cpu time    1.1740: real time    1.1825
    MIXING:  cpu time    0.0024: real time    0.0024
    --------------------------------------------
      LOOP:  cpu time  108.8283: real time  109.5984

 eigenvalue-minimisations  : 15872
 total energy-change (2. order) :-0.1029918E+00  (-0.1029913E+00)
 number of electron     688.0000404 magnetization       0.0000000
 augmentation part      282.2497061 magnetization       0.0000000

 Broyden mixing:
  rms(total) = 0.25230E-01    rms(broyden)= 0.25226E-01
  rms(prec ) = 0.25294E-01
  weight for this iteration     100.00

 Free energy of the ion-electron system (eV)
  ---------------------------------------------------
  alpha Z        PSCENC =      2363.04491640
  Ewald energy   TEWEN  =    -62564.46907985
  -Hartree energ DENC   =    -42890.62608448
  -exchange      EXHF   =         0.00000000
  -V(xc)+E(xc)   XCENC  =      3286.46835809
  PAW double counting   =    112213.84319205  -115906.78839750
  entropy T*S    EENTRO =         0.00000000
  eigenvalues    EBANDS =    -10848.84201851
  atomic energy  EATOM  =    114020.06510763
  Solvation  Ediel_sol  =         0.00000000
  ---------------------------------------------------
  free energy    TOTEN  =      -327.30400618 eV

  energy without entropy =     -327.30400618  energy(sigma->0) =     -327.30400618


--------------------------------------------------------------------------------------------------------




--------------------------------------- Iteration      1(   6)  ---------------------------------------


    POTLOK:  cpu time    0.1179: real time    0.1211
    SETDIJ:  cpu time    0.0127: real time    0.0128
     EDDAV:  cpu time  124.2604: real time  125.1265
 BZINTS: Fermi energy:  5.011609;688.000000 electrons
         Band energy:***********;  BLOECHL correction:  0.000000
       DOS:  cpu time    0.0028: real time    0.0028
    CHARGE:  cpu time    1.1696: real time    1.1769
    MIXING:  cpu time    0.0024: real time    0.0595
    --------------------------------------------
      LOOP:  cpu time  125.5658: real time  126.4996

 eigenvalue-minimisations  : 17408
 total energy-change (2. order) :-0.5078593E-02  (-0.5097073E-02)
 number of electron     688.0000404 magnetization       0.0000000
 augmentation part      282.2242196 magnetization       0.0000000

 Broyden mixing:
  rms(total) = 0.99326E-02    rms(broyden)= 0.99296E-02
  rms(prec ) = 0.10426E-01
  weight for this iteration     100.00

 eigenvalues of (default mixing * dielectric matrix)
  average eigenvalue GAMMA=   0.7233
  0.7233

 Free energy of the ion-electron system (eV)
  ---------------------------------------------------
  alpha Z        PSCENC =      2363.04491640
  Ewald energy   TEWEN  =    -62564.46907985
  -Hartree energ DENC   =    -42891.18349004
  -exchange      EXHF   =         0.00000000
  -V(xc)+E(xc)   XCENC  =      3286.49439034
  PAW double counting   =    112234.54760785  -115927.68105761
  entropy T*S    EENTRO =         0.00000000
  eigenvalues    EBANDS =    -10848.12747949
  atomic energy  EATOM  =    114020.06510763
  Solvation  Ediel_sol  =         0.00000000
  ---------------------------------------------------
  free energy    TOTEN  =      -327.30908477 eV

  energy without entropy =     -327.30908477  energy(sigma->0) =     -327.30908477


--------------------------------------------------------------------------------------------------------




--------------------------------------- Iteration      1(   7)  ---------------------------------------


    POTLOK:  cpu time    0.1199: real time    0.1207
    SETDIJ:  cpu time    0.0127: real time    0.0127
     EDDAV:  cpu time  111.8151: real time  112.6097
 BZINTS: Fermi energy:  4.982807;688.000000 electrons
         Band energy:***********;  BLOECHL correction:  0.000000
       DOS:  cpu time    0.0028: real time    0.0028
    CHARGE:  cpu time    1.1704: real time    1.1787
    MIXING:  cpu time    0.0015: real time    0.0026
    --------------------------------------------
      LOOP:  cpu time  113.1224: real time  113.9273

 eigenvalue-minimisations  : 16128
 total energy-change (2. order) :-0.2791397E-03  (-0.3337055E-03)
 number of electron     688.0000404 magnetization       0.0000000
 augmentation part      282.2373212 magnetization       0.0000000

 Broyden mixing:
  rms(total) = 0.91547E-02    rms(broyden)= 0.91538E-02
  rms(prec ) = 0.97548E-02
  weight for this iteration     100.00

 eigenvalues of (default mixing * dielectric matrix)
  average eigenvalue GAMMA=   0.5097
  0.5097  0.5097

 Free energy of the ion-electron system (eV)
  ---------------------------------------------------
  alpha Z        PSCENC =      2363.04491640
  Ewald energy   TEWEN  =    -62564.46907985
  -Hartree energ DENC   =    -42890.23084663
  -exchange      EXHF   =         0.00000000
  -V(xc)+E(xc)   XCENC  =      3286.46210004
  PAW double counting   =    112227.37126882  -115920.34447302
  entropy T*S    EENTRO =         0.00000000
  eigenvalues    EBANDS =    -10849.20835731
  atomic energy  EATOM  =    114020.06510763
  Solvation  Ediel_sol  =         0.00000000
  ---------------------------------------------------
  free energy    TOTEN  =      -327.30936391 eV

  energy without entropy =     -327.30936391  energy(sigma->0) =     -327.30936391


--------------------------------------------------------------------------------------------------------




--------------------------------------- Iteration      1(   8)  ---------------------------------------


    POTLOK:  cpu time    0.1207: real time    0.1216
    SETDIJ:  cpu time    0.0130: real time    0.0130
     EDDAV:  cpu time  109.6298: real time  110.4005
 BZINTS: Fermi energy:  4.976646;688.000000 electrons
         Band energy:***********;  BLOECHL correction:  0.000000
       DOS:  cpu time    0.0027: real time    0.0027
    CHARGE:  cpu time    1.1692: real time    1.1777
    MIXING:  cpu time    0.0016: real time    0.0036
    --------------------------------------------
      LOOP:  cpu time  110.9370: real time  111.7191

 eigenvalue-minimisations  : 15872
 total energy-change (2. order) :-0.4835762E-05  (-0.3706709E-04)
 number of electron     688.0000404 magnetization       0.0000000
 augmentation part      282.2355952 magnetization       0.0000000

 Broyden mixing:
  rms(total) = 0.75416E-02    rms(broyden)= 0.75414E-02
  rms(prec ) = 0.75970E-02
  weight for this iteration     100.00

 eigenvalues of (default mixing * dielectric matrix)
  average eigenvalue GAMMA=   0.4318
  0.5166  0.5166  0.2620

 Free energy of the ion-electron system (eV)
  ---------------------------------------------------
  alpha Z        PSCENC =      2363.04491640
  Ewald energy   TEWEN  =    -62564.46907985
  -Hartree energ DENC   =    -42890.53393587
  -exchange      EXHF   =         0.00000000
  -V(xc)+E(xc)   XCENC  =      3286.47374473
  PAW double counting   =    112226.13812105  -115919.13766909
  entropy T*S    EENTRO =         0.00000000
  eigenvalues    EBANDS =    -10848.89057375
  atomic energy  EATOM  =    114020.06510763
  Solvation  Ediel_sol  =         0.00000000
  ---------------------------------------------------
  free energy    TOTEN  =      -327.30936875 eV

  energy without entropy =     -327.30936875  energy(sigma->0) =     -327.30936875


--------------------------------------------------------------------------------------------------------




--------------------------------------- Iteration      1(   9)  ---------------------------------------


    POTLOK:  cpu time    0.1182: real time    0.1219
    SETDIJ:  cpu time    0.0127: real time    0.0127
     EDDAV:  cpu time  105.3230: real time  106.0628
 BZINTS: Fermi energy:  4.973882;688.000000 electrons
         Band energy:***********;  BLOECHL correction:  0.000000
       DOS:  cpu time    0.0028: real time    0.0028
    CHARGE:  cpu time    1.1696: real time    1.1779
    MIXING:  cpu time    0.0014: real time    0.0014
    --------------------------------------------
      LOOP:  cpu time  106.6277: real time  107.3795

 eigenvalue-minimisations  : 15360
 total energy-change (2. order) :-0.9432406E-06  (-0.1990140E-05)
 number of electron     688.0000404 magnetization       0.0000000
 augmentation part      282.2343162 magnetization       0.0000000

 Broyden mixing:
  rms(total) = 0.66601E-02    rms(broyden)= 0.66601E-02
  rms(prec ) = 0.66807E-02
  weight for this iteration     100.00

 eigenvalues of (default mixing * dielectric matrix)
  average eigenvalue GAMMA=   0.5282
  0.7059  0.7059  0.3505  0.3505

 Free energy of the ion-electron system (eV)
  ---------------------------------------------------
  alpha Z        PSCENC =      2363.04491640
  Ewald energy   TEWEN  =    -62564.46907985
  -Hartree energ DENC   =    -42890.59742271
  -exchange      EXHF   =         0.00000000
  -V(xc)+E(xc)   XCENC  =      3286.47372051
  PAW double counting   =    112225.07252815  -115918.07827203
  entropy T*S    EENTRO =         0.00000000
  eigenvalues    EBANDS =    -10848.82086780
  atomic energy  EATOM  =    114020.06510763
  Solvation  Ediel_sol  =         0.00000000
  ---------------------------------------------------
  free energy    TOTEN  =      -327.30936969 eV

  energy without entropy =     -327.30936969  energy(sigma->0) =     -327.30936969


--------------------------------------------------------------------------------------------------------




--------------------------------------- Iteration      1(  10)  ---------------------------------------


    POTLOK:  cpu time    0.1201: real time    0.1212
    SETDIJ:  cpu time    0.0129: real time    0.0129
     EDDAV:  cpu time  163.6504: real time  164.7290
 BZINTS: Fermi energy:  4.972900;688.000000 electrons
         Band energy:***********;  BLOECHL correction:  0.000000
       DOS:  cpu time    0.0028: real time    0.0028
    CHARGE:  cpu time    1.1899: real time    1.1987
    MIXING:  cpu time    0.0014: real time    0.0014
    --------------------------------------------
      LOOP:  cpu time  164.9775: real time  166.0660

 eigenvalue-minimisations  : 20736
 total energy-change (2. order) : 0.1508015E-06  (-0.1899266E-06)
 number of electron     688.0000404 magnetization       0.0000000
 augmentation part      282.2339755 magnetization       0.0000000

 Broyden mixing:
  rms(total) = 0.54871E-02    rms(broyden)= 0.54871E-02
  rms(prec ) = 0.55035E-02
  weight for this iteration     100.00

 eigenvalues of (default mixing * dielectric matrix)
  average eigenvalue GAMMA=   0.8061
  1.3654  1.3654  0.4753  0.4753  0.3492

 Free energy of the ion-electron system (eV)
  ---------------------------------------------------
  alpha Z        PSCENC =      2363.04491640
  Ewald energy   TEWEN  =    -62564.46907985
  -Hartree energ DENC   =    -42890.63053927
  -exchange      EXHF   =         0.00000000
  -V(xc)+E(xc)   XCENC  =      3286.47337849
  PAW double counting   =    112223.04778167  -115916.04561880
  entropy T*S    EENTRO =         0.00000000
  eigenvalues    EBANDS =    -10848.79531581
  atomic energy  EATOM  =    114020.06510763
  Solvation  Ediel_sol  =         0.00000000
  ---------------------------------------------------
  free energy    TOTEN  =      -327.30936954 eV

  energy without entropy =     -327.30936954  energy(sigma->0) =     -327.30936954


--------------------------------------------------------------------------------------------------------




--------------------------------------- Iteration      1(  11)  ---------------------------------------


    POTLOK:  cpu time    0.1206: real time    0.1214
    SETDIJ:  cpu time    0.0129: real time    0.0130
     EDDAV:  cpu time   82.1882: real time   82.7954
 BZINTS: Fermi energy:  4.972744;688.000000 electrons
         Band energy:***********;  BLOECHL correction:  0.000000
       DOS:  cpu time    0.0028: real time    0.0028
    CHARGE:  cpu time    1.1705: real time    1.1787
    MIXING:  cpu time    0.0014: real time    0.0014
    --------------------------------------------
      LOOP:  cpu time   83.4965: real time   84.1128

 eigenvalue-minimisations  : 13568
 total energy-change (2. order) : 0.6540940E-06  (-0.2785291E-06)
 number of electron     688.0000404 magnetization      -0.0000000
 augmentation part      282.2349240 magnetization      -0.0000000

 Broyden mixing:
  rms(total) = 0.18062E-02    rms(broyden)= 0.18062E-02
  rms(prec ) = 0.18222E-02
  weight for this iteration     100.00

 eigenvalues of (default mixing * dielectric matrix)
  average eigenvalue GAMMA=   0.9425
  2.2799  0.9424  0.9424  0.3370  0.5767  0.5767

 Free energy of the ion-electron system (eV)
  ---------------------------------------------------
  alpha Z        PSCENC =      2363.04491640
  Ewald energy   TEWEN  =    -62564.46907985
  -Hartree energ DENC   =    -42890.64593088
  -exchange      EXHF   =         0.00000000
  -V(xc)+E(xc)   XCENC  =      3286.47155647
  PAW double counting   =    112216.75044320  -115909.70941566
  entropy T*S    EENTRO =         0.00000000
  eigenvalues    EBANDS =    -10848.81696619
  atomic energy  EATOM  =    114020.06510763
  Solvation  Ediel_sol  =         0.00000000
  ---------------------------------------------------
  free energy    TOTEN  =      -327.30936889 eV

  energy without entropy =     -327.30936889  energy(sigma->0) =     -327.30936889


--------------------------------------------------------------------------------------------------------




--------------------------------------- Iteration      1(  12)  ---------------------------------------


    POTLOK:  cpu time    0.1202: real time    0.1209
    SETDIJ:  cpu time    0.0127: real time    0.0127
     EDDAV:  cpu time  141.3240: real time  142.2863
 BZINTS: Fermi energy:  4.972699;688.000000 electrons
         Band energy:***********;  BLOECHL correction:  0.000000
       DOS:  cpu time    0.0027: real time    0.0027
    CHARGE:  cpu time    1.1695: real time    1.1772
    MIXING:  cpu time    0.0015: real time    0.0015
    --------------------------------------------
      LOOP:  cpu time  142.6306: real time  143.6014

 eigenvalue-minimisations  : 19200
 total energy-change (2. order) : 0.2474844E-06  (-0.1695862E-06)
 number of electron     688.0000404 magnetization      -0.0000000
 augmentation part      282.2359237 magnetization      -0.0000000

 Broyden mixing:
  rms(total) = 0.56424E-03    rms(broyden)= 0.56424E-03
  rms(prec ) = 0.57387E-03
  weight for this iteration     100.00

 eigenvalues of (default mixing * dielectric matrix)
  average eigenvalue GAMMA=   0.9472
  2.5380  0.9798  0.9798  0.6426  0.6426  0.3391  0.5088

 Free energy of the ion-electron system (eV)
  ---------------------------------------------------
  alpha Z        PSCENC =      2363.04491640
  Ewald energy   TEWEN  =    -62564.46907985
  -Hartree energ DENC   =    -42890.64527493
  -exchange      EXHF   =         0.00000000
  -V(xc)+E(xc)   XCENC  =      3286.47057202
  PAW double counting   =    112212.70107490  -115905.63683979
  entropy T*S    EENTRO =         0.00000000
  eigenvalues    EBANDS =    -10848.83984501
  atomic energy  EATOM  =    114020.06510763
  Solvation  Ediel_sol  =         0.00000000
  ---------------------------------------------------
  free energy    TOTEN  =      -327.30936864 eV

  energy without entropy =     -327.30936864  energy(sigma->0) =     -327.30936864


--------------------------------------------------------------------------------------------------------




--------------------------------------- Iteration      1(  13)  ---------------------------------------


    POTLOK:  cpu time    0.1206: real time    0.1215
    SETDIJ:  cpu time    0.0126: real time    0.0127
     EDDAV:  cpu time   88.7205: real time   89.3611
 BZINTS: Fermi energy:  4.972686;688.000000 electrons
         Band energy:***********;  BLOECHL correction:  0.000000
       DOS:  cpu time    0.0028: real time    0.0028
    CHARGE:  cpu time    1.1704: real time    1.1786
    MIXING:  cpu time    0.0016: real time    0.0016
    --------------------------------------------
      LOOP:  cpu time   90.0286: real time   90.6783

 eigenvalue-minimisations  : 14080
 total energy-change (2. order) :-0.3265450E-07  (-0.9432992E-08)
 number of electron     688.0000404 magnetization      -0.0000000
 augmentation part      282.2358455 magnetization      -0.0000000

 Broyden mixing:
  rms(total) = 0.49292E-03    rms(broyden)= 0.49292E-03
  rms(prec ) = 0.49911E-03
  weight for this iteration     100.00

 eigenvalues of (default mixing * dielectric matrix)
  average eigenvalue GAMMA=   1.0902
  3.0221  1.4222  1.4222  0.3383  0.7151  0.7151  0.5432  0.5432

 Free energy of the ion-electron system (eV)
  ---------------------------------------------------
  alpha Z        PSCENC =      2363.04491640
  Ewald energy   TEWEN  =    -62564.46907985
  -Hartree energ DENC   =    -42890.64521780
  -exchange      EXHF   =         0.00000000
  -V(xc)+E(xc)   XCENC  =      3286.47062989
  PAW double counting   =    112212.82065963  -115905.75773366
  entropy T*S    EENTRO =         0.00000000
  eigenvalues    EBANDS =    -10848.83865091
  atomic energy  EATOM  =    114020.06510763
  Solvation  Ediel_sol  =         0.00000000
  ---------------------------------------------------
  free energy    TOTEN  =      -327.30936867 eV

  energy without entropy =     -327.30936867  energy(sigma->0) =     -327.30936867


--------------------------------------------------------------------------------------------------------




--------------------------------------- Iteration      1(  14)  ---------------------------------------


    POTLOK:  cpu time    0.1194: real time    0.1202
    SETDIJ:  cpu time    0.0129: real time    0.0130
     EDDAV:  cpu time  114.4487: real time  115.2157
 BZINTS: Fermi energy:  4.972674;688.000000 electrons
         Band energy:***********;  BLOECHL correction:  0.000000
       DOS:  cpu time    0.0027: real time    0.0028
    CHARGE:  cpu time    1.1697: real time    1.1783
    MIXING:  cpu time    0.0016: real time    0.0016
    --------------------------------------------
      LOOP:  cpu time  115.7551: real time  116.5315

 eigenvalue-minimisations  : 15104
 total energy-change (2. order) :-0.5385664E-07  (-0.1568003E-07)
 number of electron     688.0000404 magnetization      -0.0000000
 augmentation part      282.2358387 magnetization      -0.0000000

 Broyden mixing:
  rms(total) = 0.23261E-03    rms(broyden)= 0.23261E-03
  rms(prec ) = 0.23383E-03
  weight for this iteration     100.00

 eigenvalues of (default mixing * dielectric matrix)
  average eigenvalue GAMMA=   1.1408
  3.4208  1.5590  1.5590  0.8435  0.8435  0.3384  0.5884  0.5884  0.5266

 Free energy of the ion-electron system (eV)
  ---------------------------------------------------
  alpha Z        PSCENC =      2363.04491640
  Ewald energy   TEWEN  =    -62564.46907985
  -Hartree energ DENC   =    -42890.63974480
  -exchange      EXHF   =         0.00000000
  -V(xc)+E(xc)   XCENC  =      3286.47069796
  PAW double counting   =    112213.28367310  -115906.22443254
  entropy T*S    EENTRO =         0.00000000
  eigenvalues    EBANDS =    -10848.84050662
  atomic energy  EATOM  =    114020.06510763
  Solvation  Ediel_sol  =         0.00000000
  ---------------------------------------------------
  free energy    TOTEN  =      -327.30936873 eV

  energy without entropy =     -327.30936873  energy(sigma->0) =     -327.30936873


--------------------------------------------------------------------------------------------------------




--------------------------------------- Iteration      1(  15)  ---------------------------------------


    POTLOK:  cpu time    0.1181: real time    0.1211
    SETDIJ:  cpu time    0.0130: real time    0.0131
     EDDAV:  cpu time   75.1130: real time   75.6665
 BZINTS: Fermi energy:  4.972669;688.000000 electrons
         Band energy:***********;  BLOECHL correction:  0.000000
       DOS:  cpu time    0.0027: real time    0.0027
    CHARGE:  cpu time    1.1724: real time    1.1798
    MIXING:  cpu time    0.0017: real time    0.0017
    --------------------------------------------
      LOOP:  cpu time   76.4208: real time   76.9849

 eigenvalue-minimisations  : 12032
 total energy-change (2. order) :-0.2169691E-07  (-0.2556494E-08)
 number of electron     688.0000404 magnetization       0.0000000
 augmentation part      282.2358246 magnetization       0.0000000

 Broyden mixing:
  rms(total) = 0.17491E-03    rms(broyden)= 0.17491E-03
  rms(prec ) = 0.17590E-03
  weight for this iteration     100.00

 eigenvalues of (default mixing * dielectric matrix)
  average eigenvalue GAMMA=   1.1193
  3.4292  1.6045  1.6045  0.9180  0.9180  0.3384  0.6447  0.6447  0.5456  0.5456

 Free energy of the ion-electron system (eV)
  ---------------------------------------------------
  alpha Z        PSCENC =      2363.04491640
  Ewald energy   TEWEN  =    -62564.46907985
  -Hartree energ DENC   =    -42890.63851946
  -exchange      EXHF   =         0.00000000
  -V(xc)+E(xc)   XCENC  =      3286.47068115
  PAW double counting   =    112213.36992316  -115906.31145006
  entropy T*S    EENTRO =         0.00000000
  eigenvalues    EBANDS =    -10848.84094772
  atomic energy  EATOM  =    114020.06510763
  Solvation  Ediel_sol  =         0.00000000
  ---------------------------------------------------
  free energy    TOTEN  =      -327.30936875 eV

  energy without entropy =     -327.30936875  energy(sigma->0) =     -327.30936875


--------------------------------------------------------------------------------------------------------




--------------------------------------- Iteration      1(  16)  ---------------------------------------


    POTLOK:  cpu time    0.1197: real time    0.1205
    SETDIJ:  cpu time    0.0127: real time    0.0128
     EDDAV:  cpu time   88.0500: real time   88.6546
 BZINTS: Fermi energy:  4.972667;688.000000 electrons
         Band energy:***********;  BLOECHL correction:  0.000000
       DOS:  cpu time    0.0028: real time    0.0028
    CHARGE:  cpu time    1.1702: real time    1.1773
    MIXING:  cpu time    0.0019: real time    0.0028
    --------------------------------------------
      LOOP:  cpu time   89.3573: real time   89.9708

 eigenvalue-minimisations  : 11776
 total energy-change (2. order) :-0.2319575E-07  (-0.2275645E-09)
 number of electron     688.0000404 magnetization       0.0000000
 augmentation part      282.2357955 magnetization       0.0000000

 Broyden mixing:
  rms(total) = 0.12709E-03    rms(broyden)= 0.12709E-03
  rms(prec ) = 0.12754E-03
  weight for this iteration     100.00

 eigenvalues of (default mixing * dielectric matrix)
  average eigenvalue GAMMA=   1.2668
  3.8889  2.0872  2.0872  1.1870  1.1870  0.3384  0.5366  0.6083  0.6083  0.7030
  0.7030

 Free energy of the ion-electron system (eV)
  ---------------------------------------------------
  alpha Z        PSCENC =      2363.04491640
  Ewald energy   TEWEN  =    -62564.46907985
  -Hartree energ DENC   =    -42890.63945448
  -exchange      EXHF   =         0.00000000
  -V(xc)+E(xc)   XCENC  =      3286.47072852
  PAW double counting   =    112213.41743507  -115906.35941173
  entropy T*S    EENTRO =         0.00000000
  eigenvalues    EBANDS =    -10848.83961032
  atomic energy  EATOM  =    114020.06510763
  Solvation  Ediel_sol  =         0.00000000
  ---------------------------------------------------
  free energy    TOTEN  =      -327.30936877 eV

  energy without entropy =     -327.30936877  energy(sigma->0) =     -327.30936877


--------------------------------------------------------------------------------------------------------




--------------------------------------- Iteration      1(  17)  ---------------------------------------


    POTLOK:  cpu time    0.1214: real time    0.1221
    SETDIJ:  cpu time    0.0128: real time    0.0129
     EDDAV:  cpu time   63.7280: real time   64.1938
 BZINTS: Fermi energy:  4.972667;688.000000 electrons
         Band energy:***********;  BLOECHL correction:  0.000000
       DOS:  cpu time    0.0027: real time    0.0028
    CHARGE:  cpu time    1.1683: real time    1.1765
    MIXING:  cpu time    0.0019: real time    0.0019
    --------------------------------------------
      LOOP:  cpu time   65.0351: real time   65.5100

 eigenvalue-minimisations  :  9728
 total energy-change (2. order) :-0.3674359E-07  (-0.1071954E-08)
 number of electron     688.0000404 magnetization       0.0000000
 augmentation part      282.2357585 magnetization       0.0000000

 Broyden mixing:
  rms(total) = 0.27593E-04    rms(broyden)= 0.27591E-04
  rms(prec ) = 0.27781E-04
  weight for this iteration     100.00

 eigenvalues of (default mixing * dielectric matrix)
  average eigenvalue GAMMA=   1.2521
  4.1487  1.9491  1.9491  1.2791  1.2791  0.3384  0.8416  0.8416  0.5401  0.6155
  0.6155  0.6270

 Free energy of the ion-electron system (eV)
  ---------------------------------------------------
  alpha Z        PSCENC =      2363.04491640
  Ewald energy   TEWEN  =    -62564.46907985
  -Hartree energ DENC   =    -42890.64006670
  -exchange      EXHF   =         0.00000000
  -V(xc)+E(xc)   XCENC  =      3286.47079888
  PAW double counting   =    112213.54410540  -115906.48704789
  entropy T*S    EENTRO =         0.00000000
  eigenvalues    EBANDS =    -10848.83810266
  atomic energy  EATOM  =    114020.06510763
  Solvation  Ediel_sol  =         0.00000000
  ---------------------------------------------------
  free energy    TOTEN  =      -327.30936881 eV

  energy without entropy =     -327.30936881  energy(sigma->0) =     -327.30936881


--------------------------------------------------------------------------------------------------------




--------------------------------------- Iteration      1(  18)  ---------------------------------------


    POTLOK:  cpu time    0.1201: real time    0.1211
    SETDIJ:  cpu time    0.0127: real time    0.0128
     EDDAV:  cpu time   76.4443: real time   76.9878
 BZINTS: Fermi energy:  4.972667;688.000000 electrons
         Band energy:***********;  BLOECHL correction:  0.000000
       DOS:  cpu time    0.0027: real time    0.0028
    --------------------------------------------
      LOOP:  cpu time   76.5799: real time   77.1244

 eigenvalue-minimisations  : 10752
 total energy-change (2. order) : 0.2197339E-08  ( 0.2558604E-10)
 number of electron     688.0000404 magnetization       0.0000000
 augmentation part      282.2357585 magnetization       0.0000000

 Free energy of the ion-electron system (eV)
  ---------------------------------------------------
  alpha Z        PSCENC =      2363.04491640
  Ewald energy   TEWEN  =    -62564.46907985
  -Hartree energ DENC   =    -42890.63957657
  -exchange      EXHF   =         0.00000000
  -V(xc)+E(xc)   XCENC  =      3286.47079340
  PAW double counting   =    112213.58756421  -115906.53064585
  entropy T*S    EENTRO =         0.00000000
  eigenvalues    EBANDS =    -10848.83844817
  atomic energy  EATOM  =    114020.06510763
  Solvation  Ediel_sol  =         0.00000000
  ---------------------------------------------------
  free energy    TOTEN  =      -327.30936880 eV

  energy without entropy =     -327.30936880  energy(sigma->0) =     -327.30936880


--------------------------------------------------------------------------------------------------------




 average (electrostatic) potential at core
  the test charge radii are     0.9698  0.8297  0.9500
  (the norm of the test charge is              1.0000)
       1 -86.5844       2 -86.5844       3 -86.5844       4 -86.5844       5 -86.5844
       6 -86.5844       7 -86.5844       8 -86.5844       9 -86.5844      10 -86.5844
      11 -86.5844      12 -86.5844      13 -86.5844      14 -86.5844      15 -86.5844
      16 -86.5844      17 -86.5844      18 -86.5844      19 -86.5844      20 -86.5844
      21 -86.5844      22 -86.5844      23 -86.5844      24 -86.5844      25 -86.5844
      26 -86.5844      27 -86.5844      28 -86.5844      29 -86.5844      30 -86.5844
      31 -86.5844      32 -86.5844      33 -80.6718      34 -80.6718      35 -80.6718
      36 -80.6718      37 -80.6718      38 -80.6718      39 -80.6718      40 -80.6718
      41 -80.6718      42 -80.6718      43 -80.6718      44 -80.6718      45 -80.6718
      46 -80.6718      47 -80.6718      48 -80.6718      49 -80.1813      50 -80.1813
      51 -80.1813      52 -80.1813      53 -80.1813      54 -80.1813      55 -80.1813
      56 -80.1813      57 -80.1813      58 -80.1813      59 -80.1813      60 -80.1813
      61 -80.1813      62 -80.1813      63 -80.1813      64 -80.1813
 
 
 
 E-fermi :   4.9727     XC(G=0): -10.4869     alpha+bet :-10.5772


 spin component 1

 k-point     1 :       0.0000    0.0000    0.0000
  band No.  band energies     occupation 
      1     -64.2844      1.00000
      2     -64.2844      1.00000
      3     -64.2844      1.00000
      4     -64.2844      1.00000
      5     -64.2844      1.00000
      6     -64.2844      1.00000
      7     -64.2844      1.00000
[...]
   -.419E+02 0.674E+00 0.267E+02   0.427E+02 -.642E+00 -.270E+02   -.844E+00 -.315E-01 0.266E+00   -.404E-05 0.526E-06 0.175E-05
   -.419E+02 0.674E+00 0.267E+02   0.427E+02 -.642E+00 -.270E+02   -.844E+00 -.315E-01 0.266E+00   -.404E-05 0.526E-06 0.175E-05
   -.419E+02 0.674E+00 0.267E+02   0.427E+02 -.642E+00 -.270E+02   -.844E+00 -.315E-01 0.266E+00   -.404E-05 0.526E-06 0.175E-05
   -.419E+02 0.674E+00 0.267E+02   0.427E+02 -.642E+00 -.270E+02   -.844E+00 -.315E-01 0.266E+00   -.404E-05 0.526E-06 0.175E-05
   0.419E+02 -.674E+00 0.267E+02   -.427E+02 0.642E+00 -.270E+02   0.844E+00 0.315E-01 0.266E+00   0.404E-05 -.526E-06 0.175E-05
   0.419E+02 -.674E+00 0.267E+02   -.427E+02 0.642E+00 -.270E+02   0.844E+00 0.315E-01 0.266E+00   0.404E-05 -.526E-06 0.175E-05
   0.419E+02 -.674E+00 0.267E+02   -.427E+02 0.642E+00 -.270E+02   0.844E+00 0.315E-01 0.266E+00   0.404E-05 -.526E-06 0.175E-05
   0.419E+02 -.674E+00 0.267E+02   -.427E+02 0.642E+00 -.270E+02   0.844E+00 0.315E-01 0.266E+00   0.404E-05 -.526E-06 0.175E-05
   0.674E+00 -.419E+02 0.267E+02   -.642E+00 0.427E+02 -.270E+02   -.315E-01 -.844E+00 0.266E+00   0.526E-06 -.404E-05 0.175E-05
   0.674E+00 -.419E+02 0.267E+02   -.642E+00 0.427E+02 -.270E+02   -.315E-01 -.844E+00 0.266E+00   0.526E-06 -.404E-05 0.175E-05
   0.674E+00 -.419E+02 0.267E+02   -.642E+00 0.427E+02 -.270E+02   -.315E-01 -.844E+00 0.266E+00   0.526E-06 -.404E-05 0.175E-05
   0.674E+00 -.419E+02 0.267E+02   -.642E+00 0.427E+02 -.270E+02   -.315E-01 -.844E+00 0.266E+00   0.526E-06 -.404E-05 0.175E-05
   -.674E+00 0.419E+02 0.267E+02   0.642E+00 -.427E+02 -.270E+02   0.315E-01 0.844E+00 0.266E+00   -.526E-06 0.404E-05 0.175E-05
   -.674E+00 0.419E+02 0.267E+02   0.642E+00 -.427E+02 -.270E+02   0.315E-01 0.844E+00 0.266E+00   -.526E-06 0.404E-05 0.175E-05
   -.674E+00 0.419E+02 0.267E+02   0.642E+00 -.427E+02 -.270E+02   0.315E-01 0.844E+00 0.266E+00   -.526E-06 0.404E-05 0.175E-05
   -.674E+00 0.419E+02 0.267E+02   0.642E+00 -.427E+02 -.270E+02   0.315E-01 0.844E+00 0.266E+00   -.526E-06 0.404E-05 0.175E-05
   -.988E-07 -.746E-07 -.313E+02   -.317E-12 -.121E-12 0.301E+02   0.485E-26 -.168E-24 0.127E+01   -.125E-11 -.163E-11 -.525E-05
   -.988E-07 -.746E-07 -.313E+02   -.346E-12 -.114E-12 0.301E+02   0.177E-24 -.129E-25 0.127E+01   0.100E-11 -.170E-11 -.525E-05
   -.988E-07 -.746E-07 -.313E+02   -.317E-12 -.782E-13 0.301E+02   -.125E-24 0.000E+00 0.127E+01   -.245E-11 0.171E-11 -.525E-05
   -.988E-07 -.746E-07 -.313E+02   -.289E-12 -.853E-13 0.301E+02   -.509E-25 -.258E-25 0.127E+01   0.198E-11 0.151E-11 -.525E-05
   -.746E-07 -.988E-07 -.313E+02   0.142E-12 -.227E-12 0.301E+02   -.424E-25 0.207E-24 0.127E+01   0.352E-12 -.716E-12 -.525E-05
   -.746E-07 -.988E-07 -.313E+02   0.114E-12 -.284E-12 0.301E+02   -.169E-25 0.152E-24 0.127E+01   -.407E-12 -.135E-11 -.525E-05
   -.746E-07 -.989E-07 -.313E+02   0.142E-12 -.256E-12 0.301E+02   0.291E-25 -.207E-24 0.127E+01   0.257E-13 0.768E-12 -.525E-05
   -.746E-07 -.988E-07 -.313E+02   0.142E-12 -.256E-12 0.301E+02   -.520E-26 -.113E-24 0.127E+01   -.198E-12 0.146E-11 -.525E-05
   -.988E-07 -.746E-07 -.313E+02   -.355E-12 0.364E-13 0.301E+02   0.121E-25 -.258E-25 0.127E+01   -.909E-13 0.271E-11 -.525E-05
   -.988E-07 -.746E-07 -.313E+02   -.412E-12 -.275E-13 0.301E+02   0.460E-25 0.969E-26 0.127E+01   -.472E-12 0.308E-11 -.525E-05
   -.988E-07 -.746E-07 -.313E+02   -.398E-12 -.355E-14 0.301E+02   0.812E-25 0.116E-24 0.127E+01   0.229E-12 -.298E-11 -.525E-05
   -.988E-07 -.746E-07 -.313E+02   -.341E-12 0.355E-14 0.301E+02   0.319E-25 -.775E-25 0.127E+01   -.147E-12 -.329E-11 -.525E-05
   -.746E-07 -.988E-07 -.313E+02   0.886E-13 -.150E-12 0.301E+02   0.210E-25 -.181E-24 0.127E+01   0.133E-11 0.362E-11 -.525E-05
   -.746E-07 -.989E-07 -.313E+02   0.913E-13 -.150E-12 0.301E+02   0.388E-25 0.517E-25 0.127E+01   -.206E-11 0.324E-11 -.525E-05
   -.746E-07 -.988E-07 -.313E+02   0.671E-13 -.119E-12 0.301E+02   -.525E-25 0.905E-25 0.127E+01   0.962E-12 -.362E-11 -.525E-05
   -.746E-07 -.988E-07 -.313E+02   0.698E-13 -.176E-12 0.301E+02   0.258E-25 -.129E-24 0.127E+01   -.994E-12 -.332E-11 -.525E-05
   -.257E-07 0.538E-07 -.254E+02   0.175E-12 0.195E-12 0.239E+02   0.549E-25 0.000E+00 0.150E+01   0.158E-11 -.106E-11 -.205E-05
   -.257E-07 0.538E-07 -.254E+02   0.203E-12 0.142E-12 0.239E+02   -.548E-25 0.194E-25 0.150E+01   -.167E-11 -.106E-11 -.205E-05
   -.257E-07 0.538E-07 -.254E+02   0.171E-12 0.746E-13 0.239E+02   -.913E-25 0.000E+00 0.150E+01   0.125E-11 0.928E-12 -.205E-05
   -.257E-07 0.538E-07 -.254E+02   0.171E-12 0.156E-12 0.239E+02   0.105E-25 0.194E-25 0.150E+01   -.154E-11 0.104E-11 -.205E-05
   0.538E-07 -.257E-07 -.254E+02   0.497E-13 0.103E-12 0.239E+02   0.602E-25 -.775E-25 0.150E+01   -.161E-12 -.126E-11 -.205E-05
   0.538E-07 -.257E-07 -.254E+02   0.817E-13 0.103E-12 0.239E+02   -.541E-25 -.226E-25 0.150E+01   0.163E-12 -.184E-11 -.205E-05
   0.538E-07 -.257E-07 -.254E+02   0.114E-12 0.568E-13 0.239E+02   0.329E-25 0.100E-24 0.150E+01   -.620E-12 0.111E-11 -.205E-05
   0.538E-07 -.256E-07 -.254E+02   0.888E-13 0.853E-13 0.239E+02   0.460E-25 -.905E-25 0.150E+01   0.302E-12 0.169E-11 -.205E-05
   -.257E-07 0.538E-07 -.254E+02   0.203E-12 0.186E-12 0.239E+02   0.291E-25 0.775E-25 0.150E+01   -.394E-12 0.246E-11 -.205E-05
   -.256E-07 0.538E-07 -.254E+02   0.174E-12 0.125E-12 0.239E+02   -.186E-25 0.000E+00 0.150E+01   0.176E-12 0.333E-11 -.205E-05
   -.257E-07 0.538E-07 -.254E+02   0.171E-12 0.172E-12 0.239E+02   -.291E-25 0.388E-25 0.150E+01   -.158E-12 -.244E-11 -.205E-05
   -.256E-07 0.538E-07 -.254E+02   0.171E-12 0.115E-12 0.239E+02   0.994E-25 0.258E-25 0.150E+01   0.385E-12 -.320E-11 -.205E-05
   0.538E-07 -.257E-07 -.254E+02   0.806E-13 0.237E-13 0.239E+02   0.440E-25 -.129E-25 0.150E+01   -.920E-12 0.263E-11 -.205E-05
   0.538E-07 -.256E-07 -.254E+02   0.812E-13 0.238E-13 0.239E+02   0.473E-25 0.549E-25 0.150E+01   0.428E-12 0.240E-11 -.205E-05
   0.538E-07 -.257E-07 -.254E+02   0.715E-13 0.670E-13 0.239E+02   -.460E-25 -.258E-25 0.150E+01   -.122E-11 -.266E-11 -.205E-05
   0.538E-07 -.257E-07 -.254E+02   0.101E-12 0.743E-13 0.239E+02   -.541E-25 -.258E-25 0.150E+01   0.113E-11 -.256E-11 -.205E-05
 -----------------------------------------------------------------------------------------------
   -.915E-06 -.915E-06 -.527E+02   -.513E-12 0.670E-13 0.117E-11   -.189E-14 -.777E-15 0.527E+02   -.374E-11 -.684E-12 -.609E-04
 
 
 POSITION                                       TOTAL-FORCE (eV/Angst)
 -----------------------------------------------------------------------------------
      1.38108      1.37510      1.25385        -0.000437     -0.000352      0.000349
      6.62905      1.60423      1.25385        -0.000437     -0.000352      0.000349
      1.61021      6.62306      1.25385        -0.000437     -0.000352      0.000349
      6.85818      6.85220      1.25385        -0.000437     -0.000352      0.000349
      4.09601      4.10199      1.25385         0.000437      0.000352      0.000349
      9.34398      4.33112      1.25385         0.000437      0.000352      0.000349
      4.32514      9.34996      1.25385         0.000437      0.000352      0.000349
      9.57311      9.57909      1.25385         0.000437      0.000352      0.000349
      1.47801      3.98145      9.07968         0.000352      0.000437      0.000349
      6.72598      4.21058      9.07968         0.000352      0.000437      0.000349
      1.70714      9.22941      9.07968         0.000352      0.000437      0.000349
      6.95511      9.45854      9.07968         0.000352      0.000437      0.000349
      3.99908      1.49565      9.07968        -0.000352     -0.000437      0.000349
      9.24705      1.72478      9.07968        -0.000352     -0.000437      0.000349
      4.22821      6.74361      9.07968        -0.000352     -0.000437      0.000349
      9.47618      6.97274      9.07968        -0.000352     -0.000437      0.000349
      1.35746      1.36345      6.47107         0.000437      0.000352      0.000349
      6.60543      1.59258      6.47107         0.000437      0.000352      0.000349
      1.58660      6.61141      6.47107         0.000437      0.000352      0.000349
      6.83456      6.84054      6.47107         0.000437      0.000352      0.000349
      4.11963      4.11365      6.47107        -0.000437     -0.000352      0.000349
      9.36759      4.34278      6.47107        -0.000437     -0.000352      0.000349
      4.34876      9.36161      6.47107        -0.000437     -0.000352      0.000349
      9.59672      9.59074      6.47107        -0.000437     -0.000352      0.000349
      3.98743      1.47203      3.86246         0.000352      0.000437      0.000349
      9.23539      1.70116      3.86246         0.000352      0.000437      0.000349
      4.21656      6.71999      3.86246         0.000352      0.000437      0.000349
      9.46452      6.94912      3.86246         0.000352      0.000437      0.000349
      1.48967      4.00506      3.86246        -0.000352     -0.000437      0.000349
      6.73763      4.23420      3.86246        -0.000352     -0.000437      0.000349
      1.71880      9.25303      3.86246        -0.000352     -0.000437      0.000349
      6.96676      9.48216      3.86246        -0.000352     -0.000437      0.000349
      0.00000      0.00000      5.26098         0.000000      0.000000     -0.000246
      5.24796      0.22913      5.26098         0.000000      0.000000     -0.000246
      0.22913      5.24796      5.26098         0.000000      0.000000     -0.000246
      5.47709      5.47709      5.26098         0.000000      0.000000     -0.000246
      2.62398      0.11457      2.65237         0.000000      0.000000     -0.000246
      7.87195      0.34370      2.65237         0.000000      0.000000     -0.000246
      2.85311      5.36253      2.65237         0.000000      0.000000     -0.000246
      8.10108      5.59166      2.65237         0.000000      0.000000     -0.000246
      2.73855      2.73855      0.04376         0.000000      0.000000     -0.000246
      7.98651      2.96768      0.04376         0.000000      0.000000     -0.000246
      2.96768      7.98651      0.04376         0.000000      0.000000     -0.000246
      8.21564      8.21564      0.04376         0.000000      0.000000     -0.000246
      0.11457      2.62398      7.86958         0.000000      0.000000     -0.000246
      5.36253      2.85311      7.86958         0.000000      0.000000     -0.000246
      0.34370      7.87195      7.86958         0.000000      0.000000     -0.000246
      5.59166      8.10108      7.86958         0.000000      0.000000     -0.000246
      0.00000      0.00000      0.05713         0.000000      0.000000     -0.000452
      5.24796      0.22913      0.05713         0.000000      0.000000     -0.000452
      0.22913      5.24796      0.05713         0.000000      0.000000     -0.000452
      5.47709      5.47709      0.05713         0.000000      0.000000     -0.000452
      2.62398      0.11457      7.88295         0.000000      0.000000     -0.000452
      7.87195      0.34370      7.88295         0.000000      0.000000     -0.000452
      2.85311      5.36253      7.88295         0.000000      0.000000     -0.000452
      8.10108      5.59166      7.88295         0.000000      0.000000     -0.000452
      2.73855      2.73855      5.27434         0.000000      0.000000     -0.000452
      7.98651      2.96768      5.27434         0.000000      0.000000     -0.000452
      2.96768      7.98651      5.27434         0.000000      0.000000     -0.000452
      8.21564      8.21564      5.27434         0.000000      0.000000     -0.000452
      0.11457      2.62398      2.66574         0.000000      0.000000     -0.000452
      5.36253      2.85311      2.66574         0.000000      0.000000     -0.000452
      0.34370      7.87195      2.66574         0.000000      0.000000     -0.000452
      5.59166      8.10108      2.66574         0.000000      0.000000     -0.000452
 -----------------------------------------------------------------------------------
    total drift:                               -0.000001     -0.000001      0.031935


--------------------------------------------------------------------------------------------------------



  FREE ENERGIE OF THE ION-ELECTRON SYSTEM (eV)
  ---------------------------------------------------
  free  energy   TOTEN  =      -327.30936880 eV

  energy  without entropy=     -327.30936880  energy(sigma->0) =     -327.30936880
 


--------------------------------------------------------------------------------------------------------


    POTLOK:  cpu time    0.1306: real time    0.1313


--------------------------------------------------------------------------------------------------------


 writing wavefunctions
     LOOP+:  cpu time 1932.2384: real time 1946.2817
    4ORBIT:  cpu time    0.0000: real time    0.0000
 


 total charge     
 
# of ion       s       p       d       tot
------------------------------------------
    1        1.314   2.408   0.000   3.722
    2        1.314   2.408   0.000   3.722
    3        1.314   2.408   0.000   3.722
    4        1.314   2.408   0.000   3.722
    5        1.314   2.408   0.000   3.722
    6        1.314   2.408   0.000   3.722
    7        1.314   2.408   0.000   3.722
    8        1.314   2.408   0.000   3.722
    9        1.314   2.408   0.000   3.722
   10        1.314   2.408   0.000   3.722
   11        1.314   2.408   0.000   3.722
   12        1.314   2.408   0.000   3.722
   13        1.314   2.408   0.000   3.722
   14        1.314   2.408   0.000   3.722
   15        1.314   2.408   0.000   3.722
   16        1.314   2.408   0.000   3.722
   17        1.314   2.408   0.000   3.722
   18        1.314   2.408   0.000   3.722
   19        1.314   2.408   0.000   3.722
   20        1.314   2.408   0.000   3.722
   21        1.314   2.408   0.000   3.722
   22        1.314   2.408   0.000   3.722
   23        1.314   2.408   0.000   3.722
   24        1.314   2.408   0.000   3.722
   25        1.314   2.408   0.000   3.722
   26        1.314   2.408   0.000   3.722
   27        1.314   2.408   0.000   3.722
   28        1.314   2.408   0.000   3.722
   29        1.314   2.408   0.000   3.722
   30        1.314   2.408   0.000   3.722
   31        1.314   2.408   0.000   3.722
   32        1.314   2.408   0.000   3.722
   33        0.259   6.201   8.916  15.377
   34        0.259   6.201   8.916  15.377
   35        0.259   6.201   8.916  15.377
   36        0.259   6.201   8.916  15.377
   37        0.259   6.202   8.917  15.377
   38        0.259   6.202   8.917  15.377
   39        0.259   6.202   8.917  15.377
   40        0.259   6.202   8.917  15.377
   41        0.259   6.201   8.916  15.377
   42        0.259   6.201   8.916  15.377
   43        0.259   6.201   8.916  15.377
   44        0.259   6.201   8.916  15.377
   45        0.259   6.202   8.917  15.377
   46        0.259   6.202   8.917  15.377
   47        0.259   6.202   8.917  15.377
   48        0.259   6.202   8.917  15.377
   49        0.348   6.348   5.821  12.517
   50        0.348   6.348   5.821  12.517
   51        0.348   6.348   5.821  12.517
   52        0.348   6.348   5.821  12.517
   53        0.348   6.348   5.822  12.518
   54        0.348   6.348   5.822  12.518
   55        0.348   6.348   5.822  12.518
   56        0.348   6.348   5.822  12.518
   57        0.348   6.348   5.821  12.517
   58        0.348   6.348   5.821  12.517
   59        0.348   6.348   5.821  12.517
   60        0.348   6.348   5.821  12.517
   61        0.348   6.348   5.822  12.518
   62        0.348   6.348   5.822  12.518
   63        0.348   6.348   5.822  12.518
   64        0.348   6.348   5.822  12.518
--------------------------------------------------
tot         51.771 277.842 235.805 565.418
 


 magnetization (x)
 
# of ion       s       p       d       tot
------------------------------------------
    1       -0.001  -0.021   0.000  -0.022
    2       -0.001  -0.021   0.000  -0.022
    3       -0.001  -0.021   0.000  -0.022
    4       -0.001  -0.021   0.000  -0.022
    5       -0.001  -0.021   0.000  -0.022
    6       -0.001  -0.021   0.000  -0.022
    7       -0.001  -0.021   0.000  -0.022
    8       -0.001  -0.021   0.000  -0.022
    9        0.001   0.021   0.000   0.022
   10        0.001   0.021   0.000   0.022
   11        0.001   0.021   0.000   0.022
   12        0.001   0.021   0.000   0.022
   13        0.001   0.021   0.000   0.022
   14        0.001   0.021   0.000   0.022
   15        0.001   0.021   0.000   0.022
   16        0.001   0.021   0.000   0.022
   17       -0.001  -0.021   0.000  -0.022
   18       -0.001  -0.021   0.000  -0.022
   19       -0.001  -0.021   0.000  -0.022
   20       -0.001  -0.021   0.000  -0.022
   21       -0.001  -0.021   0.000  -0.022
   22       -0.001  -0.021   0.000  -0.022
   23       -0.001  -0.021   0.000  -0.022
   24       -0.001  -0.021   0.000  -0.022
   25        0.001   0.021   0.000   0.022
   26        0.001   0.021   0.000   0.022
   27        0.001   0.021   0.000   0.022
   28        0.001   0.021   0.000   0.022
   29        0.001   0.021   0.000   0.022
   30        0.001   0.021   0.000   0.022
   31        0.001   0.021   0.000   0.022
   32        0.001   0.021   0.000   0.022
   33        0.000  -0.000   0.002   0.002
   34        0.000  -0.000   0.002   0.002
   35        0.000  -0.000   0.002   0.002
   36        0.000  -0.000   0.002   0.002
   37       -0.000   0.000  -0.002  -0.002
   38       -0.000   0.000  -0.002  -0.002
   39       -0.000   0.000  -0.002  -0.002
   40       -0.000   0.000  -0.002  -0.002
   41        0.000  -0.000   0.002   0.002
   42        0.000  -0.000   0.002   0.002
   43        0.000  -0.000   0.002   0.002
   44        0.000  -0.000   0.002   0.002
   45       -0.000   0.000  -0.002  -0.002
   46       -0.000   0.000  -0.002  -0.002
   47       -0.000   0.000  -0.002  -0.002
   48       -0.000   0.000  -0.002  -0.002
   49        0.020   0.053   3.669   3.742
   50        0.020   0.053   3.669   3.742
   51        0.020   0.053   3.669   3.742
   52        0.020   0.053   3.669   3.742
   53       -0.020  -0.053  -3.669  -3.742
   54       -0.020  -0.053  -3.669  -3.742
   55       -0.020  -0.053  -3.669  -3.742
   56       -0.020  -0.053  -3.669  -3.742
   57        0.020   0.053   3.669   3.742
   58        0.020   0.053   3.669   3.742
   59        0.020   0.053   3.669   3.742
   60        0.020   0.053   3.669   3.742
   61       -0.020  -0.053  -3.669  -3.742
   62       -0.020  -0.053  -3.669  -3.742
   63       -0.020  -0.053  -3.669  -3.742
   64       -0.020  -0.053  -3.669  -3.742
--------------------------------------------------
tot         -0.002   0.002  -0.001  -0.001
 
 BZINTS: Fermi energy:  4.972667;688.000000 electrons
         Band energy:***********;  BLOECHL correction:  0.000000

 total amount of memory used by VASP MPI-rank0   300225. kBytes
=======================================================================

   base      :      30000. kBytes
   nonl-proj :     174956. kBytes
   fftplans  :       4588. kBytes
   grid      :      69719. kBytes
   one-center:       1990. kBytes
   wavefun   :      18972. kBytes
 
  
  
 General timing and accounting informations for this job:
 ========================================================
  
                  Total CPU time used (sec):     1982.491
                            User time (sec):     1972.832
                          System time (sec):        9.659
                         Elapsed time (sec):     1997.908
  
                   Maximum memory used (kb):      665828.
                   Average memory used (kb):           0.
  
                          Minor page faults:       404170
                          Major page faults:         5649
                 Voluntary context switches:         7074
