       N       E                     dE             d eps       ncg     rms          rms(c)
DAV:   1     0.604836380205E+04    0.60484E+04   -0.51619E+05 16384   0.196E+03
DAV:   2    -0.819779314756E+02   -0.61303E+04   -0.60209E+04 18176   0.445E+02
DAV:   3    -0.327975511674E+03   -0.24600E+03   -0.24514E+03 22784   0.971E+01
DAV:   4    -0.331357811098E+03   -0.33823E+01   -0.33822E+01 19712   0.114E+01
DAV:   5    -0.331461435078E+03   -0.10362E+00   -0.10362E+00 21760   0.197E+00    0.142E+01
DAV:   6    -0.328798785259E+03    0.26626E+01   -0.22024E+00 25600   0.486E+00    0.757E+00
DAV:   7    -0.328001338459E+03    0.79745E+00   -0.18216E+00 25856   0.349E+00    0.448E+00
DAV:   8    -0.327941425760E+03    0.59913E-01   -0.64742E-01 24064   0.213E+00    0.214E+00
DAV:   9    -0.327940501056E+03    0.92470E-03   -0.44826E-01 23040   0.177E+00    0.204E+00
DAV:  10    -0.327931305592E+03    0.91955E-02   -0.12655E-01 19456   0.105E+00    0.829E-01
DAV:  11    -0.327934403449E+03   -0.30979E-02   -0.17223E-02 25856   0.314E-01    0.373E-01
DAV:  12    -0.327936118048E+03   -0.17146E-02   -0.60719E-03 20736   0.159E-01    0.156E-01
DAV:  13    -0.327936386657E+03   -0.26861E-03   -0.80639E-04 21504   0.752E-02    0.811E-02
DAV:  14    -0.327936539520E+03   -0.15286E-03   -0.36889E-04 20224   0.261E-02    0.471E-02
DAV:  15    -0.327936636320E+03   -0.96800E-04   -0.29901E-04 20992   0.171E-02    0.229E-02
DAV:  16    -0.327936662209E+03   -0.25889E-04   -0.68261E-05 19456   0.880E-03    0.155E-02
DAV:  17    -0.327936678863E+03   -0.16654E-04   -0.98488E-05 19968   0.939E-03    0.673E-03
DAV:  18    -0.327936680879E+03   -0.20151E-05   -0.12983E-05 19456   0.412E-03    0.434E-03
DAV:  19    -0.327936680989E+03   -0.11058E-06   -0.57552E-07 19456   0.106E-03    0.306E-03
DAV:  20    -0.327936681056E+03   -0.67113E-07   -0.10740E-06 22272   0.118E-03    0.101E-03
DAV:  21    -0.327936681091E+03   -0.34663E-07   -0.11734E-07 20480   0.480E-04    0.669E-04
DAV:  22    -0.327936681112E+03   -0.21246E-07   -0.92748E-09 15872   0.145E-04    0.337E-04
DAV:  23    -0.327936681132E+03   -0.20184E-07   -0.64663E-09 15872   0.115E-04    0.130E-04
DAV:  24    -0.327936681134E+03   -0.18626E-08   -0.14746E-09 14080   0.660E-05
   1 F= -.32793668E+03 E0= -.32793668E+03  d E =0.000000E+00  mag=     0.0000
