 vasp.5.4.4.18Apr17-6-g9f103f2a35 (build Oct 30 2023 17:30:16) complex          
  
 executed on             LinuxIFC date 2024.06.30  21:44:51
 running on  256 total cores
 distrk:  each k-point on  256 cores,    1 groups
 distr:  one band on NCORES_PER_BAND=   1 cores,  256 groups


--------------------------------------------------------------------------------------------------------


 INCAR:
 POTCAR:    PAW_PBE S 06Sep2000                   
 POTCAR:     PAW_PBE Cu_pv 06Sep2000              
 POTCAR:     PAW_PBE Fe_pv 02Aug2007              

 ----------------------------------------------------------------------------- 
|                                                                             |
|           W    W    AA    RRRRR   N    N  II  N    N   GGGG   !!!           |
|           W    W   A  A   R    R  NN   N  II  NN   N  G    G  !!!           |
|           W    W  A    A  R    R  N N  N  II  N N  N  G       !!!           |
|           W WW W  AAAAAA  RRRRR   N  N N  II  N  N N  G  GGG   !            |
|           WW  WW  A    A  R   R   N   NN  II  N   NN  G    G                |
|           W    W  A    A  R    R  N    N  II  N    N   GGGG   !!!           |
|                                                                             |
|      For optimal performance we recommend to set                            |
|        NCORE= 4 - approx SQRT( number of cores)                             |
|      NCORE specifies how many cores store one orbital (NPAR=cpu/NCORE).     |
|      This setting can  greatly improve the performance of VASP for DFT.     |
|      The default,   NCORE=1            might be grossly inefficient         |
|      on modern multi-core architectures or massively parallel machines.     |
|      Do your own testing !!!!                                               |
|      Unfortunately you need to use the default for GW and RPA calculations. |
|      (for HF NCORE is supported but not extensively tested yet)             |
|                                                                             |
 ----------------------------------------------------------------------------- 

 POTCAR:    PAW_PBE S 06Sep2000                   
   SHA256 =  0fc7481fb0695f01bdc6462160264c5c84044ae9ec85a907d398b887a2bc3132 S/
   COPYR  = (c) Copyright 06Sep2000 Georg Kresse                                
   COPYR  = This file is part of the software VASP. Any use, copying, and all ot
   COPYR  = If you do not have a valid VASP license, you may not use, copy or di
   VRHFIN =S : s2p4                                                             
   LEXCH  = PE                                                                  
   EATOM  =   276.8230 eV,   20.3459 Ry                                         
                                                                                
   TITEL  = PAW_PBE S 06Sep2000                                                 
   LULTRA =        F    use ultrasoft PP ?                                      
   IUNSCR =        1    unscreen: 0-lin 1-nonlin 2-no                           
   RPACOR =    1.500    partial core radius                                     
   POMASS =   32.066; ZVAL   =    6.000    mass and valenz                      
   RCORE  =    1.900    outmost cutoff radius                                   
   RWIGS  =    2.200; RWIGS  =    1.164    wigner-seitz radius (au A)           
   ENMAX  =  258.689; ENMIN  =  194.016 eV                                      
   ICORE  =        2    local potential                                         
   LCOR   =        T    correct aug charges                                     
   LPAW   =        T    paw PP                                                  
   EAUG   =  335.092                                                            
   DEXC   =    0.000                                                            
   RMAX   =    1.942    core radius for proj-oper                               
   RAUG   =    1.300    factor for augmentation sphere                          
   RDEP   =    1.954    radius for radial grids                                 
   RDEPT  =    1.744    core radius for aug-charge                              
                                                                                
   Atomic configuration                                                         
    6 entries                                                                   
     n  l   j            E        occ.                                          
     1  0  0.50     -2405.8406   2.0000                                         
     2  0  0.50      -211.7007   2.0000                                         
     2  1  1.50      -156.4958   6.0000                                         
     3  0  0.50       -17.2562   2.0000                                         
     3  1  0.50        -7.0085   4.0000                                         
     3  2  1.50        -6.8029   0.0000                                         
   Description                                                                  
     l       E           TYP  RCUT    TYP  RCUT                                 
     0    -17.2561641     23  1.900                                             
     0    -15.8743224     23  1.900                                             
     1     -7.0085400     23  1.900                                             
     1     -2.7779785     23  1.900                                             
     2     -6.8029130     23  1.900                                             
  local pseudopotential read in
  partial core-charges read in
  partial kinetic energy density read in
  atomic valenz-charges read in
  non local Contribution for L=           0  read in
    real space projection operators read in
  non local Contribution for L=           0  read in
    real space projection operators read in
  non local Contribution for L=           1  read in
    real space projection operators read in
  non local Contribution for L=           1  read in
    real space projection operators read in
    PAW grid and wavefunctions read in
 
   number of l-projection  operators is LMAX  =           4
   number of lm-projection operators is LMMAX =           8
 
 POTCAR:     PAW_PBE Cu_pv 06Sep2000              
   SHA256 =  cb7b504e2ea725fe1f25c85a9ac77d4012ce94cd394135b722c4e25ec297f1cb Cu
   COPYR  = (c) Copyright 06Sep2000 Georg Kresse                                
   COPYR  = This file is part of the software VASP. Any use, copying, and all ot
   COPYR  = If you do not have a valid VASP license, you may not use, copy or di
   VRHFIN =Cu: d10 p1                                                           
   LEXCH  = PE                                                                  
   EATOM  =  4120.1201 eV,  302.8203 Ry                                         
                                                                                
   TITEL  = PAW_PBE Cu_pv 06Sep2000                                             
   LULTRA =        F    use ultrasoft PP ?                                      
   IUNSCR =        1    unscreen: 0-lin 1-nonlin 2-no                           
   RPACOR =    1.500    partial core radius                                     
   POMASS =   63.546; ZVAL   =   17.000    mass and valenz                      
   RCORE  =    2.000    outmost cutoff radius                                   
   RWIGS  =    2.000; RWIGS  =    1.058    wigner-seitz radius (au A)           
   ENMAX  =  368.648; ENMIN  =  276.486 eV                                      
   RCLOC  =    1.304    cutoff for local pot                                    
   LCOR   =        T    correct aug charges                                     
   LPAW   =        T    paw PP                                                  
   EAUG   =  758.233                                                            
   DEXC   =    0.000                                                            
   RMAX   =    2.046    core radius for proj-oper                               
   RAUG   =    1.300    factor for augmentation sphere                          
   RDEP   =    2.025    radius for radial grids                                 
   RDEPT  =    1.558    core radius for aug-charge                              
                                                                                
   Atomic configuration                                                         
    8 entries                                                                   
     n  l   j            E        occ.                                          
     1  0  0.50     -8850.2467   2.0000                                         
     2  0  0.50     -1062.3498   2.0000                                         
     2  1  1.50      -916.8226   6.0000                                         
     3  0  0.50      -114.6929   2.0000                                         
     3  1  1.50       -72.1325   6.0000                                         
     3  2  2.50        -5.0394  10.0000                                         
     4  0  0.50        -4.6097   1.0000                                         
     4  3  2.50        -1.3606   0.0000                                         
   Description                                                                  
     l       E           TYP  RCUT    TYP  RCUT                                 
     1    -72.1324777     23  1.700                                             
     1     -1.3605826     23  1.700                                             
     2     -5.0393776     23  2.000                                             
     2     -6.3999602     23  2.000                                             
     0     -4.6097062     23  1.800                                             
     0     14.1620818     23  1.800                                             
  local pseudopotential read in
  partial core-charges read in
  partial kinetic energy density read in
  atomic valenz-charges read in
  non local Contribution for L=           1  read in
    real space projection operators read in
  non local Contribution for L=           1  read in
    real space projection operators read in
  non local Contribution for L=           2  read in
    real space projection operators read in
  non local Contribution for L=           2  read in
    real space projection operators read in
  non local Contribution for L=           0  read in
    real space projection operators read in
  non local Contribution for L=           0  read in
    real space projection operators read in
    PAW grid and wavefunctions read in
 
   number of l-projection  operators is LMAX  =           6
   number of lm-projection operators is LMMAX =          18
 
 POTCAR:     PAW_PBE Fe_pv 02Aug2007              
   SHA256 =  5d22e414b1f82158bf2c7ecb8b97b28fd0923e48cadc1c3bf74d524558f5dd32 Fe
   COPYR  = (c) Copyright 02Aug2007 Georg Kresse                                
   COPYR  = This file is part of the software VASP. Any use, copying, and all ot
   COPYR  = If you do not have a valid VASP license, you may not use, copy or di
   VRHFIN =Fe:  3pd7s1                                                          
   LEXCH  = PE                                                                  
   EATOM  =  2457.4239 eV,  180.6156 Ry                                         
                                                                                
   TITEL  = PAW_PBE Fe_pv 02Aug2007                                             
   LULTRA =        F    use ultrasoft PP ?                                      
   IUNSCR =        1    unscreen: 0-lin 1-nonlin 2-no                           
   RPACOR =    1.750    partial core radius                                     
   POMASS =   55.847; ZVAL   =   14.000    mass and valenz                      
   RCORE  =    2.200    outmost cutoff radius                                   
   RWIGS  =    2.200; RWIGS  =    1.164    wigner-seitz radius (au A)           
   ENMAX  =  293.238; ENMIN  =  219.928 eV                                      
   ICORE  =        3    local potential                                         
   LCOR   =        T    correct aug charges                                     
   LPAW   =        T    paw PP                                                  
   EAUG   =  578.342                                                            
   DEXC   =    0.000                                                            
   RMAX   =    2.249    core radius for proj-oper                               
   RAUG   =    1.300    factor for augmentation sphere                          
   RDEP   =    2.296    radius for radial grids                                 
   RDEPT  =    1.766    core radius for aug-charge                              
                                                                                
   Atomic configuration                                                         
    8 entries                                                                   
     n  l   j            E        occ.                                          
     1  0  0.50     -6993.8440   2.0000                                         
     2  0  0.50      -814.6047   2.0000                                         
     2  1  1.50      -693.3689   6.0000                                         
     3  0  0.50       -89.4732   2.0000                                         
     3  1  1.50       -55.6373   6.0000                                         
     3  2  2.50        -3.8151   7.0000                                         
     4  0  0.50        -4.2551   1.0000                                         
     4  3  2.50        -1.3606   0.0000                                         
   Description                                                                  
     l       E           TYP  RCUT    TYP  RCUT                                 
     1    -55.6372668     23  2.000                                             
     1     -5.4423304     23  2.000                                             
     2     -3.8151096     23  2.200                                             
     2     -5.1756922     23  2.200                                             
     0     -4.2550951     23  2.200                                             
     0     27.2116520     23  2.200                                             
     3     -1.3605826     23  2.200                                             
  local pseudopotential read in
  partial core-charges read in
  partial kinetic energy density read in
  atomic valenz-charges read in
  non local Contribution for L=           1  read in
    real space projection operators read in
  non local Contribution for L=           1  read in
    real space projection operators read in
  non local Contribution for L=           2  read in
    real space projection operators read in
  non local Contribution for L=           2  read in
    real space projection operators read in
  non local Contribution for L=           0  read in
    real space projection operators read in
  non local Contribution for L=           0  read in
    real space projection operators read in
    PAW grid and wavefunctions read in
 
   number of l-projection  operators is LMAX  =           6
   number of lm-projection operators is LMMAX =          18
 

 ----------------------------------------------------------------------------- 
|                                                                             |
|  ADVICE TO THIS USER RUNNING 'VASP/VAMP'   (HEAR YOUR MASTER'S VOICE ...):  |
|                                                                             |
|      You have a (more or less) 'large supercell' and for larger cells       |
|      it might be more efficient to use real space projection opertators     |
|      So try LREAL= Auto  in the INCAR   file.                               |
|      Mind:          For very  accurate calculation you might also keep the  |
|      reciprocal projection scheme          (i.e. LREAL=.FALSE.)             |
|                                                                             |
 ----------------------------------------------------------------------------- 


 ----------------------------------------------------------------------------- 
|                                                                             |
|  ADVICE TO THIS USER RUNNING 'VASP/VAMP'   (HEAR YOUR MASTER'S VOICE ...):  |
|                                                                             |
|      You enforced a specific xc-type in the INCAR file,                     |
|      a different type was found on the POTCAR file                          |
|          I HOPE YOU KNOW, WHAT YOU ARE  DOING                               |
|                                                                             |
 ----------------------------------------------------------------------------- 

  PAW_PBE S 06Sep2000                   :
 energy of atom  1       EATOM= -276.8230
 kinetic energy error for atom=    0.0007 (will be added to EATOM!!)
   PAW_PBE Cu_pv 06Sep2000              :
 energy of atom  2       EATOM=-4120.1201
 kinetic energy error for atom=    0.0094 (will be added to EATOM!!)
   PAW_PBE Fe_pv 02Aug2007              :
 energy of atom  3       EATOM=-2457.4239
 kinetic energy error for atom=    0.0025 (will be added to EATOM!!)
 
 
 POSCAR: Fe16 Cu16 S32                           
  positions in direct lattice
  No initial velocities read in
 exchange correlation table for  LEXCH =       14
   RHO(1)=    0.500       N(1)  =     2000
   RHO(2)=  100.500       N(2)  =     4000
 


--------------------------------------------------------------------------------------------------------


 ion  position               nearest neighbor table
   1  0.126  0.122  0.125-  41 2.26  37 2.27  61 2.27  49 2.28
   2  0.626  0.122  0.125-  42 2.26  38 2.27  62 2.27  50 2.28
   3  0.126  0.622  0.125-  43 2.26  39 2.27  63 2.27  51 2.28
   4  0.626  0.622  0.125-  44 2.26  40 2.27  64 2.27  52 2.28
   5  0.374  0.372  0.125-  39 2.26  41 2.27  52 2.27  62 2.28
   6  0.874  0.372  0.125-  40 2.26  42 2.27  51 2.27  61 2.28
   7  0.374  0.872  0.125-  37 2.26  43 2.27  50 2.27  64 2.28
   8  0.874  0.872  0.125-  38 2.26  44 2.27  49 2.27  63 2.28
   9  0.125  0.372  0.875-  41 2.26  45 2.26  51 2.27  55 2.27
  10  0.625  0.372  0.875-  42 2.26  46 2.26  52 2.27  56 2.27
  11  0.125  0.872  0.875-  43 2.26  47 2.26  49 2.27  53 2.27
  12  0.625  0.872  0.875-  44 2.26  48 2.26  50 2.27  54 2.27
  13  0.375  0.124  0.875-  41 2.26  46 2.26  50 2.28  53 2.28
  14  0.875  0.124  0.875-  42 2.26  45 2.26  49 2.28  54 2.28
  15  0.375  0.624  0.875-  43 2.26  48 2.26  52 2.28  55 2.28
  16  0.875  0.624  0.875-  44 2.26  47 2.26  51 2.28  56 2.28
  17  0.124  0.122  0.625-  45 2.26  33 2.27  57 2.27  53 2.28
  18  0.624  0.122  0.625-  46 2.26  34 2.27  58 2.27  54 2.28
  19  0.124  0.622  0.625-  47 2.26  35 2.27  59 2.27  55 2.28
  20  0.624  0.622  0.625-  48 2.26  36 2.27  60 2.27  56 2.28
  21  0.376  0.372  0.625-  36 2.26  46 2.27  55 2.27  57 2.28
  22  0.876  0.372  0.625-  35 2.26  45 2.27  56 2.27  58 2.28
  23  0.376  0.872  0.625-  34 2.26  48 2.27  53 2.27  59 2.28
  24  0.876  0.872  0.625-  33 2.26  47 2.27  54 2.27  60 2.28
  25  0.375  0.122  0.375-  34 2.26  37 2.26  57 2.27  62 2.27
  26  0.875  0.122  0.375-  33 2.26  38 2.26  58 2.27  61 2.27
  27  0.375  0.622  0.375-  36 2.26  39 2.26  59 2.27  64 2.27
  28  0.875  0.622  0.375-  35 2.26  40 2.26  60 2.27  63 2.27
  29  0.125  0.374  0.375-  35 2.26  39 2.26  57 2.28  61 2.28
  30  0.625  0.374  0.375-  36 2.26  40 2.26  58 2.28  62 2.28
  31  0.125  0.874  0.375-  33 2.26  37 2.26  59 2.28  63 2.28
  32  0.625  0.874  0.375-  34 2.26  38 2.26  60 2.28  64 2.28
  33  0.999  0.002  0.500-  24 2.26  31 2.26  26 2.26  17 2.27
  34  0.499  0.002  0.500-  23 2.26  32 2.26  25 2.26  18 2.27
  35  0.999  0.502  0.500-  22 2.26  29 2.26  28 2.26  19 2.27
  36  0.499  0.502  0.500-  21 2.26  30 2.26  27 2.26  20 2.27
  37  0.251  0.002  0.250-   7 2.26  31 2.26  25 2.26   1 2.27
  38  0.751  0.002  0.250-   8 2.26  32 2.26  26 2.26   2 2.27
  39  0.251  0.502  0.250-   5 2.26  29 2.26  27 2.26   3 2.27
  40  0.751  0.502  0.250-   6 2.26  30 2.26  28 2.26   4 2.27
  41  0.249  0.252  0.000-   1 2.26  13 2.26   9 2.26   5 2.27
  42  0.749  0.252  0.000-   2 2.26  14 2.26  10 2.26   6 2.27
  43  0.249  0.752  0.000-   3 2.26  15 2.26  11 2.26   7 2.27
  44  0.749  0.752  0.000-   4 2.26  16 2.26  12 2.26   8 2.27
  45  0.001  0.252  0.750-  17 2.26  14 2.26   9 2.26  22 2.27
  46  0.501  0.252  0.750-  18 2.26  13 2.26  10 2.26  21 2.27
  47  0.001  0.752  0.750-  19 2.26  16 2.26  11 2.26  24 2.27
  48  0.501  0.752  0.750-  20 2.26  15 2.26  12 2.26  23 2.27
  49  1.000  0.002  0.000-   8 2.27  11 2.27  14 2.28   1 2.28
  50  0.500  0.002  0.000-   7 2.27  12 2.27  13 2.28   2 2.28
  51  1.000  0.502  0.000-   6 2.27   9 2.27  16 2.28   3 2.28
  52  0.500  0.502  0.000-   5 2.27  10 2.27  15 2.28   4 2.28
  53  0.250  0.002  0.750-  23 2.27  11 2.27  13 2.28  17 2.28
  54  0.750  0.002  0.750-  24 2.27  12 2.27  14 2.28  18 2.28
  55  0.250  0.502  0.750-  21 2.27   9 2.27  15 2.28  19 2.28
  56  0.750  0.502  0.750-  22 2.27  10 2.27  16 2.28  20 2.28
  57  0.250  0.252  0.500-  17 2.27  25 2.27  29 2.28  21 2.28
  58  0.750  0.252  0.500-  18 2.27  26 2.27  30 2.28  22 2.28
  59  0.250  0.752  0.500-  19 2.27  27 2.27  31 2.28  23 2.28
  60  0.750  0.752  0.500-  20 2.27  28 2.27  32 2.28  24 2.28
  61  0.000  0.252  0.250-   1 2.27  26 2.27  29 2.28   6 2.28
  62  0.500  0.252  0.250-   2 2.27  25 2.27  30 2.28   5 2.28
  63  0.000  0.752  0.250-   3 2.27  28 2.27  31 2.28   8 2.28
  64  0.500  0.752  0.250-   4 2.27  27 2.27  32 2.28   7 2.28
 
  LATTYP: Found a simple monoclinic cell.
 ALAT       =    15.1020907835
 B/A-ratio  =     0.6965129631
 C/A-ratio  =     1.5701739388
 COS(beta)  =    -0.9522388332
  
  Lattice vectors:
  
 A1 = ( -10.7300880000,   0.0000000000, -10.6272460000)
 A2 = (   0.0000000000, -10.5188020000,   0.0000000000)
 A3 = (  10.9480880000,   0.0000000000,  21.0342920000)


Analysis of symmetry for initial positions (statically):
=====================================================================
 Subroutine PRICEL returns following result:
 
  LATTYP: Found a base centered monoclinic cell.
 ALAT       =    11.4633757800
 B/A-ratio  =     0.4588003657
 C/A-ratio  =     0.9080509276
 COS(beta)  =    -0.8078757741
  
  Lattice vectors:
  
 A1 = (  -2.5190220000,  -2.6297005000,   5.1484730000)
 A2 = (  -2.5190220000,   2.6297005000,   5.1484730000)
 A3 = (  -0.2180000000,   0.0000000000, -10.4070460000)
 
   8 primitive cells build up your supercell.
 

 Routine SETGRP: Setting up the symmetry group for a 
 simple monoclinic supercell.


 Subroutine GETGRP returns: Found  2 space group operations
 (whereof  1 operations were pure point group operations)
 out of a pool of  4 trial point group operations.


The static configuration has the point symmetry C_1 .
 The point group associated with its full space group is C_2 .


Analysis of symmetry for dynamics (positions and initial velocities):
=====================================================================
 Subroutine PRICEL returns following result:
 
  LATTYP: Found a base centered monoclinic cell.
 ALAT       =    11.4633757800
 B/A-ratio  =     0.4588003657
 C/A-ratio  =     0.9080509276
 COS(beta)  =    -0.8078757741
  
  Lattice vectors:
  
 A1 = (  -2.5190220000,  -2.6297005000,   5.1484730000)
 A2 = (  -2.5190220000,   2.6297005000,   5.1484730000)
 A3 = (  -0.2180000000,   0.0000000000, -10.4070460000)
 
   8 primitive cells build up your supercell.
 

 Routine SETGRP: Setting up the symmetry group for a 
 simple monoclinic supercell.


 Subroutine GETGRP returns: Found  2 space group operations
 (whereof  1 operations were pure point group operations)
 out of a pool of  4 trial point group operations.


The dynamic configuration has the point symmetry C_1 .
 The point group associated with its full space group is C_2 .


Analysis of structural, dynamic, and magnetic symmetry:
=====================================================================
 Subroutine PRICEL returns following result:
 
  LATTYP: Found a base centered monoclinic cell.
 ALAT       =    11.4633757800
 B/A-ratio  =     0.4588003657
 C/A-ratio  =     0.9080509276
 COS(beta)  =    -0.8078757741
  
  Lattice vectors:
  
 A1 = (  -2.5190220000,  -2.6297005000,   5.1484730000)
 A2 = (  -2.5190220000,   2.6297005000,   5.1484730000)
 A3 = (  -0.2180000000,   0.0000000000, -10.4070460000)
 
   8 primitive cells build up your supercell.
 

 Routine SETGRP: Setting up the symmetry group for a 
 simple monoclinic supercell.


 Subroutine GETGRP returns: Found  2 space group operations
 (whereof  1 operations were pure point group operations)
 out of a pool of  4 trial point group operations.


The magnetic configuration has the point symmetry C_1 .
 The point group associated with its full space group is C_2 .


 Subroutine INISYM returns: Found  2 space group operations
 (whereof  1 operations are pure point group operations),
 and found     8 'primitive' translations

 
 
 KPOINTS: Automatic mesh                          

Automatic generation of k-mesh.
Space group operators:
 irot       det(A)        alpha          n_x          n_y          n_z        tau_x        tau_y        tau_z
    1     1.000000     0.000000     1.000000     0.000000     0.000000     0.000000     0.000000     0.000000
    2     1.000000   180.000000     0.000000     1.000000     0.000000    -0.250000     0.000000    -0.250000
 
 Subroutine IBZKPT returns following result:
 ===========================================
 
 Found      8 irreducible k-points:
 
 Following reciprocal coordinates:
            Coordinates               Weight
  0.000000  0.000000  0.000000      1.000000
  0.500000  0.000000  0.000000      1.000000
  0.000000  0.500000  0.000000      1.000000
  0.500000  0.500000  0.000000      1.000000
  0.000000  0.000000  0.500000      1.000000
  0.500000  0.000000  0.500000      1.000000
  0.000000  0.500000  0.500000      1.000000
  0.500000  0.500000  0.500000      1.000000
 
 Following cartesian coordinates:
            Coordinates               Weight
  0.000000  0.000000  0.000000      1.000000
  0.047585  0.000000 -0.000997      1.000000
  0.000000  0.047534  0.000000      1.000000
  0.047585  0.047534 -0.000997      1.000000
 -0.001007  0.000000  0.048065      1.000000
  0.046578  0.000000  0.047069      1.000000
 -0.001007  0.047534  0.048065      1.000000
  0.046578  0.047534  0.047069      1.000000
 
 TETIRR: Found     24 inequivalent tetrahedra from       48
 
 Subroutine IBZKPT_HF returns following result:
 ==============================================
 
 Found      8 k-points in 1st BZ
 the following      8 k-points will be used (e.g. in the exchange kernel)
 Following reciprocal coordinates:   # in IRBZ
  0.000000  0.000000  0.000000    0.12500000   1 t-inv F
  0.500000  0.000000  0.000000    0.12500000   2 t-inv F
  0.000000  0.500000  0.000000    0.12500000   3 t-inv F
  0.500000  0.500000  0.000000    0.12500000   4 t-inv F
  0.000000  0.000000  0.500000    0.12500000   5 t-inv F
  0.500000  0.000000  0.500000    0.12500000   6 t-inv F
  0.000000  0.500000  0.500000    0.12500000   7 t-inv F
  0.500000  0.500000  0.500000    0.12500000   8 t-inv F


--------------------------------------------------------------------------------------------------------




 Dimension of arrays:
   k-points           NKPTS =      8   k-points in BZ     NKDIM =      8   number of bands    NBANDS=    512
   number of dos      NEDOS =    301   number of ions     NIONS =     64
   non local maximal  LDIM  =      6   non local SUM 2l+1 LMDIM =     18
   total plane-waves  NPLWV = 829440
   max r-space proj   IRMAX =      1   max aug-charges    IRDMAX=  22915
   dimension x,y,z NGX =    96 NGY =   96 NGZ =   90
   dimension x,y,z NGXF=   192 NGYF=  192 NGZF=  180
   support grid    NGXF=   192 NGYF=  192 NGZF=  180
   ions per type =              32  16  16
   NGX,Y,Z   is equivalent  to a cutoff of  15.18, 15.17, 14.37 a.u.
   NGXF,Y,Z  is equivalent  to a cutoff of  30.36, 30.34, 28.75 a.u.

 SYSTEM =  CuFeS2                                  
 POSCAR =  Fe16 Cu16 S32                           

 Startparameter for this run:
   NWRITE =      2    write-flag & timer
   PREC   = accura    normal or accurate (medium, high low for compatibility)
   ISTART =      0    job   : 0-new  1-cont  2-samecut
   ICHARG =      1    charge: 1-file 2-atom 10-const
   ISPIN  =      2    spin polarized calculation?
   LNONCOLLINEAR =      F non collinear calculations
   LSORBIT =      F    spin-orbit coupling
   INIWAV =      1    electr: 0-lowe 1-rand  2-diag
   LASPH  =      F    aspherical Exc in radial PAW
   METAGGA=      F    non-selfconsistent MetaGGA calc.

 Electronic Relaxation 1
   ENCUT  =  700.0 eV  51.45 Ry    7.17 a.u.  22.68 22.69 22.46*2*pi/ulx,y,z
   ENINI  =  700.0     initial cutoff
   ENAUG  =  758.2 eV  augmentation charge cutoff
   NELM   =    500;   NELMIN=  2; NELMDL= -5     # of ELM steps 
   EDIFF  = 0.1E-07   stopping-criterion for ELM
   LREAL  =      F    real-space projection
   NLSPLINE    = F    spline interpolate recip. space projectors
   LCOMPAT=      F    compatible to vasp.4.4
   GGA_COMPAT  = T    GGA compatible to vasp.4.4-vasp.4.6
   LMAXPAW     = -100 max onsite density
   LMAXMIX     =    4 max onsite mixed and CHGCAR
   VOSKOWN=      0    Vosko Wilk Nusair interpolation
   ROPT   =    0.00000   0.00000   0.00000
 Ionic relaxation
   EDIFFG = -.1E-04   stopping-criterion for IOM
   NSW    =      0    number of steps for IOM
   NBLOCK =      1;   KBLOCK =      1    inner block; outer block 
   IBRION =     -1    ionic relax: 0-MD 1-quasi-New 2-CG
   NFREE  =      0    steps in history (QN), initial steepest desc. (CG)
   ISIF   =      2    stress and relaxation
   IWAVPR =     10    prediction:  0-non 1-charg 2-wave 3-comb
   ISYM   =      2    0-nonsym 1-usesym 2-fastsym
   LCORR  =      T    Harris-Foulkes like correction to forces

   POTIM  = 0.5000    time-step for ionic-motion
   TEIN   =    0.0    initial temperature
   TEBEG  =    0.0;   TEEND  =   0.0 temperature during run
   SMASS  =  -3.00    Nose mass-parameter (am)
   estimated Nose-frequenzy (Omega)   =  0.10E-29 period in steps =****** mass=  -0.253E-26a.u.
   SCALEE = 1.0000    scale energy and forces
   NPACO  =    256;   APACO  = 16.0  distance and # of slots for P.C.
   PSTRESS=    0.0 pullay stress

  Mass of Ions in am
   POMASS =  32.07 63.55 55.85
  Ionic Valenz
   ZVAL   =   6.00 17.00 14.00
  Atomic Wigner-Seitz radii
   RWIGS  =  -1.00 -1.00 -1.00
  virtual crystal weights 
   VCA    =   1.00  1.00  1.00
   NELECT =     688.0000    total number of electrons
   NUPDOWN=      -1.0000    fix difference up-down

 DOS related values:
   EMIN   =  10.00;   EMAX   =-10.00  energy-range for DOS
   EFERMI =   0.00
   ISMEAR =    -5;   SIGMA  =   0.03  broadening in eV -4-tet -1-fermi 0-gaus

 Electronic relaxation 2 (details)
   IALGO  =     38    algorithm
   LDIAG  =      T    sub-space diagonalisation (order eigenvalues)
   LSUBROT=      F    optimize rotation matrix (better conditioning)
   TURBO    =      0    0=normal 1=particle mesh
   IRESTART =      0    0=no restart 2=restart with 2 vectors
   NREBOOT  =      0    no. of reboots
   NMIN     =      0    reboot dimension
   EREF     =   0.00    reference energy to select bands
   IMIX   =      4    mixing-type and parameters
     AMIX     =   0.40;   BMIX     =  1.00
     AMIX_MAG =   1.60;   BMIX_MAG =  1.00
     AMIN     =   0.10
     WC   =   100.;   INIMIX=   1;  MIXPRE=   1;  MAXMIX= -45

 Intra band minimization:
   WEIMIN = 0.0000     energy-eigenvalue tresh-hold
   EBREAK =  0.49E-11  absolut break condition
   DEPER  =   0.30     relativ break condition  

   TIME   =   0.40     timestep for ELM

  volume/ion in A,a.u.               =      17.97       121.29
  Fermi-wavevector in a.u.,A,eV,Ry     =   1.379347  2.606588 25.886427  1.902599
  Thomas-Fermi vector in A             =   2.504325
 
 Write flags
   LWAVE        =      T    write WAVECAR
   LDOWNSAMPLE  =      F    k-point downsampling of WAVECAR
   LCHARG       =      T    write CHGCAR
   LVTOT        =      F    write LOCPOT, total local potential
   LVHAR        =      F    write LOCPOT, Hartree potential only
   LELF         =      F    write electronic localiz. function (ELF)
   LORBIT       =     11    0 simple, 1 ext, 2 COOP (PROOUT), +10 PAW based schemes


 Dipole corrections
   LMONO  =      F    monopole corrections only (constant potential shift)
   LDIPOL =      F    correct potential (dipole corrections)
   IDIPOL =      0    1-x, 2-y, 3-z, 4-all directions 
   EPSILON=  1.0000000 bulk dielectric constant

 LDA+U is selected, type is set to LDAUTYPE =  2
   angular momentum for each species LDAUL =     2    2    2
   U (eV)           for each species LDAUU =   0.0  0.1  4.7
   J (eV)           for each species LDAUJ =   0.0  0.0  0.0
 Exchange correlation treatment:
   GGA     =    PS    GGA type
   LEXCH   =    14    internal setting for exchange type
   VOSKOWN=      0    Vosko Wilk Nusair interpolation
   LHFCALC =     F    Hartree Fock is set to
   LHFONE  =     F    Hartree Fock one center treatment
   AEXX    =    0.0000 exact exchange contribution

 Linear response parameters
   LEPSILON=     F    determine dielectric tensor
   LRPA    =     F    only Hartree local field effects (RPA)
   LNABLA  =     F    use nabla operator in PAW spheres
   LVEL    =     F    velocity operator in full k-point grid
   LINTERFAST=   F  fast interpolation
   KINTER  =     0    interpolate to denser k-point grid
   CSHIFT  =0.1000    complex shift for real part using Kramers Kronig
   OMEGAMAX=  -1.0    maximum frequency
   DEG_THRESHOLD= 0.2000000E-02 threshold for treating states as degnerate
   RTIME   =   -0.100 relaxation time in fs
  (WPLASMAI=    0.000 imaginary part of plasma frequency in eV, 0.658/RTIME)
   DFIELD  = 0.0000000 0.0000000 0.0000000 field for delta impulse in time
 
 Orbital magnetization related:
   ORBITALMAG=     F  switch on orbital magnetization
   LCHIMAG   =     F  perturbation theory with respect to B field
   DQ        =  0.001000  dq finite difference perturbation B field
   LLRAUG    =     F  two centre corrections for induced B field

 PEAD related settings:
   LPEAD      =     T    switch on PEAD
   IPEAD      =     4    finite difference order for dpsi/dk
   LCALCPOL   =     T    calculate macroscopic polarization
   LCALCEPS   =     F    calculate dielectric tensor
   EFIELD_PEAD=    0.0000    0.0000    0.0000
   SKIP_EDOTP =     F
   LRPA       =     F
   SKIP_SCF   =     F


--------------------------------------------------------------------------------------------------------


 Static calculation
 charge density and potential will be updated during run
 spin polarized calculation
 Variant of blocked Davidson
 Davidson routine will perform the subspace rotation
 perform sub-space diagonalisation
    after iterative eigenvector-optimisation
 modified Broyden-mixing scheme, WC =      100.0
 initial mixing is a Kerker type mixing with AMIX =  0.4000 and BMIX =      1.0000
 Hartree-type preconditioning will be used
 using additional bands          168
 reciprocal scheme for non local part
 use partial core corrections
 calculate Harris-corrections to forces 
   (improved forces if not selfconsistent)
 use gradient corrections 
 use of overlap-Matrix (Vanderbilt PP)
 Fermi weights with tetrahedron method with Bloechl corrections


--------------------------------------------------------------------------------------------------------


  energy-cutoff  :      700.00
  volume of cell :     1150.25
      direct lattice vectors                 reciprocal lattice vectors
    10.512088000  0.000000000  0.220200000     0.095170339  0.000000000 -0.001993566
     0.000000000 10.518802000  0.000000000     0.000000000  0.095067860  0.000000000
     0.218000000  0.000000000 10.407046000    -0.002013685  0.000000000  0.096130927

  length of vectors
    10.514394046 10.518802000 10.409329010     0.095191217  0.095067860  0.096152016


 
 k-points in units of 2pi/SCALE and weight: Automatic mesh                          
   0.00000000  0.00000000  0.00000000       0.125
   0.04758517  0.00000000 -0.00099678       0.125
   0.00000000  0.04753393  0.00000000       0.125
   0.04758517  0.04753393 -0.00099678       0.125
  -0.00100684  0.00000000  0.04806546       0.125
   0.04657833  0.00000000  0.04706868       0.125
  -0.00100684  0.04753393  0.04806546       0.125
   0.04657833  0.04753393  0.04706868       0.125
 
 k-points in reciprocal lattice and weights: Automatic mesh                          
   0.00000000  0.00000000  0.00000000       0.125
   0.50000000  0.00000000  0.00000000       0.125
   0.00000000  0.50000000  0.00000000       0.125
   0.50000000  0.50000000  0.00000000       0.125
   0.00000000  0.00000000  0.50000000       0.125
   0.50000000  0.00000000  0.50000000       0.125
   0.00000000  0.50000000  0.50000000       0.125
   0.50000000  0.50000000  0.50000000       0.125
 
 position of ions in fractional coordinates (direct lattice) 
   0.12621400  0.12239000  0.12537900
   0.62621400  0.12239000  0.12537900
   0.12621400  0.62239000  0.12537900
   0.62621400  0.62239000  0.12537900
   0.37378600  0.37239000  0.12462100
   0.87378600  0.37239000  0.12462100
   0.37378600  0.87239000  0.12462100
   0.87378600  0.87239000  0.12462100
   0.12500000  0.37207900  0.87500000
   0.62500000  0.37207900  0.87500000
   0.12500000  0.87207900  0.87500000
   0.62500000  0.87207900  0.87500000
   0.37500000  0.12422700  0.87500000
   0.87500000  0.12422700  0.87500000
   0.37500000  0.62422700  0.87500000
   0.87500000  0.62422700  0.87500000
   0.12378600  0.12239000  0.62462100
   0.62378600  0.12239000  0.62462100
   0.12378600  0.62239000  0.62462100
   0.62378600  0.62239000  0.62462100
   0.37621400  0.37239000  0.62537900
   0.87621400  0.37239000  0.62537900
   0.37621400  0.87239000  0.62537900
   0.87621400  0.87239000  0.62537900
   0.37500000  0.12207900  0.37500000
   0.87500000  0.12207900  0.37500000
   0.37500000  0.62207900  0.37500000
   0.87500000  0.62207900  0.37500000
   0.12500000  0.37422700  0.37500000
   0.62500000  0.37422700  0.37500000
   0.12500000  0.87422700  0.37500000
   0.62500000  0.87422700  0.37500000
   0.99923000  0.00230100  0.50000600
   0.49923000  0.00230100  0.50000600
   0.99923000  0.50230100  0.50000600
   0.49923000  0.50230100  0.50000600
   0.25077000  0.00230100  0.24999400
   0.75077000  0.00230100  0.24999400
   0.25077000  0.50230100  0.24999400
   0.75077000  0.50230100  0.24999400
   0.24923000  0.25230100  0.00000600
   0.74923000  0.25230100  0.00000600
   0.24923000  0.75230100  0.00000600
   0.74923000  0.75230100  0.00000600
   0.00077000  0.25230100  0.74999400
   0.50077000  0.25230100  0.74999400
   0.00077000  0.75230100  0.74999400
   0.50077000  0.75230100  0.74999400
   0.99957800  0.00215600  0.00015100
   0.49957800  0.00215600  0.00015100
   0.99957800  0.50215600  0.00015100
   0.49957800  0.50215600  0.00015100
   0.25042200  0.00215600  0.74984900
   0.75042200  0.00215600  0.74984900
   0.25042200  0.50215600  0.74984900
   0.75042200  0.50215600  0.74984900
   0.24957800  0.25215600  0.50015100
   0.74957800  0.25215600  0.50015100
   0.24957800  0.75215600  0.50015100
   0.74957800  0.75215600  0.50015100
   0.00042200  0.25215600  0.24984900
   0.50042200  0.25215600  0.24984900
   0.00042200  0.75215600  0.24984900
   0.50042200  0.75215600  0.24984900
 
 position of ions in cartesian coordinates  (Angst):
   1.35410530  1.28739618  1.33261734
   6.61014930  1.28739618  1.44271734
   1.35410530  6.54679718  1.33261734
   6.61014930  6.54679718  1.44271734
   3.95643870  3.91709668  1.37924416
   9.21248270  3.91709668  1.48934416
   3.95643870  9.17649768  1.37924416
   9.21248270  9.17649768  1.48934416
   1.50476100  3.91382533  9.13369025
   6.76080500  3.91382533  9.24379025
   1.50476100  9.17322633  9.13369025
   6.76080500  9.17322633  9.24379025
   4.13278300  1.30671922  9.18874025
   9.38882700  1.30671922  9.29884025
   4.13278300  6.56612022  9.18874025
   9.38882700  6.56612022  9.29884025
   1.43741670  1.28739618  6.52771716
   6.69346070  1.28739618  6.63781716
   1.43741670  6.54679718  6.52771716
   6.69346070  6.54679718  6.63781716
   4.09112730  3.91709668  6.59119034
   9.34717130  3.91709668  6.70129034
   4.09112730  9.17649768  6.59119034
   9.34717130  9.17649768  6.70129034
   4.02378300  1.28412483  3.98521725
   9.27982700  1.28412483  4.09531725
   4.02378300  6.54352583  3.98521725
   9.27982700  6.54352583  4.09531725
   1.39576100  3.93641972  3.93016725
   6.65180500  3.93641972  4.04026725
   1.39576100  9.19582072  3.93016725
   6.65180500  9.19582072  4.04026725
  10.61299500  0.02420376  5.42361589
   5.35695100  0.02420376  5.31351589
  10.61299500  5.28360476  5.42361589
   5.35695100  5.28360476  5.31351589
   2.69061500  0.02420376  2.65691861
   7.94665900  0.02420376  2.76701861
   2.69061500  5.28360476  2.65691861
   7.94665900  5.28360476  2.76701861
   2.61992900  2.65390426  0.05494289
   7.87597300  2.65390426  0.16504289
   2.61992900  7.91330526  0.05494289
   7.87597300  7.91330526  0.16504289
   0.17159300  2.65390426  7.80539161
   5.42763700  2.65390426  7.91549161
   0.17159300  7.91330526  7.80539161
   5.42763700  7.91330526  7.91549161
  10.50768482  0.02267854  0.22167854
   5.25164082  0.02267854  0.11157854
  10.50768482  5.28207954  0.22167854
   5.25164082  5.28207954  0.11157854
   2.79592518  0.02267854  7.85885596
   8.05196918  0.02267854  7.96895596
   2.79592518  5.28207954  7.85885596
   8.05196918  5.28207954  7.96895596
   2.73261882  2.65237904  5.26005154
   7.98866282  2.65237904  5.37015154
   2.73261882  7.91178004  5.26005154
   7.98866282  7.91178004  5.37015154
   0.05890318  2.65237904  2.60028296
   5.31494718  2.65237904  2.71038296
   0.05890318  7.91178004  2.60028296
   5.31494718  7.91178004  2.71038296
 


--------------------------------------------------------------------------------------------------------


 k-point  1 :   0.0000 0.0000 0.0000  plane waves:   48427
 k-point  2 :   0.5000 0.0000 0.0000  plane waves:   48388
 k-point  3 :   0.0000 0.5000 0.0000  plane waves:   48398
 k-point  4 :   0.5000 0.5000 0.0000  plane waves:   48420
 k-point  5 :   0.0000 0.0000 0.5000  plane waves:   48350
 k-point  6 :   0.5000 0.0000 0.5000  plane waves:   48388
 k-point  7 :   0.0000 0.5000 0.5000  plane waves:   48344
 k-point  8 :   0.5000 0.5000 0.5000  plane waves:   48300

 maximum and minimum number of plane-waves per node :     48427    48300

 maximum number of plane-waves:     48427
 maximum index in each direction: 
   IXMAX=   22   IYMAX=   22   IZMAX=   22
   IXMIN=  -23   IYMIN=  -23   IZMIN=  -22


 serial   3D FFT for wavefunctions
 parallel 3D FFT for charge:
    minimum data exchange during FFTs selected (reduces bandwidth)


 total amount of memory used by VASP MPI-rank0   349631. kBytes
=======================================================================

   base      :      30000. kBytes
   nonl-proj :     217907. kBytes
   fftplans  :       4588. kBytes
   grid      :      69719. kBytes
   one-center:       1990. kBytes
   wavefun   :      25427. kBytes
 
     INWAV:  cpu time    0.0000: real time    0.0000
 Broyden mixing: mesh for mixing (old mesh)
   NGX = 45   NGY = 45   NGZ = 45
  (NGX  =192   NGY  =192   NGZ  =180)
  gives a total of  91125 points

 initial charge density was supplied:
 number of electron     688.0000190 magnetization       0.0000000
 keeping initial charge density in first step


--------------------------------------------------------------------------------------------------------


 Maximum index for augmentation-charges          897 (set IRDMAX)


--------------------------------------------------------------------------------------------------------


 First call to EWALD:  gamma=   0.169
 Maximum number of real-space cells 3x 3x 3
 Maximum number of reciprocal cells 3x 3x 3

    FEWALD:  cpu time    0.0033: real time    0.0038


--------------------------------------- Iteration      1(   1)  ---------------------------------------


    POTLOK:  cpu time    0.3465: real time    0.3868
    SETDIJ:  cpu time    0.0179: real time    0.0180
     EDDAV:  cpu time   86.1406: real time   86.8603
 BZINTS: Fermi energy: 14.931009;688.000000 electrons
         Band energy:***********;  BLOECHL correction: -0.009059
       DOS:  cpu time    0.0400: real time    0.0402
    --------------------------------------------
      LOOP:  cpu time   86.5451: real time   87.3053

 eigenvalue-minimisations  : 16384
 total energy-change (2. order) : 0.6048364E+04  (-0.5161904E+05)
 number of electron     688.0000190 magnetization       0.0000000
 augmentation part      688.0000190 magnetization       0.0000000

 Free energy of the ion-electron system (eV)
  ---------------------------------------------------
  alpha Z        PSCENC =      2357.01039374
  Ewald energy   TEWEN  =    -62482.43853181
  -Hartree energ DENC   =    -42912.05543483
  -exchange      EXHF   =         0.00000000
  -V(xc)+E(xc)   XCENC  =      3285.39240595
  PAW double counting   =    112224.67741066  -115917.87443654
  entropy T*S    EENTRO =         0.00000000
  eigenvalues    EBANDS =     -4526.41311275
  atomic energy  EATOM  =    114020.06510763
  Solvation  Ediel_sol  =         0.00000000
  ---------------------------------------------------
  free energy    TOTEN  =      6048.36380205 eV

  energy without entropy =     6048.36380205  energy(sigma->0) =     6048.36380205


--------------------------------------------------------------------------------------------------------




--------------------------------------- Iteration      1(   2)  ---------------------------------------


     EDDAV:  cpu time  100.5810: real time  101.3551
 BZINTS: Fermi energy:  5.455809;688.000000 electrons
         Band energy:***********;  BLOECHL correction:  0.000000
       DOS:  cpu time    0.0066: real time    0.0067
    --------------------------------------------
      LOOP:  cpu time  100.5876: real time  101.3617

 eigenvalue-minimisations  : 18176
 total energy-change (2. order) :-0.6130342E+04  (-0.6020867E+04)
 number of electron     688.0000190 magnetization       0.0000000
 augmentation part      688.0000190 magnetization       0.0000000

 Free energy of the ion-electron system (eV)
  ---------------------------------------------------
  alpha Z        PSCENC =      2357.01039374
  Ewald energy   TEWEN  =    -62482.43853181
  -Hartree energ DENC   =    -42912.05543483
  -exchange      EXHF   =         0.00000000
  -V(xc)+E(xc)   XCENC  =      3285.39240595
  PAW double counting   =    112224.67741066  -115917.87443654
  entropy T*S    EENTRO =         0.00000000
  eigenvalues    EBANDS =    -10656.75484628
  atomic energy  EATOM  =    114020.06510763
  Solvation  Ediel_sol  =         0.00000000
  ---------------------------------------------------
  free energy    TOTEN  =       -81.97793148 eV

  energy without entropy =      -81.97793148  energy(sigma->0) =      -81.97793148


--------------------------------------------------------------------------------------------------------




--------------------------------------- Iteration      1(   3)  ---------------------------------------


     EDDAV:  cpu time  155.2051: real time  156.2920
 BZINTS: Fermi energy:  4.886944;688.000000 electrons
         Band energy:***********;  BLOECHL correction:  0.000000
       DOS:  cpu time    0.0065: real time    0.0065
    --------------------------------------------
      LOOP:  cpu time  155.2116: real time  156.2985

 eigenvalue-minimisations  : 22784
 total energy-change (2. order) :-0.2459976E+03  (-0.2451431E+03)
 number of electron     688.0000190 magnetization       0.0000000
 augmentation part      688.0000190 magnetization       0.0000000

 Free energy of the ion-electron system (eV)
  ---------------------------------------------------
  alpha Z        PSCENC =      2357.01039374
  Ewald energy   TEWEN  =    -62482.43853181
  -Hartree energ DENC   =    -42912.05543483
  -exchange      EXHF   =         0.00000000
  -V(xc)+E(xc)   XCENC  =      3285.39240595
  PAW double counting   =    112224.67741066  -115917.87443654
  entropy T*S    EENTRO =         0.00000000
  eigenvalues    EBANDS =    -10902.75242648
  atomic energy  EATOM  =    114020.06510763
  Solvation  Ediel_sol  =         0.00000000
  ---------------------------------------------------
  free energy    TOTEN  =      -327.97551167 eV

  energy without entropy =     -327.97551167  energy(sigma->0) =     -327.97551167


--------------------------------------------------------------------------------------------------------




--------------------------------------- Iteration      1(   4)  ---------------------------------------


     EDDAV:  cpu time  123.2847: real time  124.1792
 BZINTS: Fermi energy:  5.004475;688.000000 electrons
         Band energy:***********;  BLOECHL correction:  0.000000
       DOS:  cpu time    0.0065: real time    0.0065
    --------------------------------------------
      LOOP:  cpu time  123.2912: real time  124.1857

 eigenvalue-minimisations  : 19712
 total energy-change (2. order) :-0.3382299E+01  (-0.3382162E+01)
 number of electron     688.0000190 magnetization       0.0000000
 augmentation part      688.0000190 magnetization       0.0000000

 Free energy of the ion-electron system (eV)
  ---------------------------------------------------
  alpha Z        PSCENC =      2357.01039374
  Ewald energy   TEWEN  =    -62482.43853181
  -Hartree energ DENC   =    -42912.05543483
  -exchange      EXHF   =         0.00000000
  -V(xc)+E(xc)   XCENC  =      3285.39240595
  PAW double counting   =    112224.67741066  -115917.87443654
  entropy T*S    EENTRO =         0.00000000
  eigenvalues    EBANDS =    -10906.13472590
  atomic energy  EATOM  =    114020.06510763
  Solvation  Ediel_sol  =         0.00000000
  ---------------------------------------------------
  free energy    TOTEN  =      -331.35781110 eV

  energy without entropy =     -331.35781110  energy(sigma->0) =     -331.35781110


--------------------------------------------------------------------------------------------------------




--------------------------------------- Iteration      1(   5)  ---------------------------------------


     EDDAV:  cpu time  148.5339: real time  149.5797
 BZINTS: Fermi energy:  4.936306;688.000000 electrons
         Band energy:***********;  BLOECHL correction:  0.000000
       DOS:  cpu time    0.0065: real time    0.0065
    CHARGE:  cpu time    1.3954: real time    1.4053
    MIXING:  cpu time    0.0059: real time    0.0059
    --------------------------------------------
      LOOP:  cpu time  149.9417: real time  150.9974

 eigenvalue-minimisations  : 21760
 total energy-change (2. order) :-0.1036240E+00  (-0.1036235E+00)
 number of electron     688.0000216 magnetization       0.0000000
 augmentation part      282.7152478 magnetization       0.0000000

 Broyden mixing:
  rms(total) = 0.14216E+01    rms(broyden)= 0.14214E+01
  rms(prec ) = 0.15973E+01
  weight for this iteration     100.00

 Free energy of the ion-electron system (eV)
  ---------------------------------------------------
  alpha Z        PSCENC =      2357.01039374
  Ewald energy   TEWEN  =    -62482.43853181
  -Hartree energ DENC   =    -42912.05543483
  -exchange      EXHF   =         0.00000000
  -V(xc)+E(xc)   XCENC  =      3285.39240595
  PAW double counting   =    112224.67741066  -115917.87443654
  entropy T*S    EENTRO =         0.00000000
  eigenvalues    EBANDS =    -10906.23834988
  atomic energy  EATOM  =    114020.06510763
  Solvation  Ediel_sol  =         0.00000000
  ---------------------------------------------------
  free energy    TOTEN  =      -331.46143508 eV

  energy without entropy =     -331.46143508  energy(sigma->0) =     -331.46143508


--------------------------------------------------------------------------------------------------------




--------------------------------------- Iteration      1(   6)  ---------------------------------------


    POTLOK:  cpu time    0.1283: real time    0.1317
    SETDIJ:  cpu time    0.0131: real time    0.0131
     EDDAV:  cpu time  175.3671: real time  176.5850
 BZINTS: Fermi energy:  4.954399;688.000000 electrons
         Band energy:***********;  BLOECHL correction:  0.000000
       DOS:  cpu time    0.0066: real time    0.0066
    CHARGE:  cpu time    1.3971: real time    1.4068
    MIXING:  cpu time    0.0025: real time    0.0130
    --------------------------------------------
      LOOP:  cpu time  176.9147: real time  178.1563

 eigenvalue-minimisations  : 25600
 total energy-change (2. order) : 0.2662650E+01  (-0.2202421E+00)
 number of electron     688.0000216 magnetization       0.0000000
 augmentation part      281.9056051 magnetization       0.0000000

 Broyden mixing:
  rms(total) = 0.75725E+00    rms(broyden)= 0.75723E+00
  rms(prec ) = 0.84958E+00
  weight for this iteration     100.00

 eigenvalues of (default mixing * dielectric matrix)
  average eigenvalue GAMMA=   0.9149
  0.9149

 Free energy of the ion-electron system (eV)
  ---------------------------------------------------
  alpha Z        PSCENC =      2357.01039374
  Ewald energy   TEWEN  =    -62482.43853181
  -Hartree energ DENC   =    -42960.41714647
  -exchange      EXHF   =         0.00000000
  -V(xc)+E(xc)   XCENC  =      3286.78386649
  PAW double counting   =    112560.31089355  -116259.42247337
  entropy T*S    EENTRO =         0.00000000
  eigenvalues    EBANDS =    -10850.69089501
  atomic energy  EATOM  =    114020.06510763
  Solvation  Ediel_sol  =         0.00000000
  ---------------------------------------------------
  free energy    TOTEN  =      -328.79878526 eV

  energy without entropy =     -328.79878526  energy(sigma->0) =     -328.79878526


--------------------------------------------------------------------------------------------------------




--------------------------------------- Iteration      1(   7)  ---------------------------------------


    POTLOK:  cpu time    0.1311: real time    0.1321
    SETDIJ:  cpu time    0.0130: real time    0.0130
     EDDAV:  cpu time  179.3297: real time  180.5737
 BZINTS: Fermi energy:  4.949379;688.000000 electrons
         Band energy:***********;  BLOECHL correction:  0.000000
       DOS:  cpu time    0.0064: real time    0.0064
    CHARGE:  cpu time    1.3941: real time    1.4042
    MIXING:  cpu time    0.0016: real time    0.0114
    --------------------------------------------
      LOOP:  cpu time  180.8758: real time  182.1408

 eigenvalue-minimisations  : 25856
 total energy-change (2. order) : 0.7974468E+00  (-0.1821616E+00)
 number of electron     688.0000216 magnetization       0.0000000
 augmentation part      282.5479480 magnetization       0.0000000

 Broyden mixing:
  rms(total) = 0.44825E+00    rms(broyden)= 0.44824E+00
  rms(prec ) = 0.47343E+00
  weight for this iteration     100.00

 eigenvalues of (default mixing * dielectric matrix)
  average eigenvalue GAMMA=   1.1023
  1.6041  0.6004

 Free energy of the ion-electron system (eV)
  ---------------------------------------------------
  alpha Z        PSCENC =      2357.01039374
  Ewald energy   TEWEN  =    -62482.43853181
  -Hartree energ DENC   =    -42920.85276929
  -exchange      EXHF   =         0.00000000
  -V(xc)+E(xc)   XCENC  =      3285.97386439
  PAW double counting   =    112450.69359360  -116141.08389353
  entropy T*S    EENTRO =         0.00000000
  eigenvalues    EBANDS =    -10897.36910319
  atomic energy  EATOM  =    114020.06510763
  Solvation  Ediel_sol  =         0.00000000
  ---------------------------------------------------
  free energy    TOTEN  =      -328.00133846 eV

  energy without entropy =     -328.00133846  energy(sigma->0) =     -328.00133846


--------------------------------------------------------------------------------------------------------




--------------------------------------- Iteration      1(   8)  ---------------------------------------


    POTLOK:  cpu time    0.1314: real time    0.1325
    SETDIJ:  cpu time    0.0129: real time    0.0130
     EDDAV:  cpu time  169.6797: real time  170.8560
 BZINTS: Fermi energy:  4.968999;688.000000 electrons
         Band energy:***********;  BLOECHL correction:  0.000000
       DOS:  cpu time    0.0063: real time    0.0063
    CHARGE:  cpu time    1.3953: real time    1.4051
    MIXING:  cpu time    0.0015: real time    0.0172
    --------------------------------------------
      LOOP:  cpu time  171.2271: real time  172.4302

 eigenvalue-minimisations  : 24064
 total energy-change (2. order) : 0.5991270E-01  (-0.6474186E-01)
 number of electron     688.0000216 magnetization       0.0000000
 augmentation part      282.3039597 magnetization       0.0000000

 Broyden mixing:
  rms(total) = 0.21388E+00    rms(broyden)= 0.21387E+00
  rms(prec ) = 0.24323E+00
  weight for this iteration     100.00

 eigenvalues of (default mixing * dielectric matrix)
  average eigenvalue GAMMA=   1.0401
  1.8428  0.6388  0.6388

 Free energy of the ion-electron system (eV)
  ---------------------------------------------------
  alpha Z        PSCENC =      2357.01039374
  Ewald energy   TEWEN  =    -62482.43853181
  -Hartree energ DENC   =    -42946.03057252
  -exchange      EXHF   =         0.00000000
  -V(xc)+E(xc)   XCENC  =      3286.73100277
  PAW double counting   =    112396.97637026  -116091.28442963
  entropy T*S    EENTRO =         0.00000000
  eigenvalues    EBANDS =    -10868.97076620
  atomic energy  EATOM  =    114020.06510763
  Solvation  Ediel_sol  =         0.00000000
  ---------------------------------------------------
  free energy    TOTEN  =      -327.94142576 eV

  energy without entropy =     -327.94142576  energy(sigma->0) =     -327.94142576


--------------------------------------------------------------------------------------------------------




--------------------------------------- Iteration      1(   9)  ---------------------------------------


    POTLOK:  cpu time    0.1309: real time    0.1318
    SETDIJ:  cpu time    0.0133: real time    0.0133
     EDDAV:  cpu time  163.0768: real time  164.2048
 BZINTS: Fermi energy:  4.952013;688.000000 electrons
         Band energy:***********;  BLOECHL correction:  0.000000
       DOS:  cpu time    0.0064: real time    0.0064
    CHARGE:  cpu time    1.3946: real time    1.4046
    MIXING:  cpu time    0.0013: real time    0.0013
    --------------------------------------------
      LOOP:  cpu time  164.6232: real time  165.7622

 eigenvalue-minimisations  : 23040
 total energy-change (2. order) : 0.9247041E-03  (-0.4482587E-01)
 number of electron     688.0000216 magnetization       0.0000000
 augmentation part      282.1922499 magnetization       0.0000000

 Broyden mixing:
  rms(total) = 0.20360E+00    rms(broyden)= 0.20360E+00
  rms(prec ) = 0.22748E+00
  weight for this iteration     100.00

 eigenvalues of (default mixing * dielectric matrix)
  average eigenvalue GAMMA=   0.8951
  1.9351  0.7353  0.4550  0.4550

 Free energy of the ion-electron system (eV)
  ---------------------------------------------------
  alpha Z        PSCENC =      2357.01039374
  Ewald energy   TEWEN  =    -62482.43853181
  -Hartree energ DENC   =    -42942.66264510
  -exchange      EXHF   =         0.00000000
  -V(xc)+E(xc)   XCENC  =      3286.33418028
  PAW double counting   =    112383.15930618  -116077.38690827
  entropy T*S    EENTRO =         0.00000000
  eigenvalues    EBANDS =    -10872.02140370
  atomic energy  EATOM  =    114020.06510763
  Solvation  Ediel_sol  =         0.00000000
  ---------------------------------------------------
  free energy    TOTEN  =      -327.94050106 eV

  energy without entropy =     -327.94050106  energy(sigma->0) =     -327.94050106


--------------------------------------------------------------------------------------------------------




--------------------------------------- Iteration      1(  10)  ---------------------------------------


    POTLOK:  cpu time    0.1271: real time    0.1321
    SETDIJ:  cpu time    0.0130: real time    0.0131
     EDDAV:  cpu time  120.8914: real time  121.7758
 BZINTS: Fermi energy:  4.960275;688.000000 electrons
         Band energy:***********;  BLOECHL correction:  0.000000
       DOS:  cpu time    0.0065: real time    0.0065
    CHARGE:  cpu time    1.3928: real time    1.4027
    MIXING:  cpu time    0.0014: real time    0.0014
    --------------------------------------------
      LOOP:  cpu time  122.4322: real time  123.3316

 eigenvalue-minimisations  : 19456
 total energy-change (2. order) : 0.9195464E-02  (-0.1265523E-01)
 number of electron     688.0000216 magnetization       0.0000000
 augmentation part      282.1936426 magnetization       0.0000000

 Broyden mixing:
  rms(total) = 0.82885E-01    rms(broyden)= 0.82882E-01
  rms(prec ) = 0.85770E-01
  weight for this iteration     100.00

 eigenvalues of (default mixing * dielectric matrix)
  average eigenvalue GAMMA=   1.0062
  1.7306  1.7306  0.6839  0.5300  0.3558

 Free energy of the ion-electron system (eV)
  ---------------------------------------------------
  alpha Z        PSCENC =      2357.01039374
  Ewald energy   TEWEN  =    -62482.43853181
  -Hartree energ DENC   =    -42946.89512217
  -exchange      EXHF   =         0.00000000
  -V(xc)+E(xc)   XCENC  =      3286.58367900
  PAW double counting   =    112367.86309444  -116062.00204841
  entropy T*S    EENTRO =         0.00000000
  eigenvalues    EBANDS =    -10868.11787800
  atomic energy  EATOM  =    114020.06510763
  Solvation  Ediel_sol  =         0.00000000
  ---------------------------------------------------
  free energy    TOTEN  =      -327.93130559 eV

  energy without entropy =     -327.93130559  energy(sigma->0) =     -327.93130559


--------------------------------------------------------------------------------------------------------




--------------------------------------- Iteration      1(  11)  ---------------------------------------


    POTLOK:  cpu time    0.1282: real time    0.1326
    SETDIJ:  cpu time    0.0128: real time    0.0129
     EDDAV:  cpu time  185.0844: real time  186.3636
 BZINTS: Fermi energy:  4.956767;688.000000 electrons
         Band energy:***********;  BLOECHL correction:  0.000000
       DOS:  cpu time    0.0065: real time    0.0065
    CHARGE:  cpu time    1.5827: real time    1.5932
    MIXING:  cpu time    0.0015: real time    0.0015
    --------------------------------------------
      LOOP:  cpu time  186.8162: real time  188.1103

 eigenvalue-minimisations  : 25856
 total energy-change (2. order) :-0.3097857E-02  (-0.1722305E-02)
 number of electron     688.0000216 magnetization      -0.0000000
 augmentation part      282.2454048 magnetization      -0.0000000

 Broyden mixing:
  rms(total) = 0.37282E-01    rms(broyden)= 0.37282E-01
  rms(prec ) = 0.38192E-01
  weight for this iteration     100.00

 eigenvalues of (default mixing * dielectric matrix)
  average eigenvalue GAMMA=   1.1483
  2.1575  2.1575  0.9866  0.6604  0.5838  0.3438

 Free energy of the ion-electron system (eV)
  ---------------------------------------------------
  alpha Z        PSCENC =      2357.01039374
  Ewald energy   TEWEN  =    -62482.43853181
  -Hartree energ DENC   =    -42943.12328361
  -exchange      EXHF   =         0.00000000
  -V(xc)+E(xc)   XCENC  =      3286.45959447
  PAW double counting   =    112309.75574682  -116003.22243115
  entropy T*S    EENTRO =         0.00000000
  eigenvalues    EBANDS =    -10872.44099954
  atomic energy  EATOM  =    114020.06510763
  Solvation  Ediel_sol  =         0.00000000
  ---------------------------------------------------
  free energy    TOTEN  =      -327.93440345 eV

  energy without entropy =     -327.93440345  energy(sigma->0) =     -327.93440345


--------------------------------------------------------------------------------------------------------




--------------------------------------- Iteration      1(  12)  ---------------------------------------


    POTLOK:  cpu time    0.1410: real time    0.1460
    SETDIJ:  cpu time    0.0154: real time    0.0154
     EDDAV:  cpu time  135.8266: real time  136.7996
 BZINTS: Fermi energy:  4.957887;688.000000 electrons
         Band energy:***********;  BLOECHL correction:  0.000000
       DOS:  cpu time    0.0064: real time    0.0065
    CHARGE:  cpu time    1.4126: real time    1.4224
    MIXING:  cpu time    0.0025: real time    0.0025
    --------------------------------------------
      LOOP:  cpu time  137.4045: real time  138.3924

 eigenvalue-minimisations  : 20736
 total energy-change (2. order) :-0.1714599E-02  (-0.6071946E-03)
 number of electron     688.0000216 magnetization       0.0000000
 augmentation part      282.2114149 magnetization       0.0000000

 Broyden mixing:
  rms(total) = 0.15621E-01    rms(broyden)= 0.15621E-01
  rms(prec ) = 0.16492E-01
  weight for this iteration     100.00

 eigenvalues of (default mixing * dielectric matrix)
  average eigenvalue GAMMA=   1.1186
  2.2603  2.2603  1.0647  0.6810  0.6109  0.6109  0.3419

 Free energy of the ion-electron system (eV)
  ---------------------------------------------------
  alpha Z        PSCENC =      2357.01039374
  Ewald energy   TEWEN  =    -62482.43853181
  -Hartree energ DENC   =    -42945.50406330
  -exchange      EXHF   =         0.00000000
  -V(xc)+E(xc)   XCENC  =      3286.52186064
  PAW double counting   =    112276.34491668  -115970.21746365
  entropy T*S    EENTRO =         0.00000000
  eigenvalues    EBANDS =    -10869.71833797
  atomic energy  EATOM  =    114020.06510763
  Solvation  Ediel_sol  =         0.00000000
  ---------------------------------------------------
  free energy    TOTEN  =      -327.93611805 eV

  energy without entropy =     -327.93611805  energy(sigma->0) =     -327.93611805


--------------------------------------------------------------------------------------------------------




--------------------------------------- Iteration      1(  13)  ---------------------------------------


    POTLOK:  cpu time    0.1401: real time    0.1411
    SETDIJ:  cpu time    0.0144: real time    0.0144
     EDDAV:  cpu time  149.6569: real time  150.7051
 BZINTS: Fermi energy:  4.957184;688.000000 electrons
         Band energy:***********;  BLOECHL correction:  0.000000
       DOS:  cpu time    0.0064: real time    0.0065
    CHARGE:  cpu time    1.3994: real time    1.4090
    MIXING:  cpu time    0.0017: real time    0.0017
    --------------------------------------------
      LOOP:  cpu time  151.2189: real time  152.2779

 eigenvalue-minimisations  : 21504
 total energy-change (2. order) :-0.2686096E-03  (-0.8063907E-04)
 number of electron     688.0000216 magnetization      -0.0000000
 augmentation part      282.2261937 magnetization      -0.0000000

 Broyden mixing:
  rms(total) = 0.81061E-02    rms(broyden)= 0.81058E-02
  rms(prec ) = 0.86341E-02
  weight for this iteration     100.00

 eigenvalues of (default mixing * dielectric matrix)
  average eigenvalue GAMMA=   1.1031
  2.2764  2.2764  1.0326  1.0326  0.3413  0.5974  0.5974  0.6708

 Free energy of the ion-electron system (eV)
  ---------------------------------------------------
  alpha Z        PSCENC =      2357.01039374
  Ewald energy   TEWEN  =    -62482.43853181
  -Hartree energ DENC   =    -42944.41489809
  -exchange      EXHF   =         0.00000000
  -V(xc)+E(xc)   XCENC  =      3286.49559383
  PAW double counting   =    112266.41875852  -115960.08631559
  entropy T*S    EENTRO =         0.00000000
  eigenvalues    EBANDS =    -10870.98649488
  atomic energy  EATOM  =    114020.06510763
  Solvation  Ediel_sol  =         0.00000000
  ---------------------------------------------------
  free energy    TOTEN  =      -327.93638666 eV

  energy without entropy =     -327.93638666  energy(sigma->0) =     -327.93638666


--------------------------------------------------------------------------------------------------------




--------------------------------------- Iteration      1(  14)  ---------------------------------------


    POTLOK:  cpu time    0.1279: real time    0.1317
    SETDIJ:  cpu time    0.0129: real time    0.0129
     EDDAV:  cpu time  134.0769: real time  135.0327
 BZINTS: Fermi energy:  4.957260;688.000000 electrons
         Band energy:***********;  BLOECHL correction:  0.000000
       DOS:  cpu time    0.0065: real time    0.0066
    CHARGE:  cpu time    1.4019: real time    1.4115
    MIXING:  cpu time    0.0017: real time    0.0017
    --------------------------------------------
      LOOP:  cpu time  135.6278: real time  136.5971

 eigenvalue-minimisations  : 20224
 total energy-change (2. order) :-0.1528630E-03  (-0.3688863E-04)
 number of electron     688.0000216 magnetization      -0.0000000
 augmentation part      282.2243457 magnetization      -0.0000000

 Broyden mixing:
  rms(total) = 0.47106E-02    rms(broyden)= 0.47104E-02
  rms(prec ) = 0.49150E-02
  weight for this iteration     100.00

 eigenvalues of (default mixing * dielectric matrix)
  average eigenvalue GAMMA=   1.1961
  2.4322  2.4322  1.4841  1.4841  0.3414  0.7353  0.5938  0.5938  0.6680

 Free energy of the ion-electron system (eV)
  ---------------------------------------------------
  alpha Z        PSCENC =      2357.01039374
  Ewald energy   TEWEN  =    -62482.43853181
  -Hartree energ DENC   =    -42944.58906957
  -exchange      EXHF   =         0.00000000
  -V(xc)+E(xc)   XCENC  =      3286.50073307
  PAW double counting   =    112263.09225888  -115956.81651544
  entropy T*S    EENTRO =         0.00000000
  eigenvalues    EBANDS =    -10870.76091602
  atomic energy  EATOM  =    114020.06510763
  Solvation  Ediel_sol  =         0.00000000
  ---------------------------------------------------
  free energy    TOTEN  =      -327.93653952 eV

  energy without entropy =     -327.93653952  energy(sigma->0) =     -327.93653952


--------------------------------------------------------------------------------------------------------




--------------------------------------- Iteration      1(  15)  ---------------------------------------


    POTLOK:  cpu time    0.1291: real time    0.1301
    SETDIJ:  cpu time    0.0129: real time    0.0130
     EDDAV:  cpu time  141.9030: real time  142.9055
 BZINTS: Fermi energy:  4.957250;688.000000 electrons
         Band energy:***********;  BLOECHL correction:  0.000000
       DOS:  cpu time    0.0065: real time    0.0065
    CHARGE:  cpu time    1.3962: real time    1.4060
    MIXING:  cpu time    0.0019: real time    0.0019
    --------------------------------------------
      LOOP:  cpu time  143.4496: real time  144.4630

 eigenvalue-minimisations  : 20992
 total energy-change (2. order) :-0.9680010E-04  (-0.2990062E-04)
 number of electron     688.0000216 magnetization       0.0000000
 augmentation part      282.2234359 magnetization       0.0000000

 Broyden mixing:
  rms(total) = 0.22903E-02    rms(broyden)= 0.22900E-02
  rms(prec ) = 0.24293E-02
  weight for this iteration     100.00

 eigenvalues of (default mixing * dielectric matrix)
  average eigenvalue GAMMA=   1.2222
  2.8400  2.3089  1.9021  1.1526  1.1526  0.3414  0.5969  0.5969  0.7033  0.6270

 Free energy of the ion-electron system (eV)
  ---------------------------------------------------
  alpha Z        PSCENC =      2357.01039374
  Ewald energy   TEWEN  =    -62482.43853181
  -Hartree energ DENC   =    -42944.59467004
  -exchange      EXHF   =         0.00000000
  -V(xc)+E(xc)   XCENC  =      3286.50023870
  PAW double counting   =    112261.12819466  -115954.86295710
  entropy T*S    EENTRO =         0.00000000
  eigenvalues    EBANDS =    -10870.74441210
  atomic energy  EATOM  =    114020.06510763
  Solvation  Ediel_sol  =         0.00000000
  ---------------------------------------------------
  free energy    TOTEN  =      -327.93663632 eV

  energy without entropy =     -327.93663632  energy(sigma->0) =     -327.93663632


--------------------------------------------------------------------------------------------------------




--------------------------------------- Iteration      1(  16)  ---------------------------------------


    POTLOK:  cpu time    0.1292: real time    0.1315
    SETDIJ:  cpu time    0.0130: real time    0.0131
     EDDAV:  cpu time  126.3930: real time  127.3111
 BZINTS: Fermi energy:  4.957232;688.000000 electrons
         Band energy:***********;  BLOECHL correction:  0.000000
       DOS:  cpu time    0.0064: real time    0.0064
    CHARGE:  cpu time    1.3982: real time    1.4080
    MIXING:  cpu time    0.0019: real time    0.0152
    --------------------------------------------
      LOOP:  cpu time  127.9417: real time  128.8853

 eigenvalue-minimisations  : 19456
 total energy-change (2. order) :-0.2588890E-04  (-0.6826074E-05)
 number of electron     688.0000216 magnetization       0.0000000
 augmentation part      282.2250375 magnetization       0.0000000

 Broyden mixing:
  rms(total) = 0.15468E-02    rms(broyden)= 0.15467E-02
  rms(prec ) = 0.16338E-02
  weight for this iteration     100.00

 eigenvalues of (default mixing * dielectric matrix)
  average eigenvalue GAMMA=   1.3240
  3.3220  2.2337  2.2337  1.4989  1.4989  0.9222  0.3414  0.5955  0.5955  0.7022
  0.6203

 Free energy of the ion-electron system (eV)
  ---------------------------------------------------
  alpha Z        PSCENC =      2357.01039374
  Ewald energy   TEWEN  =    -62482.43853181
  -Hartree energ DENC   =    -42944.52562161
  -exchange      EXHF   =         0.00000000
  -V(xc)+E(xc)   XCENC  =      3286.49971670
  PAW double counting   =    112260.41977120  -115954.14567294
  entropy T*S    EENTRO =         0.00000000
  eigenvalues    EBANDS =    -10870.82182512
  atomic energy  EATOM  =    114020.06510763
  Solvation  Ediel_sol  =         0.00000000
  ---------------------------------------------------
  free energy    TOTEN  =      -327.93666221 eV

  energy without entropy =     -327.93666221  energy(sigma->0) =     -327.93666221


--------------------------------------------------------------------------------------------------------




--------------------------------------- Iteration      1(  17)  ---------------------------------------


    POTLOK:  cpu time    0.1433: real time    0.1449
    SETDIJ:  cpu time    0.0159: real time    0.0160
     EDDAV:  cpu time  131.4356: real time  132.3721
 BZINTS: Fermi energy:  4.957230;688.000000 electrons
         Band energy:***********;  BLOECHL correction:  0.000000
       DOS:  cpu time    0.0066: real time    0.0067
    CHARGE:  cpu time    1.4000: real time    1.4099
    MIXING:  cpu time    0.0019: real time    0.0019
    --------------------------------------------
      LOOP:  cpu time  133.0034: real time  133.9514

 eigenvalue-minimisations  : 19968
 total energy-change (2. order) :-0.1665417E-04  (-0.9848807E-05)
 number of electron     688.0000216 magnetization       0.0000000
 augmentation part      282.2245807 magnetization       0.0000000

 Broyden mixing:
  rms(total) = 0.67335E-03    rms(broyden)= 0.67298E-03
  rms(prec ) = 0.71203E-03
  weight for this iteration     100.00

 eigenvalues of (default mixing * dielectric matrix)
  average eigenvalue GAMMA=   1.3793
  4.0657  2.3786  2.3786  1.5963  1.5963  0.9789  0.3414  0.5969  0.5969  0.7170
  0.6855  0.6193

 Free energy of the ion-electron system (eV)
  ---------------------------------------------------
  alpha Z        PSCENC =      2357.01039374
  Ewald energy   TEWEN  =    -62482.43853181
  -Hartree energ DENC   =    -42944.55389650
  -exchange      EXHF   =         0.00000000
  -V(xc)+E(xc)   XCENC  =      3286.50058019
  PAW double counting   =    112260.35460328  -115954.08886362
  entropy T*S    EENTRO =         0.00000000
  eigenvalues    EBANDS =    -10870.78607177
  atomic energy  EATOM  =    114020.06510763
  Solvation  Ediel_sol  =         0.00000000
  ---------------------------------------------------
  free energy    TOTEN  =      -327.93667886 eV

  energy without entropy =     -327.93667886  energy(sigma->0) =     -327.93667886


--------------------------------------------------------------------------------------------------------




--------------------------------------- Iteration      1(  18)  ---------------------------------------


    POTLOK:  cpu time    0.1287: real time    0.1322
    SETDIJ:  cpu time    0.0129: real time    0.0129
     EDDAV:  cpu time  126.4424: real time  127.3513
 BZINTS: Fermi energy:  4.957206;688.000000 electrons
         Band energy:***********;  BLOECHL correction:  0.000000
       DOS:  cpu time    0.0065: real time    0.0065
    CHARGE:  cpu time    1.3986: real time    1.4083
    MIXING:  cpu time    0.0020: real time    0.0020
    --------------------------------------------
      LOOP:  cpu time  127.9910: real time  128.9133

 eigenvalue-minimisations  : 19456
 total energy-change (2. order) :-0.2015135E-05  (-0.1298262E-05)
 number of electron     688.0000216 magnetization       0.0000000
 augmentation part      282.2246781 magnetization       0.0000000

 Broyden mixing:
  rms(total) = 0.43423E-03    rms(broyden)= 0.43410E-03
  rms(prec ) = 0.45096E-03
  weight for this iteration     100.00

 eigenvalues of (default mixing * dielectric matrix)
  average eigenvalue GAMMA=   1.3472
  4.2308  2.4224  2.4224  1.7300  1.3771  1.0634  0.3414  0.7500  0.7500  0.5956
  0.5956  0.6172  0.6172

 Free energy of the ion-electron system (eV)
  ---------------------------------------------------
  alpha Z        PSCENC =      2357.01039374
  Ewald energy   TEWEN  =    -62482.43853181
  -Hartree energ DENC   =    -42944.53938343
  -exchange      EXHF   =         0.00000000
  -V(xc)+E(xc)   XCENC  =      3286.50005118
  PAW double counting   =    112260.61165876  -115954.34397428
  entropy T*S    EENTRO =         0.00000000
  eigenvalues    EBANDS =    -10870.80200267
  atomic energy  EATOM  =    114020.06510763
  Solvation  Ediel_sol  =         0.00000000
  ---------------------------------------------------
  free energy    TOTEN  =      -327.93668088 eV

  energy without entropy =     -327.93668088  energy(sigma->0) =     -327.93668088


--------------------------------------------------------------------------------------------------------




--------------------------------------- Iteration      1(  19)  ---------------------------------------


    POTLOK:  cpu time    0.1321: real time    0.1331
    SETDIJ:  cpu time    0.0128: real time    0.0128
     EDDAV:  cpu time  126.7000: real time  127.6178
 BZINTS: Fermi energy:  4.957200;688.000000 electrons
         Band energy:***********;  BLOECHL correction:  0.000000
       DOS:  cpu time    0.0065: real time    0.0066
    CHARGE:  cpu time    1.3978: real time    1.4078
    MIXING:  cpu time    0.0019: real time    0.0019
    --------------------------------------------
      LOOP:  cpu time  128.2512: real time  129.1800

 eigenvalue-minimisations  : 19456
 total energy-change (2. order) :-0.1105800E-06  (-0.5755199E-07)
 number of electron     688.0000216 magnetization       0.0000000
 augmentation part      282.2246028 magnetization       0.0000000

 Broyden mixing:
[...]
   -.419E+02 0.146E+02 -.144E+01   0.428E+02 -.147E+02 0.145E+01   -.853E+00 0.940E-01 -.180E-01   0.603E-05 -.942E-06 0.283E-05
   -.419E+02 0.146E+02 -.144E+01   0.428E+02 -.147E+02 0.145E+01   -.853E+00 0.940E-01 -.180E-01   0.605E-05 -.942E-06 0.283E-05
   -.419E+02 0.146E+02 -.144E+01   0.428E+02 -.147E+02 0.145E+01   -.853E+00 0.940E-01 -.180E-01   0.603E-05 -.925E-06 0.283E-05
   -.419E+02 0.146E+02 -.144E+01   0.428E+02 -.147E+02 0.145E+01   -.853E+00 0.940E-01 -.180E-01   0.605E-05 -.925E-06 0.283E-05
   0.419E+02 0.146E+02 0.144E+01   -.428E+02 -.147E+02 -.145E+01   0.853E+00 0.940E-01 0.180E-01   -.604E-05 -.934E-06 -.283E-05
   0.419E+02 0.146E+02 0.144E+01   -.428E+02 -.147E+02 -.145E+01   0.853E+00 0.940E-01 0.180E-01   -.604E-05 -.934E-06 -.283E-05
   0.419E+02 0.146E+02 0.144E+01   -.428E+02 -.147E+02 -.145E+01   0.853E+00 0.940E-01 0.180E-01   -.604E-05 -.933E-06 -.283E-05
   0.419E+02 0.146E+02 0.144E+01   -.428E+02 -.147E+02 -.145E+01   0.853E+00 0.940E-01 0.180E-01   -.604E-05 -.933E-06 -.283E-05
   0.187E-07 -.310E+02 -.902E-07   0.107E-13 0.318E+02 -.355E-13   0.275E-24 -.770E+00 0.827E-24   0.156E-09 0.602E-05 0.180E-08
   0.187E-07 -.310E+02 -.902E-07   0.391E-13 0.318E+02 -.382E-13   -.242E-24 -.770E+00 -.258E-24   -.195E-09 0.602E-05 -.180E-08
   0.187E-07 -.310E+02 -.902E-07   0.000E+00 0.318E+02 -.426E-13   -.355E-24 -.770E+00 -.931E-24   0.155E-09 0.603E-05 0.180E-08
   0.187E-07 -.310E+02 -.902E-07   0.568E-13 0.318E+02 -.746E-13   0.433E-24 -.770E+00 0.672E-24   -.195E-09 0.603E-05 -.180E-08
   -.258E-08 0.535E+02 0.187E-06   0.284E-13 -.544E+02 0.950E-13   -.525E-25 0.953E+00 -.258E-25   -.838E-08 -.904E-06 0.168E-09
   -.258E-08 0.535E+02 0.187E-06   -.711E-14 -.544E+02 0.959E-13   -.412E-25 0.953E+00 -.155E-24   0.841E-08 -.904E-06 -.170E-09
   -.258E-08 0.535E+02 0.187E-06   0.355E-13 -.544E+02 0.114E-12   -.125E-25 0.953E+00 -.155E-24   -.838E-08 -.904E-06 0.168E-09
   -.258E-08 0.535E+02 0.187E-06   0.000E+00 -.544E+02 0.142E-12   -.137E-25 0.953E+00 -.414E-24   0.841E-08 -.904E-06 -.170E-09
   0.306E+01 -.137E+02 0.705E+00   -.302E+01 0.131E+02 -.717E+00   -.383E-01 0.555E+00 0.989E-02   0.463E-05 -.170E-04 -.157E-05
   0.306E+01 -.137E+02 0.705E+00   -.302E+01 0.131E+02 -.717E+00   -.383E-01 0.555E+00 0.989E-02   0.466E-05 -.170E-04 -.157E-05
   0.306E+01 -.137E+02 0.705E+00   -.302E+01 0.131E+02 -.717E+00   -.383E-01 0.555E+00 0.989E-02   0.463E-05 -.170E-04 -.158E-05
   0.306E+01 -.137E+02 0.705E+00   -.302E+01 0.131E+02 -.717E+00   -.383E-01 0.555E+00 0.989E-02   0.466E-05 -.170E-04 -.157E-05
   -.306E+01 -.137E+02 -.705E+00   0.302E+01 0.131E+02 0.717E+00   0.383E-01 0.555E+00 -.989E-02   -.467E-05 -.170E-04 0.157E-05
   -.306E+01 -.137E+02 -.705E+00   0.302E+01 0.131E+02 0.717E+00   0.383E-01 0.555E+00 -.989E-02   -.463E-05 -.170E-04 0.157E-05
   -.306E+01 -.137E+02 -.705E+00   0.302E+01 0.131E+02 0.717E+00   0.383E-01 0.555E+00 -.989E-02   -.467E-05 -.170E-04 0.158E-05
   -.306E+01 -.137E+02 -.705E+00   0.302E+01 0.131E+02 0.717E+00   0.383E-01 0.555E+00 -.989E-02   -.463E-05 -.170E-04 0.157E-05
   0.306E+01 -.137E+02 0.705E+00   -.302E+01 0.131E+02 -.717E+00   -.383E-01 0.555E+00 0.989E-02   0.462E-05 -.170E-04 -.157E-05
   0.306E+01 -.137E+02 0.705E+00   -.302E+01 0.131E+02 -.717E+00   -.383E-01 0.555E+00 0.989E-02   0.467E-05 -.170E-04 -.157E-05
   0.306E+01 -.137E+02 0.705E+00   -.302E+01 0.131E+02 -.717E+00   -.383E-01 0.555E+00 0.989E-02   0.462E-05 -.170E-04 -.158E-05
   0.306E+01 -.137E+02 0.705E+00   -.302E+01 0.131E+02 -.717E+00   -.383E-01 0.555E+00 0.989E-02   0.467E-05 -.170E-04 -.157E-05
   -.306E+01 -.137E+02 -.705E+00   0.302E+01 0.131E+02 0.717E+00   0.383E-01 0.555E+00 -.989E-02   -.466E-05 -.170E-04 0.157E-05
   -.306E+01 -.137E+02 -.705E+00   0.302E+01 0.131E+02 0.717E+00   0.383E-01 0.555E+00 -.989E-02   -.463E-05 -.170E-04 0.157E-05
   -.306E+01 -.137E+02 -.705E+00   0.302E+01 0.131E+02 0.717E+00   0.383E-01 0.555E+00 -.989E-02   -.466E-05 -.170E-04 0.158E-05
   -.306E+01 -.137E+02 -.705E+00   0.302E+01 0.131E+02 0.717E+00   0.383E-01 0.555E+00 -.989E-02   -.463E-05 -.170E-04 0.157E-05
   -.367E+01 -.136E+02 0.826E+00   0.360E+01 0.129E+02 -.848E+00   0.735E-01 0.733E+00 0.177E-01   0.785E-05 -.470E-06 0.346E-05
   -.367E+01 -.136E+02 0.826E+00   0.360E+01 0.129E+02 -.848E+00   0.735E-01 0.733E+00 0.177E-01   0.788E-05 -.469E-06 0.345E-05
   -.367E+01 -.136E+02 0.826E+00   0.360E+01 0.129E+02 -.848E+00   0.735E-01 0.733E+00 0.177E-01   0.785E-05 -.435E-06 0.346E-05
   -.367E+01 -.136E+02 0.826E+00   0.360E+01 0.129E+02 -.848E+00   0.735E-01 0.733E+00 0.177E-01   0.788E-05 -.435E-06 0.346E-05
   0.367E+01 -.136E+02 -.826E+00   -.360E+01 0.129E+02 0.848E+00   -.735E-01 0.733E+00 -.177E-01   -.788E-05 -.469E-06 -.346E-05
   0.367E+01 -.136E+02 -.826E+00   -.360E+01 0.129E+02 0.848E+00   -.735E-01 0.733E+00 -.177E-01   -.785E-05 -.469E-06 -.345E-05
   0.367E+01 -.136E+02 -.826E+00   -.360E+01 0.129E+02 0.848E+00   -.735E-01 0.733E+00 -.177E-01   -.788E-05 -.435E-06 -.346E-05
   0.367E+01 -.136E+02 -.826E+00   -.360E+01 0.129E+02 0.848E+00   -.735E-01 0.733E+00 -.177E-01   -.785E-05 -.435E-06 -.346E-05
   -.367E+01 -.136E+02 0.826E+00   0.360E+01 0.129E+02 -.848E+00   0.735E-01 0.733E+00 0.177E-01   0.786E-05 -.465E-06 0.346E-05
   -.367E+01 -.136E+02 0.826E+00   0.360E+01 0.129E+02 -.848E+00   0.735E-01 0.733E+00 0.177E-01   0.788E-05 -.465E-06 0.345E-05
   -.367E+01 -.136E+02 0.826E+00   0.360E+01 0.129E+02 -.848E+00   0.735E-01 0.733E+00 0.177E-01   0.786E-05 -.440E-06 0.346E-05
   -.367E+01 -.136E+02 0.826E+00   0.360E+01 0.129E+02 -.848E+00   0.735E-01 0.733E+00 0.177E-01   0.788E-05 -.440E-06 0.346E-05
   0.367E+01 -.136E+02 -.826E+00   -.360E+01 0.129E+02 0.848E+00   -.735E-01 0.733E+00 -.177E-01   -.788E-05 -.465E-06 -.346E-05
   0.367E+01 -.136E+02 -.826E+00   -.360E+01 0.129E+02 0.848E+00   -.735E-01 0.733E+00 -.177E-01   -.785E-05 -.465E-06 -.345E-05
   0.367E+01 -.136E+02 -.826E+00   -.360E+01 0.129E+02 0.848E+00   -.735E-01 0.733E+00 -.177E-01   -.788E-05 -.440E-06 -.346E-05
   0.367E+01 -.136E+02 -.826E+00   -.360E+01 0.129E+02 0.848E+00   -.735E-01 0.733E+00 -.177E-01   -.785E-05 -.440E-06 -.346E-05
 -----------------------------------------------------------------------------------------------
   0.391E-06 -.236E+02 0.130E-03   -.311E-13 0.615E-12 0.123E-12   -.444E-15 0.236E+02 0.520E-16   0.116E-11 -.253E-03 -.170E-11
 
 
 POSITION                                       TOTAL-FORCE (eV/Angst)
 -----------------------------------------------------------------------------------
      1.35411      1.28740      1.33262        -0.000123     -0.001841      0.000604
      6.61015      1.28740      1.44272        -0.000123     -0.001841      0.000604
      1.35411      6.54680      1.33262        -0.000123     -0.001841      0.000604
      6.61015      6.54680      1.44272        -0.000123     -0.001841      0.000604
      3.95644      3.91710      1.37924         0.000123     -0.001841     -0.000604
      9.21248      3.91710      1.48934         0.000123     -0.001841     -0.000604
      3.95644      9.17650      1.37924         0.000123     -0.001841     -0.000604
      9.21248      9.17650      1.48934         0.000123     -0.001841     -0.000604
      1.50476      3.91383      9.13369         0.000000     -0.001307     -0.000000
      6.76081      3.91383      9.24379         0.000000     -0.001307     -0.000000
      1.50476      9.17323      9.13369         0.000000     -0.001307     -0.000000
      6.76081      9.17323      9.24379         0.000000     -0.001307     -0.000000
      4.13278      1.30672      9.18874         0.000000      0.000534     -0.000000
      9.38883      1.30672      9.29884         0.000000      0.000534     -0.000000
      4.13278      6.56612      9.18874         0.000000      0.000534     -0.000000
      9.38883      6.56612      9.29884         0.000000      0.000534     -0.000000
      1.43742      1.28740      6.52772         0.000123     -0.001841     -0.000604
      6.69346      1.28740      6.63782         0.000123     -0.001841     -0.000604
      1.43742      6.54680      6.52772         0.000123     -0.001841     -0.000604
      6.69346      6.54680      6.63782         0.000123     -0.001841     -0.000604
      4.09113      3.91710      6.59119        -0.000123     -0.001841      0.000604
      9.34717      3.91710      6.70129        -0.000123     -0.001841      0.000604
      4.09113      9.17650      6.59119        -0.000123     -0.001841      0.000604
      9.34717      9.17650      6.70129        -0.000123     -0.001841      0.000604
      4.02378      1.28412      3.98522         0.000000     -0.001307     -0.000000
      9.27983      1.28412      4.09532         0.000000     -0.001307     -0.000000
      4.02378      6.54353      3.98522         0.000000     -0.001307     -0.000000
      9.27983      6.54353      4.09532         0.000000     -0.001307     -0.000000
      1.39576      3.93642      3.93017         0.000000      0.000534     -0.000000
      6.65181      3.93642      4.04027         0.000000      0.000534     -0.000000
      1.39576      9.19582      3.93017         0.000000      0.000534     -0.000000
      6.65181      9.19582      4.04027         0.000000      0.000534     -0.000000
     10.61300      0.02420      5.42362        -0.000755      0.000345     -0.002556
      5.35695      0.02420      5.31352        -0.000755      0.000345     -0.002556
     10.61300      5.28360      5.42362        -0.000755      0.000345     -0.002556
      5.35695      5.28360      5.31352        -0.000755      0.000345     -0.002556
      2.69061      0.02420      2.65692         0.000755      0.000345      0.002556
      7.94666      0.02420      2.76702         0.000755      0.000345      0.002556
      2.69061      5.28360      2.65692         0.000755      0.000345      0.002556
      7.94666      5.28360      2.76702         0.000755      0.000345      0.002556
      2.61993      2.65390      0.05494        -0.000755      0.000345     -0.002556
      7.87597      2.65390      0.16504        -0.000755      0.000345     -0.002556
      2.61993      7.91331      0.05494        -0.000755      0.000345     -0.002556
      7.87597      7.91331      0.16504        -0.000755      0.000345     -0.002556
      0.17159      2.65390      7.80539         0.000755      0.000345      0.002556
      5.42764      2.65390      7.91549         0.000755      0.000345      0.002556
      0.17159      7.91331      7.80539         0.000755      0.000345      0.002556
      5.42764      7.91331      7.91549         0.000755      0.000345      0.002556
     10.50768      0.02268      0.22168         0.000379      0.001883     -0.003994
      5.25164      0.02268      0.11158         0.000379      0.001883     -0.003994
     10.50768      5.28208      0.22168         0.000379      0.001883     -0.003994
      5.25164      5.28208      0.11158         0.000379      0.001883     -0.003994
      2.79593      0.02268      7.85886        -0.000379      0.001883      0.003994
      8.05197      0.02268      7.96896        -0.000379      0.001883      0.003994
      2.79593      5.28208      7.85886        -0.000379      0.001883      0.003994
      8.05197      5.28208      7.96896        -0.000379      0.001883      0.003994
      2.73262      2.65238      5.26005         0.000379      0.001883     -0.003994
      7.98866      2.65238      5.37015         0.000379      0.001883     -0.003994
      2.73262      7.91178      5.26005         0.000379      0.001883     -0.003994
      7.98866      7.91178      5.37015         0.000379      0.001883     -0.003994
      0.05890      2.65238      2.60028        -0.000379      0.001883      0.003994
      5.31495      2.65238      2.71038        -0.000379      0.001883      0.003994
      0.05890      7.91178      2.60028        -0.000379      0.001883      0.003994
      5.31495      7.91178      2.71038        -0.000379      0.001883      0.003994
 -----------------------------------------------------------------------------------
    total drift:                                0.000000     -0.008473      0.000130


--------------------------------------------------------------------------------------------------------



  FREE ENERGIE OF THE ION-ELECTRON SYSTEM (eV)
  ---------------------------------------------------
  free  energy   TOTEN  =      -327.93668113 eV

  energy  without entropy=     -327.93668113  energy(sigma->0) =     -327.93668113
 


--------------------------------------------------------------------------------------------------------


    POTLOK:  cpu time    0.1420: real time    0.1427


--------------------------------------------------------------------------------------------------------


 writing wavefunctions
     LOOP+:  cpu time 3487.7854: real time 3512.9463
    4ORBIT:  cpu time    0.0000: real time    0.0000
 


 total charge     
 
# of ion       s       p       d       tot
------------------------------------------
    1        1.314   2.410   0.000   3.723
    2        1.314   2.410   0.000   3.723
    3        1.314   2.410   0.000   3.723
    4        1.314   2.410   0.000   3.723
    5        1.314   2.410   0.000   3.723
    6        1.314   2.410   0.000   3.723
    7        1.314   2.410   0.000   3.723
    8        1.314   2.410   0.000   3.723
    9        1.314   2.407   0.000   3.722
   10        1.314   2.407   0.000   3.722
   11        1.314   2.407   0.000   3.722
   12        1.314   2.407   0.000   3.722
   13        1.313   2.412   0.000   3.725
   14        1.313   2.412   0.000   3.725
   15        1.313   2.412   0.000   3.725
   16        1.313   2.412   0.000   3.725
   17        1.314   2.410   0.000   3.723
   18        1.314   2.410   0.000   3.723
   19        1.314   2.410   0.000   3.723
   20        1.314   2.410   0.000   3.723
   21        1.314   2.410   0.000   3.723
   22        1.314   2.410   0.000   3.723
   23        1.314   2.410   0.000   3.723
   24        1.314   2.410   0.000   3.723
   25        1.314   2.407   0.000   3.722
   26        1.314   2.407   0.000   3.722
   27        1.314   2.407   0.000   3.722
   28        1.314   2.407   0.000   3.722
   29        1.313   2.412   0.000   3.725
   30        1.313   2.412   0.000   3.725
   31        1.313   2.412   0.000   3.725
   32        1.313   2.412   0.000   3.725
   33        0.259   6.202   8.917  15.378
   34        0.259   6.202   8.917  15.378
   35        0.259   6.202   8.917  15.378
   36        0.259   6.202   8.917  15.378
   37        0.259   6.202   8.917  15.378
   38        0.259   6.202   8.917  15.378
   39        0.259   6.202   8.917  15.378
   40        0.259   6.202   8.917  15.378
   41        0.259   6.202   8.917  15.378
   42        0.259   6.202   8.917  15.378
   43        0.259   6.202   8.917  15.378
   44        0.259   6.202   8.917  15.378
   45        0.259   6.202   8.917  15.378
   46        0.259   6.202   8.917  15.378
   47        0.259   6.202   8.917  15.378
   48        0.259   6.202   8.917  15.378
   49        0.350   6.350   5.820  12.521
   50        0.350   6.350   5.820  12.521
   51        0.350   6.350   5.820  12.521
   52        0.350   6.350   5.820  12.521
   53        0.350   6.350   5.820  12.521
   54        0.350   6.350   5.820  12.521
   55        0.350   6.350   5.820  12.521
   56        0.350   6.350   5.820  12.521
   57        0.350   6.350   5.820  12.521
   58        0.350   6.350   5.820  12.521
   59        0.350   6.350   5.820  12.521
   60        0.350   6.350   5.820  12.521
   61        0.350   6.350   5.820  12.521
   62        0.350   6.350   5.820  12.521
   63        0.350   6.350   5.820  12.521
   64        0.350   6.350   5.820  12.521
--------------------------------------------------
tot         51.786 277.947 235.791 565.524
 


 magnetization (x)
 
# of ion       s       p       d       tot
------------------------------------------
    1       -0.000  -0.010   0.000  -0.010
    2       -0.000  -0.010   0.000  -0.010
    3       -0.000  -0.010   0.000  -0.010
    4       -0.000  -0.010   0.000  -0.010
    5        0.000   0.010   0.000   0.010
    6        0.000   0.010   0.000   0.010
    7        0.000   0.010   0.000   0.010
    8        0.000   0.010   0.000   0.010
    9        0.000  -0.000   0.000  -0.000
   10       -0.000  -0.000   0.000  -0.000
   11        0.000  -0.000   0.000  -0.000
   12       -0.000  -0.000   0.000  -0.000
   13        0.000   0.000   0.000   0.000
   14       -0.000   0.000   0.000   0.000
   15       -0.000   0.000   0.000   0.000
   16       -0.000   0.000   0.000   0.000
   17        0.000   0.010   0.000   0.010
   18        0.000   0.010   0.000   0.010
   19        0.000   0.010   0.000   0.010
   20        0.000   0.010   0.000   0.010
   21       -0.000  -0.010   0.000  -0.010
   22       -0.000  -0.010   0.000  -0.010
   23       -0.000  -0.010   0.000  -0.010
   24       -0.000  -0.010   0.000  -0.010
   25        0.000  -0.000   0.000  -0.000
   26        0.000  -0.000   0.000  -0.000
   27        0.000  -0.000   0.000  -0.000
   28        0.000  -0.000   0.000  -0.000
   29       -0.000   0.000   0.000   0.000
   30        0.000   0.000   0.000   0.000
   31       -0.000   0.000   0.000   0.000
   32        0.000   0.000   0.000   0.000
   33        0.000   0.001  -0.001  -0.000
   34        0.000   0.001  -0.001  -0.000
   35        0.000   0.001  -0.001  -0.000
   36        0.000   0.001  -0.001  -0.000
   37       -0.000  -0.001   0.001   0.000
   38       -0.000  -0.001   0.001   0.000
   39       -0.000  -0.001   0.001   0.000
   40       -0.000  -0.001   0.001   0.000
   41        0.000   0.001  -0.001  -0.000
   42        0.000   0.001  -0.001  -0.000
   43        0.000   0.001  -0.001  -0.000
   44        0.000   0.001  -0.001  -0.000
   45       -0.000  -0.001   0.001   0.000
   46       -0.000  -0.001   0.001   0.000
   47       -0.000  -0.001   0.001   0.000
   48       -0.000  -0.001   0.001   0.000
   49        0.020   0.054   3.670   3.743
   50        0.020   0.054   3.670   3.743
   51        0.020   0.054   3.670   3.743
   52        0.020   0.054   3.670   3.743
   53       -0.020  -0.054  -3.670  -3.743
   54       -0.020  -0.054  -3.670  -3.743
   55       -0.020  -0.054  -3.670  -3.743
   56       -0.020  -0.054  -3.670  -3.743
   57        0.020   0.054   3.670   3.743
   58        0.020   0.054   3.670   3.743
   59        0.020   0.054   3.670   3.743
   60        0.020   0.054   3.670   3.743
   61       -0.020  -0.054  -3.670  -3.743
   62       -0.020  -0.054  -3.670  -3.743
   63       -0.020  -0.054  -3.670  -3.743
   64       -0.020  -0.054  -3.670  -3.743
--------------------------------------------------
tot          0.000   0.000   0.000   0.000
 
 BZINTS: Fermi energy:  4.957194;688.000000 electrons
         Band energy:***********;  BLOECHL correction:  0.000000

 total amount of memory used by VASP MPI-rank0   349631. kBytes
=======================================================================

   base      :      30000. kBytes
   nonl-proj :     217907. kBytes
   fftplans  :       4588. kBytes
   grid      :      69719. kBytes
   one-center:       1990. kBytes
   wavefun   :      25427. kBytes
 
  
  
 General timing and accounting informations for this job:
 ========================================================
  
                  Total CPU time used (sec):     3547.084
                            User time (sec):     3535.666
                          System time (sec):       11.418
                         Elapsed time (sec):     3573.905
  
                   Maximum memory used (kb):      708756.
                   Average memory used (kb):           0.
  
                          Minor page faults:       639293
                          Major page faults:         5736
                 Voluntary context switches:         7098
